<event>
12    1  0.5759937E-002  0.1923668E+03  0.7546771E-02  0.1156344E+00
          1   -1    0    0  503    0  0.00000000000E+00  0.00000000000E+00  0.43787127267E+03  0.43787127267E+03  0.00000000000E+00 0.  1.
         -1   -1    0    0    0  501 -0.00000000000E+00 -0.00000000000E+00 -0.11438966641E+03  0.11438966641E+03  0.00000000000E+00 0. -1.
          6    2    1    2  503    0  0.23757327776E+02 -0.63415542794E+02  0.17283136510E+02  0.18752713955E+03  0.17401660716E+03 0.  0.
         24    2    3    3    0    0 -0.12219402624E+02 -0.53327558107E+02  0.71989667233E+02  0.12111187723E+03  0.80575631321E+02 0.  0.
         -6    2    1    2    0  501 -0.23757327776E+02  0.63415542794E+02  0.30619846975E+03  0.36473379954E+03  0.18624526827E+03 0.  0.
        -24    2    5    5    0    0 -0.33803888116E+02  0.11346417530E+03  0.19076661654E+03  0.23843098197E+03  0.80253406460E+02 0.  0.
          4    1    4    4  502    0  0.85095376942E+01 -0.27707540153E+02  0.81754070264E+02  0.86740117696E+02  0.00000000000E+00 0. -1.
         -3    1    4    4    0  502 -0.20728940319E+02 -0.25620017954E+02 -0.97644030310E+01  0.34371759531E+02  0.00000000000E+00 0.  1.
          5    1    3    3  503    0  0.35976730401E+02 -0.10087984687E+02 -0.54706530723E+02  0.66415262321E+02  0.47000000000E+01 0. -1.
         13    1    6    6    0    0 -0.47193876307E+02  0.29843890587E+02  0.98242826477E+02  0.11300253413E+03  0.00000000000E+00 0. -1.
        -14    1    6    6    0    0  0.13389988191E+02  0.83620284709E+02  0.92523790066E+02  0.12542844784E+03  0.00000000000E+00 0.  1.
         -5    1    5    5    0  501  0.10046560339E+02 -0.50048632502E+02  0.11543185321E+03  0.12630281757E+03  0.47000000000E+01 0.  1.
<mgrwt>
<rscale>  2 0.19236678E+03</rscale>
<asrwt>0</asrwt>
<pdfrwt beam="1">  1        1 0.67364810E-01 0.19236678E+03</pdfrwt>
<pdfrwt beam="2">  1       -1 0.17598410E-01 0.19236678E+03</pdfrwt>
<totfact> 0.13322428E+03</totfact>
</mgrwt>
</event>
<event>
12    1  0.5759937E-002  0.3001242E+03  0.7546771E-02  0.1085179E+00
         -2   -1    0    0    0  501 -0.00000000000E+00  0.00000000000E+00  0.34503469439E+02  0.34503469439E+02  0.00000000000E+00 0.  1.
          2   -1    0    0  503    0  0.00000000000E+00 -0.00000000000E+00 -0.26558505542E+04  0.26558505542E+04  0.00000000000E+00 0. -1.
          6    2    1    2  503    0 -0.10309438251E+03  0.22172135251E+03 -0.14841725207E+04  0.15141173876E+04  0.17318944082E+03 0.  0.
         24    2    3    3    0    0 -0.11863460770E+03  0.18335561554E+03 -0.14101561063E+04  0.14291824244E+04  0.79553166096E+02 0.  0.
         -6    2    1    2    0  501  0.10309438251E+03 -0.22172135251E+03 -0.11371745641E+04  0.11762366360E+04  0.17486516209E+03 0.  0.
        -24    2    5    5    0    0  0.12849134410E+03 -0.11899539904E+03 -0.67455522107E+03  0.70164589266E+03  0.81315938876E+02 0.  0.
          2    1    4    4  502    0 -0.59719824489E+02  0.39902835627E+02 -0.60309995111E+03  0.60736170834E+03  0.00000000000E+00 0. -1.
         -1    1    4    4    0  502 -0.58914783208E+02  0.14345277992E+03 -0.80705615520E+03  0.82182071608E+03  0.00000000000E+00 0.  1.
          5    1    3    3  503    0  0.15540225187E+02  0.38365736963E+02 -0.74016414350E+02  0.84934963147E+02  0.47000000000E+01 0. -1.
         13    1    6    6    0    0  0.66339260718E+02 -0.73972680097E+02 -0.51616841435E+03  0.52564501984E+03  0.00000000000E+00 0. -1.
        -14    1    6    6    0    0  0.62152083385E+02 -0.45022718943E+02 -0.15838680672E+03  0.17600087282E+03  0.00000000000E+00 0.  1.
         -5    1    5    5    0  501 -0.25396961593E+02 -0.10272595347E+03 -0.46261934300E+03  0.47459074337E+03  0.47000000000E+01 0.  1.
<mgrwt>
<rscale>  2 0.30012421E+03</rscale>
<asrwt>0</asrwt>
<pdfrwt beam="2">  1        2 0.40859233E+00 0.30012421E+03</pdfrwt>
<pdfrwt beam="1">  1       -2 0.53082269E-02 0.30012421E+03</pdfrwt>
<totfact> 0.58418149E+02</totfact>
</mgrwt>
</event>
<event>
12    1  0.5759937E-002  0.1913325E+03  0.7546771E-02  0.1157265E+00
         -2   -1    0    0    0  501 -0.00000000000E+00  0.00000000000E+00  0.99365160853E+02  0.99365160853E+02  0.00000000000E+00 0. -1.
          2   -1    0    0  503    0  0.00000000000E+00 -0.00000000000E+00 -0.45248262558E+03  0.45248262558E+03  0.00000000000E+00 0.  1.
          6    2    1    2  503    0 -0.51780031411E+02 -0.66896219594E+02 -0.58102713250E+02  0.20056003887E+03  0.17231403905E+03 0.  0.
         24    2    3    3    0    0 -0.55837846059E+02 -0.24719031705E+02 -0.99231705809E+02  0.14132267678E+03  0.79976696314E+02 0.  0.
         -6    2    1    2    0  501  0.51780031411E+02  0.66896219594E+02 -0.29501475148E+03  0.35128774757E+03  0.17091840788E+03 0.  0.
        -24    2    5    5    0    0  0.30653541099E+02  0.10643960463E+03 -0.26631306263E+03  0.29784726819E+03  0.74305577372E+02 0.  0.
          4    1    4    4  502    0 -0.57112348556E+01  0.22273693025E+02 -0.31615540823E+01  0.23210580104E+02  0.00000000000E+00 0. -1.
         -3    1    4    4    0  502 -0.50126611204E+02 -0.46992724730E+02 -0.96070151727E+02  0.11811209668E+03  0.00000000000E+00 0.  1.
          5    1    3    3  503    0  0.40578146483E+01 -0.42177187889E+02  0.41128992560E+02  0.59237362086E+02  0.47000000000E+01 0. -1.
         13    1    6    6    0    0 -0.19403541704E+02  0.52858102791E+02 -0.81876274348E+02  0.99369013090E+02  0.00000000000E+00 0. -1.
        -14    1    6    6    0    0  0.50057082803E+02  0.53581501838E+02 -0.18443678828E+03  0.19847825510E+03  0.00000000000E+00 0.  1.
         -5    1    5    5    0  501  0.21126490313E+02 -0.39543385035E+02 -0.28701688850E+02  0.53440479375E+02  0.47000000000E+01 0.  1.
<mgrwt>
<rscale>  2 0.19133245E+03</rscale>
<asrwt>0</asrwt>
<pdfrwt beam="2">  1        2 0.69612712E-01 0.19133245E+03</pdfrwt>
<pdfrwt beam="1">  1       -2 0.15286948E-01 0.19133245E+03</pdfrwt>
<totfact> 0.22835811E+03</totfact>
</mgrwt>
</event>
<event>
12    1  0.5759937E-002  0.1868263E+03  0.7546771E-02  0.1161355E+00
         -2   -1    0    0    0  501 -0.00000000000E+00  0.00000000000E+00  0.32907760159E+02  0.32907760159E+02  0.00000000000E+00 0. -1.
          2   -1    0    0  503    0  0.00000000000E+00 -0.00000000000E+00 -0.12392577898E+04  0.12392577898E+04  0.00000000000E+00 0.  1.
          6    2    1    2  503    0  0.38193561943E+02 -0.61106350253E+02 -0.84347626208E+03  0.86382803278E+03  0.17191256882E+03 0.  0.
         24    2    3    3    0    0  0.87500406343E+02 -0.22828965597E+02 -0.60763307672E+03  0.61981897320E+03  0.82341489106E+02 0.  0.
         -6    2    1    2    0  501 -0.38193561943E+02  0.61106350253E+02 -0.36287376752E+03  0.40833751713E+03  0.17282772500E+03 0.  0.
        -24    2    5    5    0    0 -0.20289202765E+02  0.10395431846E+03 -0.31276652442E+03  0.33985875935E+03  0.80392321970E+02 0.  0.
          2    1    4    4  502    0  0.80497379909E+02  0.16140493527E+02 -0.43782246393E+03  0.44545353700E+03  0.00000000000E+00 0. -1.
         -1    1    4    4    0  502  0.70030264340E+01 -0.38969459124E+02 -0.16981061279E+03  0.17436543620E+03  0.00000000000E+00 0.  1.
          5    1    3    3  503    0 -0.49306844401E+02 -0.38277384655E+02 -0.23584318536E+03  0.24400905959E+03  0.47000000000E+01 0. -1.
         11    1    6    6    0    0 -0.42913797041E+02  0.48402849011E+02 -0.22063440592E+03  0.22992166241E+03  0.00000000000E+00 0. -1.
        -12    1    6    6    0    0  0.22624594276E+02  0.55551469448E+02 -0.92132118502E+02  0.10993709694E+03  0.00000000000E+00 0.  1.
         -5    1    5    5    0  501 -0.17904359178E+02 -0.42847968206E+02 -0.50107243097E+02  0.68478757785E+02  0.47000000000E+01 0.  1.
<mgrwt>
<rscale>  2 0.18682627E+03</rscale>
<asrwt>0</asrwt>
<pdfrwt beam="2">  1        2 0.19065504E+00 0.18682627E+03</pdfrwt>
<pdfrwt beam="1">  1       -2 0.50627325E-02 0.18682627E+03</pdfrwt>
<totfact> 0.36221750E+03</totfact>
</mgrwt>
</event>
<event>
12    1  0.5759937E-002  0.1785146E+03  0.7546771E-02  0.1169248E+00
         -2   -1    0    0    0  501 -0.00000000000E+00  0.00000000000E+00  0.12213609796E+03  0.12213609796E+03  0.00000000000E+00 0.  1.
          2   -1    0    0  503    0  0.00000000000E+00 -0.00000000000E+00 -0.27647604856E+03  0.27647604856E+03  0.00000000000E+00 0. -1.
          6    2    1    2  503    0 -0.41386486981E+02  0.88112843142E+01 -0.12449155415E+03  0.21772083372E+03  0.17353309294E+03 0.  0.
         24    2    3    3    0    0 -0.58296279391E+02  0.57582604689E+02 -0.45790997279E+02  0.12348469191E+03  0.80233665949E+02 0.  0.
         -6    2    1    2    0  501  0.41386486981E+02 -0.88112843142E+01 -0.29848396438E+02  0.18089131280E+03  0.17332126309E+03 0.  0.
        -24    2    5    5    0    0 -0.23252722962E+02 -0.26664755175E+02 -0.60279218673E+02  0.10710039990E+03  0.81149326316E+02 0.  0.
          4    1    4    4  502    0 -0.61633871626E+02  0.74877272953E+02 -0.40452165668E+02  0.10507957862E+03  0.00000000000E+00 0. -1.
         -3    1    4    4    0  502  0.33375922347E+01 -0.17294668263E+02 -0.53388316106E+01  0.18405113290E+02  0.00000000000E+00 0.  1.
          5    1    3    3  503    0  0.16909792410E+02 -0.48771320375E+02 -0.78700556876E+02  0.94236141809E+02  0.47000000000E+01 0. -1.
         11    1    6    6    0    0 -0.22396763537E+02  0.25962023160E+02 -0.33937052548E+02  0.48242773543E+02  0.00000000000E+00 0. -1.
        -12    1    6    6    0    0 -0.85595942524E+00 -0.52626778334E+02 -0.26342166125E+02  0.58857626358E+02  0.00000000000E+00 0.  1.
         -5    1    5    5    0  501  0.64639209943E+02  0.17853470860E+02  0.30430822235E+02  0.73790912894E+02  0.47000000000E+01 0.  1.
<mgrwt>
<rscale>  2 0.17851458E+03</rscale>
<asrwt>0</asrwt>
<pdfrwt beam="2">  1        2 0.42534776E-01 0.17851458E+03</pdfrwt>
<pdfrwt beam="1">  1       -2 0.18790169E-01 0.17851458E+03</pdfrwt>
<totfact> 0.27436756E+03</totfact>
</mgrwt>
</event>
<event>
12    1  0.5759937E-002  0.2586179E+03  0.7546771E-02  0.1107976E+00
         -2   -1    0    0    0  501 -0.00000000000E+00  0.00000000000E+00  0.71805989755E+02  0.71805989755E+02  0.00000000000E+00 0.  1.
          2   -1    0    0  503    0  0.00000000000E+00 -0.00000000000E+00 -0.93752956432E+03  0.93752956432E+03  0.00000000000E+00 0. -1.
          6    2    1    2  503    0  0.91954312876E+02  0.16804771537E+03 -0.47351629182E+03  0.53953565020E+03  0.17373948580E+03 0.  0.
         24    2    3    3    0    0  0.39136580357E+01  0.69745430715E+02 -0.11095388583E+03  0.15367546269E+03  0.80160097473E+02 0.  0.
         -6    2    1    2    0  501 -0.91954312876E+02 -0.16804771537E+03 -0.39220728274E+03  0.46979990387E+03  0.17375202658E+03 0.  0.
        -24    2    5    5    0    0  0.86831887593E+01 -0.50144051552E+02 -0.96921280501E+02  0.13626565706E+03  0.81146601935E+02 0.  0.
          4    1    4    4  502    0  0.10857196364E+02  0.82651844963E+02 -0.65797575776E+02  0.10620041039E+03  0.00000000000E+00 0. -1.
         -3    1    4    4    0  502 -0.69435383282E+01 -0.12906414248E+02 -0.45156310052E+02  0.47475052299E+02  0.00000000000E+00 0.  1.
          5    1    3    3  503    0  0.88040654841E+02  0.98302284653E+02 -0.36256240599E+03  0.38586018752E+03  0.47000000000E+01 0. -1.
         11    1    6    6    0    0  0.30103090783E+02 -0.56930355497E+02 -0.41891764558E+02  0.76825655803E+02  0.00000000000E+00 0. -1.
        -12    1    6    6    0    0 -0.21419902024E+02  0.67863039456E+01 -0.55029515944E+02  0.59440001253E+02  0.00000000000E+00 0.  1.
         -5    1    5    5    0  501 -0.10063750164E+03 -0.11790366382E+03 -0.29528600224E+03  0.33353424681E+03  0.47000000000E+01 0.  1.
<mgrwt>
<rscale>  2 0.25861790E+03</rscale>
<asrwt>0</asrwt>
<pdfrwt beam="2">  1        2 0.14423532E+00 0.25861790E+03</pdfrwt>
<pdfrwt beam="1">  1       -2 0.11047075E-01 0.25861790E+03</pdfrwt>
<totfact> 0.16241428E+03</totfact>
</mgrwt>
</event>
<event>
12    1  0.5759937E-002  0.2136018E+03  0.7546771E-02  0.1138745E+00
         -2   -1    0    0    0  501 -0.00000000000E+00  0.00000000000E+00  0.17167460284E+02  0.17167460284E+02  0.00000000000E+00 0.  1.
          2   -1    0    0  503    0  0.00000000000E+00 -0.00000000000E+00 -0.29524351767E+04  0.29524351767E+04  0.00000000000E+00 0. -1.
          6    2    1    2  503    0 -0.11535270811E+03 -0.47411260077E+02 -0.99340395904E+03  0.10159353433E+04  0.17239234631E+03 0.  0.
         24    2    3    3    0    0 -0.58785552249E+02  0.22398650332E+02 -0.41866684032E+03  0.43419819273E+03  0.96377936765E+02 0.  0.
         -6    2    1    2    0  501  0.11535270811E+03  0.47411260077E+02 -0.19418637573E+04  0.19536672937E+04  0.17443327485E+03 0.  0.
        -24    2    5    5    0    0  0.67390193519E+02  0.92260986611E+02 -0.10380783351E+04  0.10474873555E+04  0.81053083797E+02 0.  0.
          2    1    4    4  502    0  0.12427567295E+02 -0.68457498659E+01 -0.22989179595E+03  0.23032921344E+03  0.00000000000E+00 0. -1.
         -1    1    4    4    0  502 -0.71213119544E+02  0.29244400197E+02 -0.18877504437E+03  0.20386897929E+03  0.00000000000E+00 0.  1.
          5    1    3    3  503    0 -0.56567155864E+02 -0.69809910408E+02 -0.57473711872E+03  0.58173715056E+03  0.47000000000E+01 0. -1.
         11    1    6    6    0    0  0.24746745207E+02 -0.16467625319E+01 -0.43079321992E+03  0.43150656026E+03  0.00000000000E+00 0. -1.
        -12    1    6    6    0    0  0.42643448313E+02  0.93907749143E+02 -0.60728511518E+03  0.61598079528E+03  0.00000000000E+00 0.  1.
         -5    1    5    5    0  501  0.47962514594E+02 -0.44849726534E+02 -0.90378542225E+03  0.90617993812E+03  0.47000000000E+01 0.  1.
<mgrwt>
<rscale>  2 0.21360184E+03</rscale>
<asrwt>0</asrwt>
<pdfrwt beam="2">  1        2 0.45422111E+00 0.21360184E+03</pdfrwt>
<pdfrwt beam="1">  1       -2 0.26411459E-02 0.21360184E+03</pdfrwt>
<totfact> 0.11503832E+03</totfact>
</mgrwt>
</event>
<event>
12    1  0.5759937E-002  0.2148372E+03  0.7546771E-02  0.1137792E+00
         -2   -1    0    0    0  501 -0.00000000000E+00  0.00000000000E+00  0.71816977577E+02  0.71816977577E+02  0.00000000000E+00 0.  1.
          2   -1    0    0  503    0  0.00000000000E+00 -0.00000000000E+00 -0.77587432204E+03  0.77587432204E+03  0.00000000000E+00 0. -1.
          6    2    1    2  503    0 -0.12527824429E+03 -0.78508777471E+01 -0.17748129549E+03  0.27927014079E+03  0.17531664643E+03 0.  0.
         24    2    3    3    0    0 -0.13111134131E+02 -0.46952186340E+02 -0.54192101524E+02  0.10800225623E+03  0.79695005125E+02 0.  0.
         -6    2    1    2    0  501  0.12527824429E+03  0.78508777471E+01 -0.52657604897E+03  0.56842115882E+03  0.17338974502E+03 0.  0.
        -24    2    5    5    0    0  0.19761107698E+02 -0.25866000886E+02 -0.34404443261E+03  0.35485483426E+03  0.80596714613E+02 0.  0.
          2    1    4    4  502    0 -0.10971811744E+02 -0.48469356899E+02 -0.73386350477E+02  0.88629654448E+02  0.00000000000E+00 0. -1.
         -1    1    4    4    0  502 -0.21393223867E+01  0.15171705595E+01  0.19194248953E+02  0.19372601778E+02  0.00000000000E+00 0.  1.
          5    1    3    3  503    0 -0.11216711015E+03  0.39101308593E+02 -0.12328919397E+03  0.17126788457E+03  0.47000000000E+01 0. -1.
         11    1    6    6    0    0  0.30904677131E+02  0.52640969441E+01 -0.28861562487E+03  0.29031325961E+03  0.00000000000E+00 0. -1.
        -12    1    6    6    0    0 -0.11143569433E+02 -0.31130097831E+02 -0.55428807737E+02  0.64541574646E+02  0.00000000000E+00 0.  1.
         -5    1    5    5    0  501  0.10551713659E+03  0.33716878634E+02 -0.18253161636E+03  0.21356632457E+03  0.47000000000E+01 0.  1.
<mgrwt>
<rscale>  2 0.21483719E+03</rscale>
<asrwt>0</asrwt>
<pdfrwt beam="2">  1        2 0.11936528E+00 0.21483719E+03</pdfrwt>
<pdfrwt beam="1">  1       -2 0.11048766E-01 0.21483719E+03</pdfrwt>
<totfact> 0.20761095E+03</totfact>
</mgrwt>
</event>
<event>
12    1  0.5759937E-002  0.1785289E+03  0.7546771E-02  0.1169234E+00
          2   -1    0    0  503    0  0.00000000000E+00  0.00000000000E+00  0.21134626907E+03  0.21134626907E+03  0.00000000000E+00 0.  1.
         -2   -1    0    0    0  501 -0.00000000000E+00 -0.00000000000E+00 -0.15786822850E+03  0.15786822850E+03  0.00000000000E+00 0. -1.
          6    2    1    2  503    0 -0.14113705961E+02 -0.42642487197E+02 -0.12402842663E+02  0.17821032499E+03  0.17201020614E+03 0.  0.
         24    2    3    3    0    0 -0.34964848106E+02  0.32069454372E+02  0.16504303639E+02  0.95298580053E+02  0.80984176323E+02 0.  0.
         -6    2    1    2    0  501  0.14113705961E+02  0.42642487197E+02  0.65880883225E+02  0.19100417258E+03  0.17356475667E+03 0.  0.
        -24    2    5    5    0    0  0.58888844781E+02 -0.32763527266E+01  0.59044850273E+00  0.99362021891E+02  0.79961442196E+02 0.  0.
          4    1    4    4  502    0 -0.67409985225E+01  0.27881535348E+01  0.45033598493E+02  0.45620607782E+02  0.00000000000E+00 0. -1.
         -3    1    4    4    0  502 -0.28223849583E+02  0.29281300837E+02 -0.28529294854E+02  0.49677972270E+02  0.00000000000E+00 0.  1.
          5    1    3    3  503    0  0.20851142145E+02 -0.74711941568E+02 -0.28907146302E+02  0.82911744940E+02  0.47000000000E+01 0. -1.
         13    1    6    6    0    0  0.46372601990E+02  0.35386062362E+02 -0.39831134067E+01  0.58467570646E+02  0.00000000000E+00 0. -1.
        -14    1    6    6    0    0  0.12516242791E+02 -0.38662415089E+02  0.45735619094E+01  0.40894451245E+02  0.00000000000E+00 0.  1.
         -5    1    5    5    0  501 -0.44775138820E+02  0.45918839923E+02  0.65290434723E+02  0.91642150687E+02  0.47000000000E+01 0.  1.
<mgrwt>
<rscale>  2 0.17852889E+03</rscale>
<asrwt>0</asrwt>
<pdfrwt beam="1">  1        2 0.32514811E-01 0.17852889E+03</pdfrwt>
<pdfrwt beam="2">  1       -2 0.24287420E-01 0.17852889E+03</pdfrwt>
<totfact> 0.23574877E+03</totfact>
</mgrwt>
</event>
<event>
12    1  0.5759937E-002  0.1937145E+03  0.7546771E-02  0.1155153E+00
         -1   -1    0    0    0  501 -0.00000000000E+00  0.00000000000E+00  0.66030700302E+02  0.66030700302E+02  0.00000000000E+00 0.  1.
          1   -1    0    0  503    0  0.00000000000E+00 -0.00000000000E+00 -0.59084512100E+03  0.59084512100E+03  0.00000000000E+00 0. -1.
          6    2    1    2  503    0  0.56610609847E+02 -0.63986359951E+02 -0.32654439638E+03  0.37967234350E+03  0.17384139381E+03 0.  0.
         24    2    3    3    0    0  0.30120311420E+02 -0.11060966513E+03 -0.24349100387E+03  0.28070050658E+03  0.79769506976E+02 0.  0.
         -6    2    1    2    0  501 -0.56610609847E+02  0.63986359951E+02 -0.19827002431E+03  0.27720347780E+03  0.17387279878E+03 0.  0.
        -24    2    5    5    0    0  0.25597646869E+02  0.48605849754E+02 -0.15370068881E+03  0.18231789811E+03  0.81228973126E+02 0.  0.
          2    1    4    4  502    0  0.12129022441E+02 -0.14509658852E+02 -0.12797002811E+03  0.12935985266E+03  0.00000000000E+00 0. -1.
         -1    1    4    4    0  502  0.17991288979E+02 -0.96100006282E+02 -0.11552097576E+03  0.15134065392E+03  0.00000000000E+00 0.  1.
          5    1    3    3  503    0  0.26490298427E+02  0.46623305183E+02 -0.83053392509E+02  0.98971836924E+02  0.47000000000E+01 0. -1.
         13    1    6    6    0    0 -0.20186869014E+01  0.47363309231E+02 -0.14617136418E+03  0.15366660621E+03  0.00000000000E+00 0. -1.
        -14    1    6    6    0    0  0.27616333771E+02  0.12425405231E+01 -0.75293246236E+01  0.28651291894E+02  0.00000000000E+00 0.  1.
         -5    1    5    5    0  501 -0.82208256716E+02  0.15380510197E+02 -0.44569335508E+02  0.94885579694E+02  0.47000000000E+01 0.  1.
<mgrwt>
<rscale>  2 0.19371449E+03</rscale>
<asrwt>0</asrwt>
<pdfrwt beam="2">  1        1 0.90899249E-01 0.19371449E+03</pdfrwt>
<pdfrwt beam="1">  1       -1 0.10158569E-01 0.19371449E+03</pdfrwt>
<totfact> 0.21199400E+03</totfact>
</mgrwt>
</event>
<event>
12    1  0.5759937E-002  0.2234802E+03  0.7546771E-02  0.1131315E+00
          1   -1    0    0  503    0  0.00000000000E+00  0.00000000000E+00  0.85301885772E+03  0.85301885772E+03  0.00000000000E+00 0. -1.
         -1   -1    0    0    0  501 -0.00000000000E+00 -0.00000000000E+00 -0.10678473094E+03  0.10678473094E+03  0.00000000000E+00 0.  1.
          6    2    1    2  503    0  0.31961693799E+02 -0.13717253733E+03  0.69483117193E+03  0.72961276213E+03  0.17235594073E+03 0.  0.
         24    2    3    3    0    0  0.16532240557E+02  0.59840385453E+00  0.20872480167E+03  0.22410272912E+03  0.79889406699E+02 0.  0.
         -6    2    1    2    0  501 -0.31961693799E+02  0.13717253733E+03  0.51402954850E+02  0.23019082654E+03  0.17466452985E+03 0.  0.
        -24    2    5    5    0    0 -0.60226975926E+02  0.93309745780E+02 -0.26718369587E+02  0.13612753940E+03  0.74046191136E+02 0.  0.
          4    1    4    4  502    0  0.19594820023E+02  0.20663817456E+02  0.19998660896E+03  0.20200394572E+03  0.00000000000E+00 0. -1.
         -3    1    4    4    0  502 -0.30625794659E+01 -0.20065413602E+02  0.87381927118E+01  0.22098783402E+02  0.00000000000E+00 0.  1.
          5    1    3    3  503    0  0.15429453242E+02 -0.13777094119E+03  0.48610637026E+03  0.50551003301E+03  0.47000000000E+01 0. -1.
         13    1    6    6    0    0 -0.65839721109E+02  0.78120588299E+02  0.30823443968E+01  0.10221152596E+03  0.00000000000E+00 0. -1.
        -14    1    6    6    0    0  0.56127451827E+01  0.15189157480E+02 -0.29800713984E+02  0.33916013436E+02  0.00000000000E+00 0.  1.
         -5    1    5    5    0  501  0.28265282127E+02  0.43862791551E+02  0.78121324438E+02  0.94063287144E+02  0.47000000000E+01 0.  1.
<mgrwt>
<rscale>  2 0.22348016E+03</rscale>
<asrwt>0</asrwt>
<pdfrwt beam="1">  1        1 0.13123367E+00 0.22348016E+03</pdfrwt>
<pdfrwt beam="2">  1       -1 0.16428421E-01 0.22348016E+03</pdfrwt>
<totfact> 0.58285879E+02</totfact>
</mgrwt>
</event>
<event>
12    1  0.5759937E-002  0.2544903E+03  0.7546771E-02  0.1110500E+00
          1   -1    0    0  503    0  0.00000000000E+00  0.00000000000E+00  0.34186655241E+03  0.34186655241E+03  0.00000000000E+00 0. -1.
         -1   -1    0    0    0  501 -0.00000000000E+00 -0.00000000000E+00 -0.19702004925E+03  0.19702004925E+03  0.00000000000E+00 0.  1.
          6    2    1    2  503    0  0.62561247958E+02 -0.17615181795E+03  0.19640439477E+02  0.25541443660E+03  0.17293760392E+03 0.  0.
         24    2    3    3    0    0  0.39496974706E+02 -0.19016613639E+03  0.48728821786E+02  0.21545713680E+03  0.79524268543E+02 0.  0.
         -6    2    1    2    0  501 -0.62561247958E+02  0.17615181795E+03  0.12520606368E+03  0.28347216506E+03  0.17244285219E+03 0.  0.
        -24    2    5    5    0    0 -0.56293414280E+02  0.53492476681E+02  0.51919713865E+01  0.11168720621E+03  0.80104194092E+02 0.  0.
          2    1    4    4  502    0  0.64074170139E+02 -0.13283010784E+03  0.35470298409E+02  0.15168216407E+03  0.00000000000E+00 0. -1.
         -1    1    4    4    0  502 -0.24577195433E+02 -0.57336028550E+02  0.13258523377E+02  0.63774972735E+02  0.00000000000E+00 0.  1.
          5    1    3    3  503    0  0.23064273252E+02  0.14014318437E+02 -0.29088382308E+02  0.39957299799E+02  0.47000000000E+01 0. -1.
         11    1    6    6    0    0 -0.48333569771E+02  0.37003466015E+02  0.39664119029E+02  0.72654200170E+02  0.00000000000E+00 0. -1.
        -12    1    6    6    0    0 -0.79598445083E+01  0.16489010666E+02 -0.34472147643E+02  0.39033006039E+02  0.00000000000E+00 0.  1.
         -5    1    5    5    0  501 -0.62678336785E+01  0.12265934127E+03  0.12001409229E+03  0.17178495885E+03  0.47000000000E+01 0.  1.
<mgrwt>
<rscale>  2 0.25449026E+03</rscale>
<asrwt>0</asrwt>
<pdfrwt beam="1">  1        1 0.52594854E-01 0.25449026E+03</pdfrwt>
<pdfrwt beam="2">  1       -1 0.30310777E-01 0.25449026E+03</pdfrwt>
<totfact> 0.74678474E+02</totfact>
</mgrwt>
</event>
<event>
12    1  0.5759937E-002  0.2095896E+03  0.7546771E-02  0.1141891E+00
         -2   -1    0    0    0  501 -0.00000000000E+00  0.00000000000E+00  0.58863969379E+02  0.58863969379E+02  0.00000000000E+00 0.  1.
          2   -1    0    0  503    0  0.00000000000E+00 -0.00000000000E+00 -0.13957358225E+04  0.13957358225E+04  0.00000000000E+00 0. -1.
          6    2    1    2  503    0 -0.25705791988E+02 -0.11589978967E+03 -0.17172545033E+03  0.27069198913E+03  0.17231068946E+03 0.  0.
         24    2    3    3    0    0  0.49549012205E+02 -0.46421221772E+02 -0.72292299151E+02  0.12786482608E+03  0.80704416185E+02 0.  0.
         -6    2    1    2    0  501  0.25705791988E+02  0.11589978967E+03 -0.11651464028E+04  0.11839078027E+04  0.17314155039E+03 0.  0.
        -24    2    5    5    0    0  0.34659681952E+02  0.24261904306E+02 -0.86307254369E+03  0.86807813261E+03  0.82918605278E+02 0.  0.
          4    1    4    4  502    0  0.19035110554E+02  0.11983882588E+02 -0.55467940009E+02  0.59855168904E+02  0.00000000000E+00 0. -1.
         -3    1    4    4    0  502  0.30513901651E+02 -0.58405104360E+02 -0.16824359143E+02  0.68009657181E+02  0.00000000000E+00 0.  1.
          5    1    3    3  503    0 -0.75254804193E+02 -0.69478567899E+02 -0.99433151174E+02  0.14282716305E+03  0.47000000000E+01 0. -1.
         13    1    6    6    0    0  0.26356683416E+02 -0.18830279078E+02 -0.63477508084E+03  0.63560102063E+03  0.00000000000E+00 0. -1.
        -14    1    6    6    0    0  0.83029985359E+01  0.43092183384E+02 -0.22829746285E+03  0.23247711198E+03  0.00000000000E+00 0.  1.
         -5    1    5    5    0  501 -0.89538899638E+01  0.91637885365E+02 -0.30207385909E+03  0.31582967011E+03  0.47000000000E+01 0.  1.
<mgrwt>
<rscale>  2 0.20958960E+03</rscale>
<asrwt>0</asrwt>
<pdfrwt beam="2">  1        2 0.21472856E+00 0.20958960E+03</pdfrwt>
<pdfrwt beam="1">  1       -2 0.90559963E-02 0.20958960E+03</pdfrwt>
<totfact> 0.12136483E+03</totfact>
</mgrwt>
</event>
<event>
12    1  0.5759937E-002  0.1772057E+03  0.7546771E-02  0.1170535E+00
         -1   -1    0    0    0  501 -0.00000000000E+00  0.00000000000E+00  0.28923348341E+02  0.28923348341E+02  0.00000000000E+00 0. -1.
          1   -1    0    0  503    0  0.00000000000E+00 -0.00000000000E+00 -0.12182085285E+04  0.12182085285E+04  0.00000000000E+00 0.  1.
          6    2    1    2  503    0 -0.51011998430E+02  0.26733855340E+02 -0.38259024009E+03  0.42072876852E+03  0.16528908568E+03 0.  0.
         24    2    3    3    0    0 -0.40410097133E+02  0.75277852272E+02 -0.19302743916E+03  0.22470564375E+03  0.77027936948E+02 0.  0.
         -6    2    1    2    0  501  0.51011998430E+02 -0.26733855340E+02 -0.80669494005E+03  0.82640310830E+03  0.16990717496E+03 0.  0.
        -24    2    5    5    0    0 -0.14093175747E+02 -0.46707746397E+02 -0.50680163038E+03  0.51883892441E+03  0.99828381486E+02 0.  0.
          4    1    4    4  502    0 -0.37500688477E+02 -0.10592007636E+01 -0.49451661291E+02  0.62071654940E+02  0.00000000000E+00 0. -1.
         -3    1    4    4    0  502 -0.29094086557E+01  0.76337053036E+02 -0.14357577787E+03  0.16263398881E+03  0.00000000000E+00 0.  1.
          5    1    3    3  503    0 -0.10601901297E+02 -0.48543996932E+02 -0.18956280093E+03  0.19602312477E+03  0.47000000000E+01 0. -1.
         13    1    6    6    0    0  0.37089480696E+01 -0.90133546222E+01  0.56464692490E+00  0.97629751346E+01  0.00000000000E+00 0. -1.
        -14    1    6    6    0    0 -0.17802123817E+02 -0.37694391775E+02 -0.50736627731E+03  0.50907594928E+03  0.00000000000E+00 0.  1.
         -5    1    5    5    0  501  0.65105174177E+02  0.19973891057E+02 -0.29989330967E+03  0.30756418389E+03  0.47000000000E+01 0.  1.
<mgrwt>
<rscale>  2 0.17720567E+03</rscale>
<asrwt>0</asrwt>
<pdfrwt beam="2">  1        1 0.18741667E+00 0.17720567E+03</pdfrwt>
<pdfrwt beam="1">  1       -1 0.44497464E-02 0.17720567E+03</pdfrwt>
<totfact> 0.23226700E+03</totfact>
</mgrwt>
</event>
<event>
12    1  0.5759937E-002  0.1838962E+03  0.7546771E-02  0.1164085E+00
         -2   -1    0    0    0  501 -0.00000000000E+00  0.00000000000E+00  0.41442599796E+02  0.41442599796E+02  0.00000000000E+00 0.  1.
          2   -1    0    0  503    0  0.00000000000E+00 -0.00000000000E+00 -0.88852506534E+03  0.88852506534E+03  0.00000000000E+00 0. -1.
          6    2    1    2  503    0 -0.18954398090E+02 -0.61176336237E+02 -0.55844844202E+03  0.58825979818E+03  0.17344484553E+03 0.  0.
         24    2    3    3    0    0 -0.55398089193E+02 -0.42959638327E+02 -0.52151764891E+03  0.53306954375E+03  0.85252574996E+02 0.  0.
         -6    2    1    2    0  501  0.18954398090E+02  0.61176336237E+02 -0.28863402353E+03  0.34170786696E+03  0.17132674479E+03 0.  0.
        -24    2    5    5    0    0  0.20917356224E+02  0.18931846408E+02 -0.28863765344E+03  0.29915742467E+03  0.73399721755E+02 0.  0.
          4    1    4    4  502    0 -0.37520340609E+02 -0.68619345637E+02 -0.34011124703E+03  0.34898717872E+03  0.00000000000E+00 0. -1.
         -3    1    4    4    0  502 -0.17877748584E+02  0.25659707310E+02 -0.18140640187E+03  0.18408236503E+03  0.00000000000E+00 0.  1.
          5    1    3    3  503    0  0.36443691103E+02 -0.18216697910E+02 -0.36930793110E+02  0.55190254427E+02  0.47000000000E+01 0. -1.
         11    1    6    6    0    0 -0.19759366492E+02 -0.14975613165E+02 -0.11412127541E+03  0.11678341944E+03  0.00000000000E+00 0. -1.
        -12    1    6    6    0    0  0.40676722716E+02  0.33907459573E+02 -0.17451637803E+03  0.18237400523E+03  0.00000000000E+00 0.  1.
         -5    1    5    5    0  501 -0.19629581344E+01  0.42244489829E+02  0.36299125109E-02  0.42550442285E+02  0.47000000000E+01 0.  1.
<mgrwt>
<rscale>  2 0.18389624E+03</rscale>
<asrwt>0</asrwt>
<pdfrwt beam="2">  1        2 0.13669616E+00 0.18389624E+03</pdfrwt>
<pdfrwt beam="1">  1       -2 0.63757846E-02 0.18389624E+03</pdfrwt>
<totfact> 0.41105666E+03</totfact>
</mgrwt>
</event>
<event>
12    1  0.5759937E-002  0.3543601E+03  0.7546771E-02  0.1060840E+00
          2   -1    0    0  503    0  0.00000000000E+00  0.00000000000E+00  0.16375714387E+04  0.16375714387E+04  0.00000000000E+00 0.  1.
         -2   -1    0    0    0  501 -0.00000000000E+00 -0.00000000000E+00 -0.81008359724E+02  0.81008359724E+02  0.00000000000E+00 0. -1.
          6    2    1    2  503    0 -0.12455721808E+03  0.28274290672E+03  0.57966895892E+03  0.67939810825E+03  0.17351551998E+03 0.  0.
         24    2    3    3    0    0 -0.15428132264E+03  0.25729644437E+03  0.54132008776E+03  0.62440928431E+03  0.82796920946E+02 0.  0.
         -6    2    1    2    0  501  0.12455721808E+03 -0.28274290672E+03  0.97689412005E+03  0.10391816902E+04  0.17354656875E+03 0.  0.
        -24    2    5    5    0    0  0.10323362618E+02 -0.71500293851E+02  0.24583034352E+03  0.26966940920E+03  0.84084294743E+02 0.  0.
          2    1    4    4  502    0 -0.69739728141E+02  0.84783844479E+02  0.12804619847E+03  0.16866463443E+03  0.00000000000E+00 0. -1.
         -1    1    4    4    0  502 -0.84541594500E+02  0.17251259989E+03  0.41327388929E+03  0.45574464988E+03  0.00000000000E+00 0.  1.
          5    1    3    3  503    0  0.29724104566E+02  0.25446462358E+02  0.38348871157E+02  0.54988823936E+02  0.47000000000E+01 0. -1.
         13    1    6    6    0    0  0.22695525873E+02 -0.69425192256E+02  0.10288997028E+03  0.12617959502E+03  0.00000000000E+00 0. -1.
        -14    1    6    6    0    0 -0.12372163255E+02 -0.20751015952E+01  0.14294037324E+03  0.14348981418E+03  0.00000000000E+00 0.  1.
         -5    1    5    5    0  501  0.11423385546E+03 -0.21124261287E+03  0.73106377653E+03  0.76951228098E+03  0.47000000000E+01 0.  1.
<mgrwt>
<rscale>  2 0.35436009E+03</rscale>
<asrwt>0</asrwt>
<pdfrwt beam="1">  1        2 0.25193404E+00 0.35436009E+03</pdfrwt>
<pdfrwt beam="2">  1       -2 0.12462826E-01 0.35436009E+03</pdfrwt>
<totfact> 0.53186712E+02</totfact>
</mgrwt>
</event>
<event>
12    1  0.5759937E-002  0.2653912E+03  0.7546771E-02  0.1103947E+00
         -1   -1    0    0    0  501 -0.00000000000E+00  0.00000000000E+00  0.21925879872E+03  0.21925879872E+03  0.00000000000E+00 0. -1.
          1   -1    0    0  503    0  0.00000000000E+00 -0.00000000000E+00 -0.59072865323E+03  0.59072865323E+03  0.00000000000E+00 0.  1.
          6    2    1    2  503    0 -0.18336570096E+03 -0.80100804863E+02  0.88074886037E+02  0.27896661477E+03  0.17328031445E+03 0.  0.
         24    2    3    3    0    0 -0.13977925079E+03 -0.65516301605E+02 -0.50098692944E+01  0.17504670307E+03  0.82374903553E+02 0.  0.
         -6    2    1    2    0  501  0.18336570096E+03  0.80100804863E+02 -0.45954474054E+03  0.53102083718E+03  0.17539282120E+03 0.  0.
        -24    2    5    5    0    0  0.22645793601E+02  0.32118848998E+02 -0.22941351803E+03  0.24621278553E+03  0.80285248172E+02 0.  0.
          4    1    4    4  502    0 -0.14147743797E+03 -0.62692382890E+02  0.14348950705E+02  0.15540943573E+03  0.00000000000E+00 0. -1.
         -3    1    4    4    0  502  0.16981871794E+01 -0.28239187152E+01 -0.19358819999E+02  0.19637267335E+02  0.00000000000E+00 0.  1.
          5    1    3    3  503    0 -0.43586450164E+02 -0.14584503258E+02  0.93084755331E+02  0.10391991170E+03  0.47000000000E+01 0. -1.
         13    1    6    6    0    0  0.23041590079E+02 -0.18986507350E+02 -0.39329724566E+02  0.49378432226E+02  0.00000000000E+00 0. -1.
        -14    1    6    6    0    0 -0.39579647710E+00  0.51105356347E+02 -0.19008379346E+03  0.19683435330E+03  0.00000000000E+00 0.  1.
         -5    1    5    5    0  501  0.16071990736E+03  0.47981955866E+02 -0.23013122252E+03  0.28480805165E+03  0.47000000000E+01 0.  1.
<mgrwt>
<rscale>  2 0.26539124E+03</rscale>
<asrwt>0</asrwt>
<pdfrwt beam="2">  1        1 0.90881330E-01 0.26539124E+03</pdfrwt>
<pdfrwt beam="1">  1       -1 0.33732124E-01 0.26539124E+03</pdfrwt>
<totfact> 0.30249070E+02</totfact>
</mgrwt>
</event>
<event>
12    1  0.5759937E-002  0.1883984E+03  0.7546771E-02  0.1159914E+00
          1   -1    0    0  503    0  0.00000000000E+00  0.00000000000E+00  0.19360627081E+02  0.19360627081E+02  0.00000000000E+00 0.  1.
         -1   -1    0    0    0  501 -0.00000000000E+00 -0.00000000000E+00 -0.19819561986E+04  0.19819561986E+04  0.00000000000E+00 0. -1.
          6    2    1    2  503    0  0.61914891617E+02  0.46093754377E+02 -0.70658515258E+03  0.73123474921E+03  0.17170786998E+03 0.  0.
         24    2    3    3    0    0  0.63407049882E+02  0.33371783280E+02 -0.22632373251E+03  0.25077955183E+03  0.80832059385E+02 0.  0.
         -6    2    1    2    0  501 -0.61914891617E+02 -0.46093754377E+02 -0.12560104189E+04  0.12700820765E+04  0.17201226842E+03 0.  0.
        -24    2    5    5    0    0 -0.85279954619E+02  0.95188225134E+01 -0.88982417150E+03  0.89893097153E+03  0.94480457041E+02 0.  0.
          2    1    4    4  502    0 -0.96546500261E+01  0.26533609116E+02 -0.30036633366E+02  0.41224313503E+02  0.00000000000E+00 0. -1.
         -1    1    4    4    0  502  0.73061699908E+02  0.68381741634E+01 -0.19628709914E+03  0.20955523832E+03  0.00000000000E+00 0.  1.
          5    1    3    3  503    0 -0.14921582655E+01  0.12721971097E+02 -0.48026142007E+03  0.48045519739E+03  0.47000000000E+01 0. -1.
         11    1    6    6    0    0 -0.10402330468E+03 -0.22333807184E+01 -0.77922802696E+03  0.78614385065E+03  0.00000000000E+00 0. -1.
        -12    1    6    6    0    0  0.18743350062E+02  0.11752203232E+02 -0.11059614454E+03  0.11278712089E+03  0.00000000000E+00 0.  1.
         -5    1    5    5    0  501  0.23365063003E+02 -0.55612576891E+02 -0.36618624745E+03  0.37115110494E+03  0.47000000000E+01 0.  1.
<mgrwt>
<rscale>  2 0.18839840E+03</rscale>
<asrwt>0</asrwt>
<pdfrwt beam="1">  1        1 0.29785596E-02 0.18839840E+03</pdfrwt>
<pdfrwt beam="2">  1       -1 0.30491617E+00 0.18839840E+03</pdfrwt>
<totfact> 0.12504900E+02</totfact>
</mgrwt>
</event>
<event>
12    1  0.5759937E-002  0.1882909E+03  0.7546771E-02  0.1160012E+00
         -1   -1    0    0    0  501 -0.00000000000E+00  0.00000000000E+00  0.74569318668E+02  0.74569318668E+02  0.00000000000E+00 0.  1.
          1   -1    0    0  503    0  0.00000000000E+00 -0.00000000000E+00 -0.80976751821E+03  0.80976751821E+03  0.00000000000E+00 0. -1.
          6    2    1    2  503    0  0.54327685368E+01  0.71912381016E+02 -0.84462346297E+02  0.20714177158E+03  0.17485113690E+03 0.  0.
         24    2    3    3    0    0 -0.14662925003E+02  0.78377018535E+02 -0.12020180217E+03  0.16536824955E+03  0.80871665691E+02 0.  0.
         -6    2    1    2    0  501 -0.54327685368E+01 -0.71912381016E+02 -0.65073585324E+03  0.67719506529E+03  0.17301762986E+03 0.  0.
        -24    2    5    5    0    0  0.27995173004E+02 -0.21766371951E+02 -0.15369948071E+03  0.17649625850E+03  0.79182663729E+02 0.  0.
          4    1    4    4  502    0 -0.97928182222E+01 -0.16163320046E+02 -0.19373608016E+02  0.27064531978E+02  0.00000000000E+00 0. -1.
         -3    1    4    4    0  502 -0.48701067808E+01  0.94540338581E+02 -0.10082819415E+03  0.13830371757E+03  0.00000000000E+00 0.  1.
          5    1    3    3  503    0  0.20095693540E+02 -0.64646375192E+01  0.35739455870E+02  0.41773522032E+02  0.47000000000E+01 0. -1.
         11    1    6    6    0    0  0.48053031010E+02 -0.37153142802E+02 -0.11848815337E+03  0.13314988659E+03  0.00000000000E+00 0. -1.
        -12    1    6    6    0    0 -0.20057858006E+02  0.15386770851E+02 -0.35211327331E+02  0.43346371906E+02  0.00000000000E+00 0.  1.
         -5    1    5    5    0  501 -0.33427941540E+02 -0.50146009065E+02 -0.49703637254E+03  0.50069880680E+03  0.47000000000E+01 0.  1.
<mgrwt>
<rscale>  2 0.18829095E+03</rscale>
<asrwt>0</asrwt>
<pdfrwt beam="2">  1        1 0.12457961E+00 0.18829095E+03</pdfrwt>
<pdfrwt beam="1">  1       -1 0.11472203E-01 0.18829095E+03</pdfrwt>
<totfact> 0.11134765E+03</totfact>
</mgrwt>
</event>
<event>
12    1  0.5759937E-002  0.2071302E+03  0.7546771E-02  0.1143859E+00
          2   -1    0    0  503    0  0.00000000000E+00  0.00000000000E+00  0.42910620266E+03  0.42910620266E+03  0.00000000000E+00 0. -1.
         -2   -1    0    0    0  501 -0.00000000000E+00 -0.00000000000E+00 -0.10944515066E+03  0.10944515066E+03  0.00000000000E+00 0.  1.
          6    2    1    2  503    0  0.10614746689E+03 -0.33333636668E+02  0.78946612933E+02  0.21933399636E+03  0.17174521305E+03 0.  0.
         24    2    3    3    0    0  0.26468346740E+02  0.39667287931E+02  0.21036923900E+02  0.96641212284E+02  0.81381230229E+02 0.  0.
         -6    2    1    2    0  501 -0.10614746689E+03  0.33333636668E+02  0.24071443907E+03  0.31921735697E+03  0.17770161438E+03 0.  0.
        -24    2    5    5    0    0 -0.49743841691E+02  0.73180951053E+02  0.21525126108E+03  0.24546343617E+03  0.78033913899E+02 0.  0.
          4    1    4    4  502    0  0.77535665418E+01  0.32380488613E+02  0.50798087657E+02  0.60737628753E+02  0.00000000000E+00 0. -1.
         -3    1    4    4    0  502  0.18714780198E+02  0.72867993175E+01 -0.29761163757E+02  0.35903583530E+02  0.00000000000E+00 0.  1.
          5    1    3    3  503    0  0.79679120148E+02 -0.73000924599E+02  0.57909689033E+02  0.12269278407E+03  0.47000000000E+01 0. -1.
         11    1    6    6    0    0  0.18581587112E+02  0.28226204599E+02  0.42242299151E+02  0.54096264596E+02  0.00000000000E+00 0. -1.
        -12    1    6    6    0    0 -0.68325428803E+02  0.44954746455E+02  0.17300896193E+03  0.19136717158E+03  0.00000000000E+00 0.  1.
         -5    1    5    5    0  501 -0.56403625197E+02 -0.39847314385E+02  0.25463177987E+02  0.73753920792E+02  0.47000000000E+01 0.  1.
<mgrwt>
<rscale>  2 0.20713024E+03</rscale>
<asrwt>0</asrwt>
<pdfrwt beam="1">  1        2 0.66016338E-01 0.20713024E+03</pdfrwt>
<pdfrwt beam="2">  1       -2 0.16837716E-01 0.20713024E+03</pdfrwt>
<totfact> 0.20655314E+03</totfact>
</mgrwt>
</event>
<event>
12    1  0.5759937E-002  0.2462387E+03  0.7546771E-02  0.1115705E+00
          2   -1    0    0  503    0  0.00000000000E+00  0.00000000000E+00  0.18061666090E+03  0.18061666090E+03  0.00000000000E+00 0.  1.
         -2   -1    0    0    0  501 -0.00000000000E+00 -0.00000000000E+00 -0.38788629041E+03  0.38788629041E+03  0.00000000000E+00 0. -1.
          6    2    1    2  503    0 -0.17193832830E+03  0.25340187483E+02  0.91192878167E+00  0.24544366390E+03  0.17331141537E+03 0.  0.
         24    2    3    3    0    0 -0.14480400943E+03 -0.38219294433E+02  0.25267932677E+02  0.17201761997E+03  0.80763095194E+02 0.  0.
         -6    2    1    2    0  501  0.17193832830E+03 -0.25340187483E+02 -0.20818155828E+03  0.32305928741E+03  0.17556431337E+03 0.  0.
        -24    2    5    5    0    0  0.18973918899E+03 -0.23270050570E+02 -0.13860978722E+03  0.25106291641E+03  0.85308028856E+02 0.  0.
          4    1    4    4  502    0 -0.80767965856E+02  0.74213490356E+01 -0.16808873038E+02  0.82831630086E+02  0.00000000000E+00 0. -1.
         -3    1    4    4    0  502 -0.64036043573E+02 -0.45640643468E+02  0.42076805714E+02  0.89185989885E+02  0.00000000000E+00 0.  1.
          5    1    3    3  503    0 -0.27134318872E+02  0.63559481915E+02 -0.24356003895E+02  0.73426043933E+02  0.47000000000E+01 0. -1.
         13    1    6    6    0    0  0.21233639989E+01  0.70020489490E+01 -0.32685396839E+02  0.33494365655E+02  0.00000000000E+00 0. -1.
        -14    1    6    6    0    0  0.18761582500E+03 -0.30272099519E+02 -0.10592439038E+03  0.21756855075E+03  0.00000000000E+00 0.  1.
         -5    1    5    5    0  501 -0.17800860693E+02 -0.20701369125E+01 -0.69571771064E+02  0.71996371000E+02  0.47000000000E+01 0.  1.
<mgrwt>
<rscale>  2 0.24623866E+03</rscale>
<asrwt>0</asrwt>
<pdfrwt beam="1">  1        2 0.27787179E-01 0.24623866E+03</pdfrwt>
<pdfrwt beam="2">  1       -2 0.59674814E-01 0.24623866E+03</pdfrwt>
<totfact> 0.51214337E+02</totfact>
</mgrwt>
</event>
<event>
12    1  0.5759937E-002  0.1847735E+03  0.7546771E-02  0.1163262E+00
          1   -1    0    0  503    0  0.00000000000E+00  0.00000000000E+00  0.14510402456E+04  0.14510402456E+04  0.00000000000E+00 0. -1.
         -1   -1    0    0    0  501 -0.00000000000E+00 -0.00000000000E+00 -0.31042377300E+02  0.31042377300E+02  0.00000000000E+00 0.  1.
          6    2    1    2  503    0  0.52905490069E+02 -0.35275797825E+02  0.10761634013E+04  0.10920035773E+04  0.17407117425E+03 0.  0.
         24    2    3    3    0    0  0.43539309976E+02 -0.68719540201E+02  0.43495346686E+03  0.44983655909E+03  0.80934324227E+02 0.  0.
         -6    2    1    2    0  501 -0.52905490069E+02  0.35275797825E+02  0.34383446699E+03  0.39007904560E+03  0.17290502694E+03 0.  0.
        -24    2    5    5    0    0 -0.11442632799E+01 -0.37351000391E+02  0.22191561321E+03  0.23894938828E+03  0.80335945892E+02 0.  0.
          2    1    4    4  502    0 -0.18949341060E+01 -0.52215318679E+02  0.11578534166E+03  0.12702864096E+03  0.00000000000E+00 0. -1.
         -1    1    4    4    0  502  0.45434244082E+02 -0.16504221522E+02  0.31916812520E+03  0.32280791813E+03  0.00000000000E+00 0.  1.
          5    1    3    3  503    0  0.93661800933E+01  0.33443742376E+02  0.64120993441E+03  0.64216701817E+03  0.47000000000E+01 0. -1.
         13    1    6    6    0    0  0.11464664496E+02 -0.66487790180E+00  0.18513943639E+03  0.18549526005E+03  0.00000000000E+00 0. -1.
        -14    1    6    6    0    0 -0.12608927776E+02 -0.36686122489E+02  0.36776176826E+02  0.53454128230E+02  0.00000000000E+00 0.  1.
         -5    1    5    5    0  501 -0.51761226789E+02  0.72626798216E+02  0.12191885377E+03  0.15112965732E+03  0.47000000000E+01 0.  1.
<mgrwt>
<rscale>  2 0.18477347E+03</rscale>
<asrwt>0</asrwt>
<pdfrwt beam="1">  1        1 0.22323691E+00 0.18477347E+03</pdfrwt>
<pdfrwt beam="2">  1       -1 0.47757515E-02 0.18477347E+03</pdfrwt>
<totfact> 0.14587845E+03</totfact>
</mgrwt>
</event>
<event>
12    1  0.5759937E-002  0.1802212E+03  0.7546771E-02  0.1167589E+00
          1   -1    0    0  503    0  0.00000000000E+00  0.00000000000E+00  0.36256976986E+02  0.36256976986E+02  0.00000000000E+00 0.  1.
         -1   -1    0    0    0  501 -0.00000000000E+00 -0.00000000000E+00 -0.89595047692E+03  0.89595047692E+03  0.00000000000E+00 0. -1.
          6    2    1    2  503    0 -0.50233043540E+02  0.10770603266E+02 -0.42448972622E+03  0.46121037986E+03  0.17287024691E+03 0.  0.
         24    2    3    3    0    0  0.10553037885E+02 -0.25005231260E+02 -0.11099841184E+03  0.13984804196E+03  0.80623812920E+02 0.  0.
         -6    2    1    2    0  501  0.50233043540E+02 -0.10770603266E+02 -0.43520377371E+03  0.47099707404E+03  0.17261678524E+03 0.  0.
        -24    2    5    5    0    0  0.88528458189E+02  0.15330332973E+02 -0.22601855666E+03  0.25668808522E+03  0.82049242059E+02 0.  0.
          2    1    4    4  502    0  0.27842332531E+02  0.11400763064E+02 -0.11000924697E+02  0.32034250786E+02  0.00000000000E+00 0. -1.
         -1    1    4    4    0  502 -0.17289294647E+02 -0.36405994325E+02 -0.99997487142E+02  0.10781379117E+03  0.00000000000E+00 0.  1.
          5    1    3    3  503    0 -0.60786081425E+02  0.35775834526E+02 -0.31349131438E+03  0.32136233790E+03  0.47000000000E+01 0. -1.
         13    1    6    6    0    0  0.15360096197E+02 -0.30675318089E+02 -0.79336821544E+02  0.86436328865E+02  0.00000000000E+00 0. -1.
        -14    1    6    6    0    0  0.73168361992E+02  0.46005651062E+02 -0.14668173512E+03  0.17025175636E+03  0.00000000000E+00 0.  1.
         -5    1    5    5    0  501 -0.38295414649E+02 -0.26100936239E+02 -0.20918521705E+03  0.21430898882E+03  0.47000000000E+01 0.  1.
<mgrwt>
<rscale>  2 0.18022118E+03</rscale>
<asrwt>0</asrwt>
<pdfrwt beam="1">  1        1 0.55779963E-02 0.18022118E+03</pdfrwt>
<pdfrwt beam="2">  1       -1 0.13783854E+00 0.18022118E+03</pdfrwt>
<totfact> 0.66900596E+02</totfact>
</mgrwt>
</event>
<event>
12    1  0.5759937E-002  0.2043107E+03  0.7546771E-02  0.1146152E+00
          1   -1    0    0  503    0  0.00000000000E+00  0.00000000000E+00  0.11355485539E+03  0.11355485539E+03  0.00000000000E+00 0.  1.
         -1   -1    0    0    0  501 -0.00000000000E+00 -0.00000000000E+00 -0.40105544699E+03  0.40105544699E+03  0.00000000000E+00 0. -1.
          6    2    1    2  503    0 -0.10078560076E+03 -0.27880476314E+02 -0.21924693846E+03  0.30098540531E+03  0.17772995219E+03 0.  0.
         24    2    3    3    0    0 -0.32819803794E+02 -0.63516499212E+02 -0.59883548340E+02  0.12404457962E+03  0.81789566439E+02 0.  0.
         -6    2    1    2    0  501  0.10078560076E+03  0.27880476314E+02 -0.68253653138E+02  0.21362489706E+03  0.17332621613E+03 0.  0.
        -24    2    5    5    0    0  0.26586998373E+02  0.72655037711E+02 -0.61837897027E+02  0.12659934983E+03  0.78853325111E+02 0.  0.
          2    1    4    4  502    0  0.23486050569E+02 -0.17950382910E+02 -0.38463304146E+02  0.48510169901E+02  0.00000000000E+00 0. -1.
         -1    1    4    4    0  502 -0.56305854364E+02 -0.45566116302E+02 -0.21420244194E+02  0.75534409720E+02  0.00000000000E+00 0.  1.
          5    1    3    3  503    0 -0.67965796967E+02  0.35636022897E+02 -0.15936339012E+03  0.17694082569E+03  0.47000000000E+01 0. -1.
         11    1    6    6    0    0  0.18885742900E+02  0.72551961120E+02 -0.78312888177E+02  0.10841294573E+03  0.00000000000E+00 0. -1.
        -12    1    6    6    0    0  0.77012554730E+01  0.10307659139E+00  0.16474991150E+02  0.18186404099E+02  0.00000000000E+00 0.  1.
         -5    1    5    5    0  501  0.74198602388E+02 -0.44774561397E+02 -0.64157561104E+01  0.87025547232E+02  0.47000000000E+01 0.  1.
<mgrwt>
<rscale>  2 0.20431069E+03</rscale>
<asrwt>0</asrwt>
<pdfrwt beam="1">  1        1 0.17469978E-01 0.20431069E+03</pdfrwt>
<pdfrwt beam="2">  1       -1 0.61700838E-01 0.20431069E+03</pdfrwt>
<totfact> 0.83698053E+02</totfact>
</mgrwt>
</event>
<event>
12    1  0.5759937E-002  0.2290815E+03  0.7546771E-02  0.1127288E+00
         -2   -1    0    0    0  501 -0.00000000000E+00  0.00000000000E+00  0.84418160281E+02  0.84418160281E+02  0.00000000000E+00 0.  1.
          2   -1    0    0  503    0  0.00000000000E+00 -0.00000000000E+00 -0.62688142873E+03  0.62688142873E+03  0.00000000000E+00 0. -1.
          6    2    1    2  503    0  0.43176938852E+02 -0.14068923472E+03 -0.24069666300E+03  0.33338744447E+03  0.17763613297E+03 0.  0.
         24    2    3    3    0    0 -0.27202841634E+02 -0.91687077482E+02 -0.20435835176E+03  0.24012926639E+03  0.82177940311E+02 0.  0.
         -6    2    1    2    0  501 -0.43176938852E+02  0.14068923472E+03 -0.30176660545E+03  0.37791214454E+03  0.17348428175E+03 0.  0.
        -24    2    5    5    0    0 -0.25519119148E+02  0.75091531108E+02 -0.28735342759E+03  0.30830835864E+03  0.78689822554E+02 0.  0.
          4    1    4    4  502    0 -0.27413840949E+02 -0.88622688322E+02 -0.21226309525E+03  0.23164870206E+03  0.00000000000E+00 0. -1.
         -3    1    4    4    0  502  0.21099931422E+00 -0.30643891598E+01  0.79047434936E+01  0.84805643287E+01  0.00000000000E+00 0.  1.
          5    1    3    3  503    0  0.70379780486E+02 -0.49002157237E+02 -0.36338311246E+02  0.93258178083E+02  0.47000000000E+01 0. -1.
         13    1    6    6    0    0 -0.36853798601E+00 -0.15207088633E+02 -0.69494544979E+02  0.71139884360E+02  0.00000000000E+00 0. -1.
        -14    1    6    6    0    0 -0.25150581162E+02  0.90298619741E+02 -0.21785888261E+03  0.23716847428E+03  0.00000000000E+00 0.  1.
         -5    1    5    5    0  501 -0.17657819704E+02  0.65597703611E+02 -0.14413177859E+02  0.69603785901E+02  0.47000000000E+01 0.  1.
<mgrwt>
<rscale>  2 0.22908152E+03</rscale>
<asrwt>0</asrwt>
<pdfrwt beam="2">  1        2 0.96443297E-01 0.22908152E+03</pdfrwt>
<pdfrwt beam="1">  1       -2 0.12987409E-01 0.22908152E+03</pdfrwt>
<totfact> 0.20723638E+03</totfact>
</mgrwt>
</event>
<event>
12    1  0.5759937E-002  0.2009152E+03  0.7546771E-02  0.1148969E+00
          2   -1    0    0  503    0  0.00000000000E+00  0.00000000000E+00  0.80028885953E+03  0.80028885953E+03  0.00000000000E+00 0.  1.
         -2   -1    0    0    0  501 -0.00000000000E+00 -0.00000000000E+00 -0.56089331408E+02  0.56089331408E+02  0.00000000000E+00 0. -1.
          6    2    1    2  503    0 -0.83989814834E+02 -0.53176112901E+02  0.23801058092E+03  0.31216571521E+03  0.17583062628E+03 0.  0.
         24    2    3    3    0    0  0.16562275386E+02  0.88460628110E+01  0.10921216345E+03  0.13732694528E+03  0.81109996054E+02 0.  0.
         -6    2    1    2    0  501  0.83989814834E+02  0.53176112901E+02  0.50618894720E+03  0.54421247573E+03  0.17337237524E+03 0.  0.
        -24    2    5    5    0    0  0.48419447110E+02 -0.26180630426E+02  0.17076158007E+03  0.19766326943E+03  0.82954099266E+02 0.  0.
          2    1    4    4  502    0  0.19768208844E+02 -0.24235994482E+01 -0.65558817544E+01  0.20967486754E+02  0.00000000000E+00 0. -1.
         -1    1    4    4    0  502 -0.32059334584E+01  0.11269662259E+02  0.11576804521E+03  0.11635945852E+03  0.00000000000E+00 0.  1.
          5    1    3    3  503    0 -0.10055209022E+03 -0.62022175712E+02  0.12879841747E+03  0.17483876993E+03  0.47000000000E+01 0. -1.
         11    1    6    6    0    0  0.12467608130E+02 -0.52113505778E+02  0.75387470801E+02  0.92490699482E+02  0.00000000000E+00 0. -1.
        -12    1    6    6    0    0  0.35951838979E+02  0.25932875353E+02  0.95374109272E+02  0.10517256995E+03  0.00000000000E+00 0.  1.
         -5    1    5    5    0  501  0.35570367724E+02  0.79356743326E+02  0.33542736713E+03  0.34654920630E+03  0.47000000000E+01 0.  1.
<mgrwt>
<rscale>  2 0.20091516E+03</rscale>
<asrwt>0</asrwt>
<pdfrwt beam="1">  1        2 0.12312136E+00 0.20091516E+03</pdfrwt>
<pdfrwt beam="2">  1       -2 0.86291285E-02 0.20091516E+03</pdfrwt>
<totfact> 0.29500270E+03</totfact>
</mgrwt>
</event>
<event>
12    1  0.5759937E-002  0.1972610E+03  0.7546771E-02  0.1152071E+00
         -2   -1    0    0    0  501 -0.00000000000E+00  0.00000000000E+00  0.70480311806E+02  0.70480311806E+02  0.00000000000E+00 0.  1.
          2   -1    0    0  503    0  0.00000000000E+00 -0.00000000000E+00 -0.55210391917E+03  0.55210391917E+03  0.00000000000E+00 0. -1.
          6    2    1    2  503    0 -0.92835033486E+02 -0.23357904508E+02 -0.24057549490E+03  0.31069821276E+03  0.17173489895E+03 0.  0.
         24    2    3    3    0    0 -0.56271348984E+01 -0.29806737478E+02 -0.46449876768E+02  0.97734247167E+02  0.80462946574E+02 0.  0.
         -6    2    1    2    0  501  0.92835033486E+02  0.23357904508E+02 -0.24104811246E+03  0.31188601822E+03  0.17321882315E+03 0.  0.
        -24    2    5    5    0    0  0.93008317919E+02 -0.39878180342E+02 -0.12096696870E+03  0.17609057079E+03  0.78320272829E+02 0.  0.
          4    1    4    4  502    0 -0.47461884233E+01 -0.13741578484E+02 -0.68730736466E+02  0.70251486952E+02  0.00000000000E+00 0. -1.
         -3    1    4    4    0  502 -0.88094647512E+00 -0.16065158994E+02  0.22280859698E+02  0.27482760216E+02  0.00000000000E+00 0.  1.
          5    1    3    3  503    0 -0.87207898588E+02  0.64488329698E+01 -0.19412561813E+03  0.21296396559E+03  0.47000000000E+01 0. -1.
         13    1    6    6    0    0  0.43749293347E+02 -0.30099165559E+01 -0.10307191742E+03  0.11201285831E+03  0.00000000000E+00 0. -1.
        -14    1    6    6    0    0  0.49259024572E+02 -0.36868263786E+02 -0.17895051275E+02  0.64077712479E+02  0.00000000000E+00 0.  1.
         -5    1    5    5    0  501 -0.17328443287E+00  0.63236084850E+02 -0.12008114376E+03  0.13579544743E+03  0.47000000000E+01 0.  1.
<mgrwt>
<rscale>  2 0.19726102E+03</rscale>
<asrwt>0</asrwt>
<pdfrwt beam="2">  1        2 0.84939066E-01 0.19726102E+03</pdfrwt>
<pdfrwt beam="1">  1       -2 0.10843125E-01 0.19726102E+03</pdfrwt>
<totfact> 0.31969461E+03</totfact>
</mgrwt>
</event>
<event>
12    1  0.5759937E-002  0.1881669E+03  0.7546771E-02  0.1160125E+00
          2   -1    0    0  503    0  0.00000000000E+00  0.00000000000E+00  0.88285687714E+02  0.88285687714E+02  0.00000000000E+00 0. -1.
         -2   -1    0    0    0  501 -0.00000000000E+00 -0.00000000000E+00 -0.40809778052E+03  0.40809778052E+03  0.00000000000E+00 0.  1.
          6    2    1    2  503    0 -0.19337639717E+02  0.74707790181E+02 -0.12645099903E+03  0.22585410920E+03  0.17048467750E+03 0.  0.
         24    2    3    3    0    0  0.96719211076E+01  0.12569874552E+02 -0.56879788147E+00  0.82427843316E+02  0.80885585975E+02 0.  0.
         -6    2    1    2    0  501  0.19337639717E+02 -0.74707790181E+02 -0.19336109377E+03  0.27052935903E+03  0.17274959708E+03 0.  0.
        -24    2    5    5    0    0  0.47826310382E+02  0.13408583835E+02 -0.53237582013E+02  0.10250320549E+03  0.72149295995E+02 0.  0.
          4    1    4    4  502    0 -0.87359087278E+00 -0.16535352596E+02  0.32903401948E+02  0.36834968525E+02  0.00000000000E+00 0. -1.
         -3    1    4    4    0  502  0.10545511980E+02  0.29105227148E+02 -0.33472199830E+02  0.45592874791E+02  0.00000000000E+00 0.  1.
          5    1    3    3  503    0 -0.29009560824E+02  0.62137915629E+02 -0.12588220115E+03  0.14342626588E+03  0.47000000000E+01 0. -1.
         11    1    6    6    0    0  0.14038814656E+02  0.15947785442E+01  0.17938061170E+02  0.22834309145E+02  0.00000000000E+00 0. -1.
        -12    1    6    6    0    0  0.33787495726E+02  0.11813805291E+02 -0.71175643183E+02  0.79668896349E+02  0.00000000000E+00 0.  1.
         -5    1    5    5    0  501 -0.28488670665E+02 -0.88116374016E+02 -0.14012351175E+03  0.16802615354E+03  0.47000000000E+01 0.  1.
<mgrwt>
<rscale>  2 0.18816692E+03</rscale>
<asrwt>0</asrwt>
<pdfrwt beam="1">  1        2 0.13582413E-01 0.18816692E+03</pdfrwt>
<pdfrwt beam="2">  1       -2 0.62784275E-01 0.18816692E+03</pdfrwt>
<totfact> 0.10450025E+03</totfact>
</mgrwt>
</event>
<event>
12    1  0.5759937E-002  0.1945034E+03  0.7546771E-02  0.1154461E+00
         -1   -1    0    0    0  501 -0.00000000000E+00  0.00000000000E+00  0.20321788835E+02  0.20321788835E+02  0.00000000000E+00 0.  1.
          1   -1    0    0  503    0  0.00000000000E+00 -0.00000000000E+00 -0.18633651489E+04  0.18633651489E+04  0.00000000000E+00 0. -1.
          6    2    1    2  503    0 -0.12126795554E+02  0.87374325515E+02 -0.95123482853E+03  0.97095701613E+03  0.17357562109E+03 0.  0.
         24    2    3    3    0    0 -0.50639404483E+02  0.10902072871E+03 -0.81855196714E+03  0.83103339581E+03  0.78353771215E+02 0.  0.
         -6    2    1    2    0  501  0.12126795554E+02 -0.87374325515E+02 -0.89180853154E+03  0.91272992161E+03  0.17312458215E+03 0.  0.
        -24    2    5    5    0    0  0.46671682841E+02 -0.93299301081E+02 -0.83709735967E+03  0.84758503002E+03  0.82373466487E+02 0.  0.
          2    1    4    4  502    0  0.14692024846E+02  0.50468167757E+02 -0.39575066222E+03  0.39922609909E+03  0.00000000000E+00 0. -1.
         -1    1    4    4    0  502 -0.65331429329E+02  0.58552560956E+02 -0.42280130492E+03  0.43180729672E+03  0.00000000000E+00 0.  1.
          5    1    3    3  503    0  0.38512608929E+02 -0.21646403198E+02 -0.13268286139E+03  0.13992362033E+03  0.47000000000E+01 0. -1.
         13    1    6    6    0    0  0.65851474758E+02 -0.50236126960E+02 -0.44280445586E+03  0.45048404113E+03  0.00000000000E+00 0. -1.
        -14    1    6    6    0    0 -0.19179791916E+02 -0.43063174121E+02 -0.39429290381E+03  0.39710098889E+03  0.00000000000E+00 0.  1.
         -5    1    5    5    0  501 -0.34544887287E+02  0.59249755665E+01 -0.54711171873E+02  0.65144891594E+02  0.47000000000E+01 0.  1.
<mgrwt>
<rscale>  2 0.19450337E+03</rscale>
<asrwt>0</asrwt>
<pdfrwt beam="2">  1        1 0.28667160E+00 0.19450337E+03</pdfrwt>
<pdfrwt beam="1">  1       -1 0.31264286E-02 0.19450337E+03</pdfrwt>
<totfact> 0.14741602E+03</totfact>
</mgrwt>
</event>
<event>
12    1  0.5759937E-002  0.1733831E+03  0.7546771E-02  0.1174365E+00
          2   -1    0    0  503    0  0.00000000000E+00  0.00000000000E+00  0.11774616985E+03  0.11774616985E+03  0.00000000000E+00 0. -1.
         -2   -1    0    0    0  501 -0.00000000000E+00 -0.00000000000E+00 -0.38052551660E+03  0.38052551660E+03  0.00000000000E+00 0.  1.
          6    2    1    2  503    0 -0.70139334092E+01  0.33130690146E+02  0.10501077498E+02  0.17567170719E+03  0.17205649707E+03 0.  0.
         24    2    3    3    0    0  0.13900030851E+02  0.30122041029E+02 -0.48310770779E+02  0.11300297999E+03  0.96618811315E+02 0.  0.
         -6    2    1    2    0  501  0.70139334092E+01 -0.33130690146E+02 -0.27328042425E+03  0.32259997926E+03  0.16805272520E+03 0.  0.
        -24    2    5    5    0    0 -0.19737299192E+02 -0.23884101192E+02 -0.54398351090E+02  0.10184541010E+03  0.80332407460E+02 0.  0.
          2    1    4    4  502    0 -0.25232447770E+02  0.37356999691E+02 -0.56594391864E+02  0.72354315951E+02  0.00000000000E+00 0. -1.
         -1    1    4    4    0  502  0.39132478621E+02 -0.72349586613E+01  0.82836210846E+01  0.40648664038E+02  0.00000000000E+00 0.  1.
          5    1    3    3  503    0 -0.20913964260E+02  0.30086491166E+01  0.58811848277E+02  0.62668727196E+02  0.47000000000E+01 0. -1.
         11    1    6    6    0    0 -0.26447783157E+02  0.87666138375E+01 -0.61719858130E+02  0.67717646443E+02  0.00000000000E+00 0. -1.
        -12    1    6    6    0    0  0.67104839653E+01 -0.32650715030E+02  0.73215070406E+01  0.34127763659E+02  0.00000000000E+00 0.  1.
         -5    1    5    5    0  501  0.26751232601E+02 -0.92465889539E+01 -0.21888207316E+03  0.22075456916E+03  0.47000000000E+01 0.  1.
<mgrwt>
<rscale>  2 0.17338312E+03</rscale>
<asrwt>0</asrwt>
<pdfrwt beam="1">  1        2 0.18114795E-01 0.17338312E+03</pdfrwt>
<pdfrwt beam="2">  1       -2 0.58542387E-01 0.17338312E+03</pdfrwt>
<totfact> 0.85936289E+02</totfact>
</mgrwt>
</event>
<event>
12    1  0.5759937E-002  0.1941949E+03  0.7546771E-02  0.1154731E+00
         -2   -1    0    0    0  501 -0.00000000000E+00  0.00000000000E+00  0.21760404752E+02  0.21760404752E+02  0.00000000000E+00 0.  1.
          2   -1    0    0  503    0  0.00000000000E+00 -0.00000000000E+00 -0.23491797277E+04  0.23491797277E+04  0.00000000000E+00 0. -1.
          6    2    1    2  503    0 -0.85904332083E+02 -0.16626152729E+02 -0.17694848403E+04  0.17800760894E+04  0.17302687954E+03 0.  0.
         24    2    3    3    0    0 -0.54140207745E+02  0.26611772323E+02 -0.56656257029E+03  0.57594878913E+03  0.84169549853E+02 0.  0.
         -6    2    1    2    0  501  0.85904332083E+02  0.16626152729E+02 -0.55793448267E+03  0.59086404300E+03  0.17370505787E+03 0.  0.
        -24    2    5    5    0    0  0.11711065430E+02  0.61821147833E+02 -0.22992158363E+03  0.25150909558E+03  0.80211515189E+02 0.  0.
          2    1    4    4  502    0  0.21704364733E+02 -0.18506667167E+01 -0.15109582208E+03  0.15265795710E+03  0.00000000000E+00 0. -1.
         -1    1    4    4    0  502 -0.75844572478E+02  0.28462439040E+02 -0.41546674821E+03  0.42329083203E+03  0.00000000000E+00 0.  1.
          5    1    3    3  503    0 -0.31764124338E+02 -0.43237925052E+02 -0.12029222700E+04  0.12041273003E+04  0.47000000000E+01 0. -1.
         13    1    6    6    0    0  0.41245143982E+02  0.27584603352E+02 -0.73479755726E+02  0.88664236002E+02  0.00000000000E+00 0. -1.
        -14    1    6    6    0    0 -0.29534078552E+02  0.34236544481E+02 -0.15644182791E+03  0.16284485958E+03  0.00000000000E+00 0.  1.
         -5    1    5    5    0  501  0.74193266654E+02 -0.45194995104E+02 -0.32801289904E+03  0.33935494741E+03  0.47000000000E+01 0.  1.
<mgrwt>
<rscale>  2 0.19419494E+03</rscale>
<asrwt>0</asrwt>
<pdfrwt beam="2">  1        2 0.36141219E+00 0.19419494E+03</pdfrwt>
<pdfrwt beam="1">  1       -2 0.33477552E-02 0.19419494E+03</pdfrwt>
<totfact> 0.17545648E+03</totfact>
</mgrwt>
</event>
<event>
12    1  0.5759937E-002  0.1809064E+03  0.7546771E-02  0.1166929E+00
          1   -1    0    0  503    0  0.00000000000E+00  0.00000000000E+00  0.14669805520E+04  0.14669805520E+04  0.00000000000E+00 0. -1.
         -1   -1    0    0    0  501 -0.00000000000E+00 -0.00000000000E+00 -0.28849597462E+02  0.28849597462E+02  0.00000000000E+00 0.  1.
          6    2    1    2  503    0 -0.48064405426E+02 -0.19345841346E+02  0.36318567676E+03  0.40578094175E+03  0.17340671337E+03 0.  0.
         24    2    3    3    0    0 -0.13455865128E+02 -0.38086523944E+02  0.82301021818E+02  0.12211345397E+03  0.80663460347E+02 0.  0.
         -6    2    1    2    0  501  0.48064405426E+02  0.19345841346E+02  0.10749452778E+04  0.10900492077E+04  0.17324975139E+03 0.  0.
        -24    2    5    5    0    0 -0.35382815209E+02  0.36271273626E+02  0.63404349635E+03  0.64097640764E+03  0.79196281415E+02 0.  0.
          2    1    4    4  502    0  0.22337379352E+02 -0.40365514024E+02  0.70695588395E+02  0.84416819754E+02  0.00000000000E+00 0. -1.
         -1    1    4    4    0  502 -0.35793244480E+02  0.22789900795E+01  0.11605433423E+02  0.37696634215E+02  0.00000000000E+00 0.  1.
          5    1    3    3  503    0 -0.34608540298E+02  0.18740682599E+02  0.28088465494E+03  0.28366748778E+03  0.47000000000E+01 0. -1.
         13    1    6    6    0    0  0.83064972098E+01  0.47428082137E+02  0.36836709220E+03  0.37150065342E+03  0.00000000000E+00 0. -1.
        -14    1    6    6    0    0 -0.43689312419E+02 -0.11156808512E+02  0.26567640414E+03  0.26947575422E+03  0.00000000000E+00 0.  1.
         -5    1    5    5    0  501  0.83447220635E+02 -0.16925432280E+02  0.44090178140E+03  0.44907280004E+03  0.47000000000E+01 0.  1.
<mgrwt>
<rscale>  2 0.18090638E+03</rscale>
<asrwt>0</asrwt>
<pdfrwt beam="1">  1        1 0.22568926E+00 0.18090638E+03</pdfrwt>
<pdfrwt beam="2">  1       -1 0.44384008E-02 0.18090638E+03</pdfrwt>
<totfact> 0.15878741E+03</totfact>
</mgrwt>
</event>
<event>
12    1  0.5759937E-002  0.1826003E+03  0.7546771E-02  0.1165310E+00
          2   -1    0    0  503    0  0.00000000000E+00  0.00000000000E+00  0.74736644870E+03  0.74736644870E+03  0.00000000000E+00 0.  1.
         -2   -1    0    0    0  501 -0.00000000000E+00 -0.00000000000E+00 -0.47135980869E+02  0.47135980869E+02  0.00000000000E+00 0. -1.
          6    2    1    2  503    0 -0.37247799974E+02  0.47852836238E+02  0.44196201315E+03  0.47818861338E+03  0.17221102276E+03 0.  0.
         24    2    3    3    0    0  0.67274261190E+01  0.76223940728E+02  0.38189757534E+03  0.39838531289E+03  0.83724262150E+02 0.  0.
         -6    2    1    2    0  501  0.37247799974E+02 -0.47852836238E+02  0.25826845468E+03  0.31631381619E+03  0.17226300558E+03 0.  0.
        -24    2    5    5    0    0  0.45676944011E+01  0.16619298799E+02  0.50128261595E+02  0.95929888749E+02  0.79953961879E+02 0.  0.
          2    1    4    4  502    0 -0.37883476125E+02  0.29039790991E+02  0.13947883044E+03  0.14742052559E+03  0.00000000000E+00 0. -1.
         -1    1    4    4    0  502  0.44610902244E+02  0.47184149737E+02  0.24241874490E+03  0.25096478730E+03  0.00000000000E+00 0.  1.
          5    1    3    3  503    0 -0.43975226093E+02 -0.28371104490E+02  0.60064437812E+02  0.79803300493E+02  0.47000000000E+01 0. -1.
         13    1    6    6    0    0 -0.19177055788E+02 -0.14218077814E+02 -0.86862178892E+01  0.25404007295E+02  0.00000000000E+00 0. -1.
        -14    1    6    6    0    0  0.23744750189E+02  0.30837376613E+02  0.58814479484E+02  0.70525881454E+02  0.00000000000E+00 0.  1.
         -5    1    5    5    0  501  0.32680105573E+02 -0.64472135037E+02  0.20814019309E+03  0.22038392744E+03  0.47000000000E+01 0.  1.
<mgrwt>
<rscale>  2 0.18260033E+03</rscale>
<asrwt>0</asrwt>
<pdfrwt beam="1">  1        2 0.11497944E+00 0.18260033E+03</pdfrwt>
<pdfrwt beam="2">  1       -2 0.72516899E-02 0.18260033E+03</pdfrwt>
<totfact> 0.41991368E+03</totfact>
</mgrwt>
</event>
<event>
12    1  0.5759937E-002  0.1866189E+03  0.7546771E-02  0.1161547E+00
          2   -1    0    0  503    0  0.00000000000E+00  0.00000000000E+00  0.18784863965E+04  0.18784863965E+04  0.00000000000E+00 0.  1.
         -2   -1    0    0    0  501 -0.00000000000E+00 -0.00000000000E+00 -0.22989628562E+02  0.22989628562E+02  0.00000000000E+00 0. -1.
          6    2    1    2  503    0  0.12315204463E+02 -0.68541374106E+02  0.50151415204E+03  0.53441526296E+03  0.17097849094E+03 0.  0.
         24    2    3    3    0    0 -0.58666310599E+02 -0.39546335617E+02  0.34559614823E+03  0.36060041420E+03  0.74768391651E+02 0.  0.
         -6    2    1    2    0  501 -0.12315204463E+02  0.68541374106E+02  0.13539826159E+04  0.13670607621E+04  0.17531862109E+03 0.  0.
        -24    2    5    5    0    0  0.57443092478E+02  0.62925426069E+02  0.75315579637E+03  0.76215356597E+03  0.79844138168E+02 0.  0.
          4    1    4    4  502    0 -0.61807598725E+02 -0.54472909199E+01  0.15509153542E+03  0.16704261911E+03  0.00000000000E+00 0. -1.
         -3    1    4    4    0  502  0.31412881259E+01 -0.34099044697E+02  0.19050461281E+03  0.19355779510E+03  0.00000000000E+00 0.  1.
          5    1    3    3  503    0  0.70981515062E+02 -0.28995038489E+02  0.15591800381E+03  0.17381484876E+03  0.47000000000E+01 0. -1.
         13    1    6    6    0    0  0.12600798783E+02  0.59632204338E+02  0.26440283532E+03  0.27133676354E+03  0.00000000000E+00 0. -1.
        -14    1    6    6    0    0  0.44842293695E+02  0.32932217314E+01  0.48875296105E+03  0.49081680243E+03  0.00000000000E+00 0.  1.
         -5    1    5    5    0  501 -0.69758296942E+02  0.56159480372E+01  0.60082681957E+03  0.60490719617E+03  0.47000000000E+01 0.  1.
<mgrwt>
<rscale>  2 0.18661889E+03</rscale>
<asrwt>0</asrwt>
<pdfrwt beam="1">  1        2 0.28899779E+00 0.18661889E+03</pdfrwt>
<pdfrwt beam="2">  1       -2 0.35368674E-02 0.18661889E+03</pdfrwt>
<totfact> 0.28511733E+03</totfact>
</mgrwt>
</event>
<event>
12    1  0.5759937E-002  0.2420157E+03  0.7546771E-02  0.1118457E+00
         -1   -1    0    0    0  501 -0.00000000000E+00  0.00000000000E+00  0.25041454042E+03  0.25041454042E+03  0.00000000000E+00 0.  1.
          1   -1    0    0  503    0  0.00000000000E+00 -0.00000000000E+00 -0.25536536342E+03  0.25536536342E+03  0.00000000000E+00 0. -1.
          6    2    1    2  503    0  0.54671149964E+02  0.16061690536E+03  0.70849469787E+02  0.25148637698E+03  0.17157804496E+03 0.  0.
         24    2    3    3    0    0  0.86361920334E+02  0.66531376115E+02  0.10411865251E+02  0.13516275177E+03  0.79219677079E+02 0.  0.
         -6    2    1    2    0  501 -0.54671149964E+02 -0.16061690536E+03 -0.75800292786E+02  0.25429352686E+03  0.17358798488E+03 0.  0.
        -24    2    5    5    0    0  0.80258862051E+01 -0.25277085360E+02  0.30270651037E+01  0.85522594610E+02  0.81250262597E+02 0.  0.
          4    1    4    4  502    0  0.56174246232E+02  0.66015901472E+01 -0.21940775825E+02  0.60667327089E+02  0.00000000000E+00 0. -1.
         -3    1    4    4    0  502  0.30187674102E+02  0.59929785968E+02  0.32352641076E+02  0.74495424681E+02  0.00000000000E+00 0.  1.
          5    1    3    3  503    0 -0.31690770370E+02  0.94085529245E+02  0.60437604536E+02  0.11632362521E+03  0.47000000000E+01 0. -1.
         11    1    6    6    0    0 -0.34174049599E+02 -0.24063711650E+02 -0.63513151621E+01  0.42276081756E+02  0.00000000000E+00 0. -1.
        -12    1    6    6    0    0  0.42199935804E+02 -0.12133737100E+01  0.93783802658E+01  0.43246512854E+02  0.00000000000E+00 0.  1.
         -5    1    5    5    0  501 -0.62697036169E+02 -0.13533982000E+03 -0.78827357890E+02  0.16877093225E+03  0.47000000000E+01 0.  1.
<mgrwt>
<rscale>  2 0.24201571E+03</rscale>
<asrwt>0</asrwt>
<pdfrwt beam="2">  1        1 0.39286979E-01 0.24201571E+03</pdfrwt>
<pdfrwt beam="1">  1       -1 0.38525314E-01 0.24201571E+03</pdfrwt>
<totfact> 0.71158596E+02</totfact>
</mgrwt>
</event>
<event>
12    1  0.5759937E-002  0.1775416E+03  0.7546771E-02  0.1170204E+00
         -2   -1    0    0    0  501 -0.00000000000E+00  0.00000000000E+00  0.94434299477E+02  0.94434299477E+02  0.00000000000E+00 0. -1.
          2   -1    0    0  503    0  0.00000000000E+00 -0.00000000000E+00 -0.34405110125E+03  0.34405110125E+03  0.00000000000E+00 0.  1.
          6    2    1    2  503    0  0.84119348294E+01 -0.40202068149E+02 -0.86708127171E+02  0.19727284960E+03  0.17236969264E+03 0.  0.
         24    2    3    3    0    0  0.62973536378E+02 -0.51920669575E+02 -0.28427570061E+02  0.11644582862E+03  0.78038977762E+02 0.  0.
         -6    2    1    2    0  501 -0.84119348294E+01  0.40202068149E+02 -0.16290867460E+03  0.24121255113E+03  0.17308174841E+03 0.  0.
        -24    2    5    5    0    0  0.12461564776E+02  0.89616123579E+02 -0.13351204526E+03  0.17986351954E+03  0.79618334770E+02 0.  0.
          2    1    4    4  502    0  0.35984941232E+02 -0.71142903021E+02 -0.18312957889E+02  0.81802158115E+02  0.00000000000E+00 0. -1.
         -1    1    4    4    0  502  0.26988595147E+02  0.19222233445E+02 -0.10114612171E+02  0.34643670504E+02  0.00000000000E+00 0.  1.
          5    1    3    3  503    0 -0.54561601549E+02  0.11718601426E+02 -0.58280557110E+02  0.80827020977E+02  0.47000000000E+01 0. -1.
         13    1    6    6    0    0  0.45779990422E+02  0.48565954424E+02 -0.85337136429E+02  0.10833691110E+03  0.00000000000E+00 0. -1.
        -14    1    6    6    0    0 -0.33318425646E+02  0.41050169155E+02 -0.48174908827E+02  0.71526608445E+02  0.00000000000E+00 0.  1.
         -5    1    5    5    0  501 -0.20873499606E+02 -0.49414055430E+02 -0.29396629342E+02  0.61349031586E+02  0.47000000000E+01 0.  1.
<mgrwt>
<rscale>  2 0.17754162E+03</rscale>
<asrwt>0</asrwt>
<pdfrwt beam="2">  1        2 0.52930939E-01 0.17754162E+03</pdfrwt>
<pdfrwt beam="1">  1       -2 0.14528354E-01 0.17754162E+03</pdfrwt>
<totfact> 0.33296985E+03</totfact>
</mgrwt>
</event>
<event>
12    1  0.5759937E-002  0.1777949E+03  0.7546771E-02  0.1169954E+00
         -2   -1    0    0    0  501 -0.00000000000E+00  0.00000000000E+00  0.16192747649E+02  0.16192747649E+02  0.00000000000E+00 0.  1.
          2   -1    0    0  503    0  0.00000000000E+00 -0.00000000000E+00 -0.20042437099E+04  0.20042437099E+04  0.00000000000E+00 0. -1.
          6    2    1    2  503    0 -0.22727533623E+02  0.20990242915E+02 -0.82912185476E+03  0.84789040526E+03  0.17469389860E+03 0.  0.
         24    2    3    3    0    0  0.75468733519E+01  0.65105038869E+02 -0.71556609433E+03  0.72227330584E+03  0.73131878067E+02 0.  0.
         -6    2    1    2    0  501  0.22727533623E+02 -0.20990242915E+02 -0.11589291075E+04  0.11725460523E+04  0.17547204184E+03 0.  0.
        -24    2    5    5    0    0  0.90253156408E+01  0.42485554763E+02 -0.36910228281E+03  0.38004026010E+03  0.79420560533E+02 0.  0.
          4    1    4    4  502    0 -0.32610341072E+02  0.23293687753E+02 -0.31266927511E+03  0.31522707027E+03  0.00000000000E+00 0. -1.
         -3    1    4    4    0  502  0.40157214424E+02  0.41811351116E+02 -0.40289681923E+03  0.40704623558E+03  0.00000000000E+00 0.  1.
          5    1    3    3  503    0 -0.30274406975E+02 -0.44114795954E+02 -0.11355576042E+03  0.12561709941E+03  0.47000000000E+01 0. -1.
         11    1    6    6    0    0  0.37601643321E+02 -0.89477412425E+00 -0.18292238699E+03  0.18674925398E+03  0.00000000000E+00 0. -1.
        -12    1    6    6    0    0 -0.28576327680E+02  0.43380328887E+02 -0.18617989582E+03  0.19329100612E+03  0.00000000000E+00 0.  1.
         -5    1    5    5    0  501  0.13702217982E+02 -0.63475797678E+02 -0.78982682473E+03  0.79250579224E+03  0.47000000000E+01 0.  1.
<mgrwt>
<rscale>  2 0.17779492E+03</rscale>
<asrwt>0</asrwt>
<pdfrwt beam="2">  1        2 0.30834480E+00 0.17779492E+03</pdfrwt>
<pdfrwt beam="1">  1       -2 0.24911950E-02 0.17779492E+03</pdfrwt>
<totfact> 0.41229716E+03</totfact>
</mgrwt>
</event>
<event>
12    1  0.5759937E-002  0.8916742E+03  0.7546771E-02  0.9436049E-01
         -2   -1    0    0    0  501 -0.00000000000E+00  0.00000000000E+00  0.44430683170E+03  0.44430683170E+03  0.00000000000E+00 0. -1.
          2   -1    0    0  503    0  0.00000000000E+00 -0.00000000000E+00 -0.21764909106E+04  0.21764909106E+04  0.00000000000E+00 0.  1.
          6    2    1    2  503    0  0.79490399357E+03 -0.36477337008E+03 -0.31361744298E+03  0.94532170616E+03  0.17419890091E+03 0.  0.
         24    2    3    3    0    0  0.36413043972E+03 -0.11068853955E+03 -0.97682626718E+02  0.40055121258E+03  0.77823186866E+02 0.  0.
         -6    2    1    2    0  501 -0.79490399357E+03  0.36477337008E+03 -0.14185666359E+04  0.16754760361E+04  0.17307997176E+03 0.  0.
        -24    2    5    5    0    0 -0.47842052328E+03  0.21760070665E+03 -0.72516915107E+03  0.89917471460E+03  0.80053763716E+02 0.  0.
          2    1    4    4  502    0  0.36599933031E+03 -0.10529978805E+03 -0.10092333804E+03  0.39399121223E+03  0.00000000000E+00 0. -1.
         -1    1    4    4    0  502 -0.18688905874E+01 -0.53887514907E+01  0.32407113252E+01  0.65600003467E+01  0.00000000000E+00 0.  1.
          5    1    3    3  503    0  0.43077355385E+03 -0.25408483054E+03 -0.21593481627E+03  0.54477049358E+03  0.47000000000E+01 0. -1.
         11    1    6    6    0    0 -0.51430553066E+02  0.52289128637E+02 -0.11297472647E+03  0.13469425965E+03  0.00000000000E+00 0. -1.
        -12    1    6    6    0    0 -0.42698997021E+03  0.16531157802E+03 -0.61219442460E+03  0.76448045495E+03  0.00000000000E+00 0.  1.
         -5    1    5    5    0  501 -0.31648347029E+03  0.14717266343E+03 -0.69339748484E+03  0.77630132153E+03  0.47000000000E+01 0.  1.
<mgrwt>
<rscale>  2 0.89167422E+03</rscale>
<asrwt>0</asrwt>
<pdfrwt beam="2">  1        2 0.33484475E+00 0.89167422E+03</pdfrwt>
<pdfrwt beam="1">  1       -2 0.68354898E-01 0.89167422E+03</pdfrwt>
<totfact> 0.10620492E+01</totfact>
</mgrwt>
</event>
<event>
12    1  0.5759937E-002  0.2628872E+03  0.7546771E-02  0.1105421E+00
         -1   -1    0    0    0  501 -0.00000000000E+00  0.00000000000E+00  0.12099761000E+03  0.12099761000E+03  0.00000000000E+00 0. -1.
          1   -1    0    0  503    0  0.00000000000E+00 -0.00000000000E+00 -0.61686033412E+03  0.61686033412E+03  0.00000000000E+00 0.  1.
          6    2    1    2  503    0  0.13850507551E+03  0.13991451900E+03 -0.14832753585E+03  0.30264433413E+03  0.17559272913E+03 0.  0.
         24    2    3    3    0    0  0.49806907735E+02  0.13935681339E+02 -0.13107525620E+02  0.97596599030E+02  0.81721219043E+02 0.  0.
         -6    2    1    2    0  501 -0.13850507551E+03 -0.13991451900E+03 -0.34753518827E+03  0.43521360998E+03  0.17283069942E+03 0.  0.
        -24    2    5    5    0    0 -0.36601615945E+02 -0.10506222883E+03 -0.12091176005E+03  0.18425690970E+03  0.83385879122E+02 0.  0.
          2    1    4    4  502    0  0.56238768874E+02 -0.21171629550E+02 -0.14720122913E+02  0.61868562622E+02  0.00000000000E+00 0. -1.
         -1    1    4    4    0  502 -0.64318611393E+01  0.35107310889E+02  0.16125972932E+01  0.35728036408E+02  0.00000000000E+00 0.  1.
          5    1    3    3  503    0  0.88698167772E+02  0.12597883766E+03 -0.13522001023E+03  0.20504773510E+03  0.47000000000E+01 0. -1.
         13    1    6    6    0    0 -0.22973830440E+02  0.25153044511E+00  0.47000368332E+00  0.22980014276E+02  0.00000000000E+00 0. -1.
        -14    1    6    6    0    0 -0.13627785505E+02 -0.10531375927E+03 -0.12138176373E+03  0.16127689542E+03  0.00000000000E+00 0.  1.
         -5    1    5    5    0  501 -0.10190345956E+03 -0.34852290172E+02 -0.22662342822E+03  0.25095670028E+03  0.47000000000E+01 0.  1.
<mgrwt>
<rscale>  2 0.26288720E+03</rscale>
<asrwt>0</asrwt>
<pdfrwt beam="2">  1        1 0.94901591E-01 0.26288720E+03</pdfrwt>
<pdfrwt beam="1">  1       -1 0.18615017E-01 0.26288720E+03</pdfrwt>
<totfact> 0.76963675E+02</totfact>
</mgrwt>
</event>
<event>
12    1  0.5759937E-002  0.1980166E+03  0.7546771E-02  0.1151423E+00
          1   -1    0    0  503    0  0.00000000000E+00  0.00000000000E+00  0.42847666258E+03  0.42847666258E+03  0.00000000000E+00 0.  1.
         -1   -1    0    0    0  501 -0.00000000000E+00 -0.00000000000E+00 -0.91841778895E+02  0.91841778895E+02  0.00000000000E+00 0. -1.
          6    2    1    2  503    0  0.63030312313E+02 -0.51786787751E+02  0.18673537943E+03  0.27791065042E+03  0.18896966960E+03 0.  0.
         24    2    3    3    0    0  0.63365406779E+02 -0.60291236427E+02  0.21709900734E+03  0.24602840088E+03  0.75814161503E+02 0.  0.
         -6    2    1    2    0  501 -0.63030312313E+02  0.51786787751E+02  0.14989950425E+03  0.24240779106E+03  0.17215395474E+03 0.  0.
        -24    2    5    5    0    0 -0.42662409723E+02 -0.36582280566E+02  0.64647097393E+02  0.11785255605E+03  0.80942160290E+02 0.  0.
          2    1    4    4  502    0  0.35798859014E+02  0.34962047916E+01  0.31374857826E+02  0.47730110604E+02  0.00000000000E+00 0. -1.
         -1    1    4    4    0  502  0.27566547764E+02 -0.63787441218E+02  0.18572414952E+03  0.19829829028E+03  0.00000000000E+00 0.  1.
          5    1    3    3  503    0 -0.33509446515E+00  0.85044486759E+01 -0.30363627911E+02  0.31882249537E+02  0.47000000000E+01 0. -1.
         13    1    6    6    0    0 -0.86287169923E+01 -0.42454963274E+02 -0.13728930962E+01  0.43344705547E+02  0.00000000000E+00 0. -1.
        -14    1    6    6    0    0 -0.34033692731E+02  0.58726827075E+01  0.66019990489E+02  0.74507850508E+02  0.00000000000E+00 0.  1.
         -5    1    5    5    0  501 -0.20367902591E+02  0.88369068317E+02  0.85252406859E+02  0.12455523500E+03  0.47000000000E+01 0.  1.
<mgrwt>
<rscale>  2 0.19801659E+03</rscale>
<asrwt>0</asrwt>
<pdfrwt beam="1">  1        1 0.65919486E-01 0.19801659E+03</pdfrwt>
<pdfrwt beam="2">  1       -1 0.14129505E-01 0.19801659E+03</pdfrwt>
<totfact> 0.19422636E+03</totfact>
</mgrwt>
</event>
<event>
12    1  0.5759937E-002  0.4054608E+03  0.7546771E-02  0.1041905E+00
         -1   -1    0    0    0  501 -0.00000000000E+00  0.00000000000E+00  0.13149878927E+03  0.13149878927E+03  0.00000000000E+00 0.  1.
          1   -1    0    0  503    0  0.00000000000E+00 -0.00000000000E+00 -0.14429447296E+04  0.14429447296E+04  0.00000000000E+00 0. -1.
          6    2    1    2  503    0  0.21370390405E+03 -0.29779534103E+03 -0.94324447765E+03  0.10266410954E+04  0.17300396042E+03 0.  0.
         24    2    3    3    0    0  0.69822546152E+02 -0.47379242712E+02 -0.29150785666E+03  0.31376468210E+03  0.79696076731E+02 0.  0.
         -6    2    1    2    0  501 -0.21370390405E+03  0.29779534103E+03 -0.36820146268E+03  0.54780242351E+03  0.17367715550E+03 0.  0.
        -24    2    5    5    0    0 -0.24254071151E+02  0.74176931105E+02 -0.10373418750E+03  0.15300948781E+03  0.80997806311E+02 0.  0.
          4    1    4    4  502    0  0.36069079671E+02 -0.40691292405E+02 -0.65395067782E+02  0.85048660637E+02  0.00000000000E+00 0. -1.
         -3    1    4    4    0  502  0.33753466482E+02 -0.66879503072E+01 -0.22611278888E+03  0.22871602146E+03  0.00000000000E+00 0.  1.
          5    1    3    3  503    0  0.14388135790E+03 -0.25041609831E+03 -0.65173662099E+03  0.71287641326E+03  0.47000000000E+01 0. -1.
         13    1    6    6    0    0  0.11223381678E+02  0.73656384113E+02 -0.54452412990E+02  0.92283760745E+02  0.00000000000E+00 0. -1.
        -14    1    6    6    0    0 -0.35477452828E+02  0.52054699188E+00 -0.49281774510E+02  0.60725727062E+02  0.00000000000E+00 0.  1.
         -5    1    5    5    0  501 -0.18944983290E+03  0.22361840992E+03 -0.26446727518E+03  0.39479293571E+03  0.47000000000E+01 0.  1.
<mgrwt>
<rscale>  2 0.40546078E+03</rscale>
<asrwt>0</asrwt>
<pdfrwt beam="2">  1        1 0.22199150E+00 0.40546078E+03</pdfrwt>
<pdfrwt beam="1">  1       -1 0.20230583E-01 0.40546078E+03</pdfrwt>
<totfact> 0.15212230E+02</totfact>
</mgrwt>
</event>
<event>
12    1  0.5759937E-002  0.2063917E+03  0.7546771E-02  0.1144456E+00
         -1   -1    0    0    0  501 -0.00000000000E+00  0.00000000000E+00  0.24359412058E+03  0.24359412058E+03  0.00000000000E+00 0.  1.
          1   -1    0    0  503    0  0.00000000000E+00 -0.00000000000E+00 -0.17501136385E+03  0.17501136385E+03  0.00000000000E+00 0. -1.
          6    2    1    2  503    0 -0.58715511572E+02 -0.96794435831E+02  0.28610384231E+02  0.20934451039E+03  0.17375239808E+03 0.  0.
         24    2    3    3    0    0 -0.89062738331E+02 -0.10127059891E+03  0.57222506520E+02  0.16713392227E+03  0.80445181069E+02 0.  0.
         -6    2    1    2    0  501  0.58715511572E+02  0.96794435831E+02  0.39972372497E+02  0.20926097403E+03  0.17139337964E+03 0.  0.
        -24    2    5    5    0    0  0.24580495571E+02 -0.16195994732E+02 -0.33674426162E+00  0.84445303502E+02  0.79147867179E+02 0.  0.
          4    1    4    4  502    0 -0.62359537288E+02 -0.99121630913E+02  0.16317845054E+02  0.11823739541E+03  0.00000000000E+00 0. -1.
         -3    1    4    4    0  502 -0.26703201043E+02 -0.21489680000E+01  0.40904661466E+02  0.48896526861E+02  0.00000000000E+00 0.  1.
          5    1    3    3  503    0  0.30347226759E+02  0.44761630817E+01 -0.28612122289E+02  0.42210588124E+02  0.47000000000E+01 0. -1.
         11    1    6    6    0    0 -0.13117980371E+02 -0.21162658892E+02 -0.27965398669E+02  0.37443331357E+02  0.00000000000E+00 0. -1.
        -12    1    6    6    0    0  0.37698475942E+02  0.49666641599E+01  0.27628654407E+02  0.47001972146E+02  0.00000000000E+00 0.  1.
         -5    1    5    5    0  501  0.34135016001E+02  0.11299043056E+03  0.40309116759E+02  0.12481567053E+03  0.47000000000E+01 0.  1.
<mgrwt>
<rscale>  2 0.20639167E+03</rscale>
<asrwt>0</asrwt>
<pdfrwt beam="2">  1        1 0.26924825E-01 0.20639167E+03</pdfrwt>
<pdfrwt beam="1">  1       -1 0.37476018E-01 0.20639167E+03</pdfrwt>
<totfact> 0.12003449E+03</totfact>
</mgrwt>
</event>
<event>
12    1  0.5759937E-002  0.1994224E+03  0.7546771E-02  0.1150227E+00
         -1   -1    0    0    0  501 -0.00000000000E+00  0.00000000000E+00  0.39392251562E+02  0.39392251562E+02  0.00000000000E+00 0.  1.
          1   -1    0    0  503    0  0.00000000000E+00 -0.00000000000E+00 -0.19455563873E+04  0.19455563873E+04  0.00000000000E+00 0. -1.
          6    2    1    2  503    0 -0.10255498541E+02 -0.98259637589E+02 -0.16410144567E+04  0.16530653202E+04  0.17302131168E+03 0.  0.
         24    2    3    3    0    0 -0.45816444399E+02 -0.12415480732E+03 -0.12864290959E+04  0.12957307309E+04  0.80652001534E+02 0.  0.
         -6    2    1    2    0  501  0.10255498541E+02  0.98259637589E+02 -0.26514967904E+03  0.33188331861E+03  0.17344178634E+03 0.  0.
        -24    2    5    5    0    0  0.53113172951E+02  0.36714134491E+01 -0.13372966156E+03  0.16432131995E+03  0.79267808034E+02 0.  0.
          4    1    4    4  502    0 -0.42549708042E+02 -0.13304410465E+03 -0.10679078428E+04  0.10770043511E+04  0.00000000000E+00 0. -1.
         -3    1    4    4    0  502 -0.32667363565E+01  0.88892973307E+01 -0.21852125306E+03  0.21872637978E+03  0.00000000000E+00 0.  1.
          5    1    3    3  503    0  0.35560945858E+02  0.25895169726E+02 -0.35458536077E+03  0.35733458936E+03  0.47000000000E+01 0. -1.
         11    1    6    6    0    0  0.54227301628E+02 -0.54491927310E+01 -0.14191218921E+03  0.15201764170E+03  0.00000000000E+00 0. -1.
        -12    1    6    6    0    0 -0.11141286766E+01  0.91206061801E+01  0.81825276429E+01  0.12303678248E+02  0.00000000000E+00 0.  1.
         -5    1    5    5    0  501 -0.42857674410E+02  0.94588224140E+02 -0.13142001748E+03  0.16756199866E+03  0.47000000000E+01 0.  1.
<mgrwt>
<rscale>  2 0.19942236E+03</rscale>
<asrwt>0</asrwt>
<pdfrwt beam="2">  1        1 0.29931635E+00 0.19942236E+03</pdfrwt>
<pdfrwt beam="1">  1       -1 0.60603468E-02 0.19942236E+03</pdfrwt>
<totfact> 0.48764012E+02</totfact>
</mgrwt>
</event>
<event>
12    1  0.5759937E-002  0.2843206E+03  0.7546771E-02  0.1093352E+00
         -2   -1    0    0    0  501 -0.00000000000E+00  0.00000000000E+00  0.57591284498E+02  0.57591284498E+02  0.00000000000E+00 0.  1.
          2   -1    0    0  503    0  0.00000000000E+00 -0.00000000000E+00 -0.18116263670E+04  0.18116263670E+04  0.00000000000E+00 0. -1.
          6    2    1    2  503    0 -0.83721336911E+02 -0.20943282471E+03 -0.43318759533E+03  0.51808827909E+03  0.17289477107E+03 0.  0.
         24    2    3    3    0    0 -0.59826726269E+02 -0.22675045662E+03 -0.41284735920E+03  0.48194041611E+03  0.82635439866E+02 0.  0.
         -6    2    1    2    0  501  0.83721336911E+02  0.20943282471E+03 -0.13208474872E+04  0.13511293724E+04  0.17332376146E+03 0.  0.
        -24    2    5    5    0    0  0.11029085149E+03  0.12639301278E+03 -0.69434178629E+03  0.71856867752E+03  0.78045900145E+02 0.  0.
          2    1    4    4  502    0 -0.67561022182E+02 -0.98118706393E+02 -0.18096004185E+03  0.21665250750E+03  0.00000000000E+00 0. -1.
         -1    1    4    4    0  502  0.77342959132E+01 -0.12863175023E+03 -0.23188731736E+03  0.26528790860E+03  0.00000000000E+00 0.  1.
          5    1    3    3  503    0 -0.23894610643E+02  0.17317631908E+02 -0.20340236124E+02  0.36147862983E+02  0.47000000000E+01 0. -1.
         13    1    6    6    0    0  0.19372481309E+02  0.28280620254E+02 -0.30436991317E+03  0.30629418956E+03  0.00000000000E+00 0. -1.
        -14    1    6    6    0    0  0.90918370177E+02  0.98112392528E+02 -0.38997187312E+03  0.41227448796E+03  0.00000000000E+00 0.  1.
         -5    1    5    5    0  501 -0.26569514574E+02  0.83039811932E+02 -0.62650570090E+03  0.63256069490E+03  0.47000000000E+01 0.  1.
<mgrwt>
<rscale>  2 0.28432059E+03</rscale>
<asrwt>0</asrwt>
<pdfrwt beam="2">  1        2 0.27871174E+00 0.28432059E+03</pdfrwt>
<pdfrwt beam="1">  1       -2 0.88601978E-02 0.28432059E+03</pdfrwt>
<totfact> 0.75070992E+02</totfact>
</mgrwt>
</event>
<event>
12    1  0.5759937E-002  0.2092768E+03  0.7546771E-02  0.1142140E+00
          2   -1    0    0  503    0  0.00000000000E+00  0.00000000000E+00  0.14795188510E+03  0.14795188510E+03  0.00000000000E+00 0. -1.
         -2   -1    0    0    0  501 -0.00000000000E+00 -0.00000000000E+00 -0.30904754768E+03  0.30904754768E+03  0.00000000000E+00 0.  1.
          6    2    1    2  503    0 -0.11387712634E+03 -0.39283073360E+02 -0.33154507549E+02  0.21054187833E+03  0.16946238935E+03 0.  0.
         24    2    3    3    0    0 -0.96311467202E+02 -0.57925081686E+01 -0.79940804707E+02  0.15019937308E+03  0.82824317393E+02 0.  0.
         -6    2    1    2    0  501  0.11387712634E+03  0.39283073360E+02 -0.12794115503E+03  0.24645755445E+03  0.17280401395E+03 0.  0.
        -24    2    5    5    0    0  0.84755738820E+02  0.84815116638E+02 -0.12739821505E+03  0.19220253661E+03  0.79588759310E+02 0.  0.
          2    1    4    4  502    0  0.24903464468E+01 -0.15084203473E+02 -0.40714425372E+02  0.43490222501E+02  0.00000000000E+00 0. -1.
         -1    1    4    4    0  502 -0.98801813649E+02  0.92916953048E+01 -0.39226379336E+02  0.10670915058E+03  0.00000000000E+00 0.  1.
          5    1    3    3  503    0 -0.17565659136E+02 -0.33490565191E+02  0.46786297158E+02  0.60342505247E+02  0.47000000000E+01 0. -1.
         13    1    6    6    0    0  0.19717265631E+02  0.69788219961E+01  0.85399664571E+01  0.22592156769E+02  0.00000000000E+00 0. -1.
        -14    1    6    6    0    0  0.65038473189E+02  0.77836294642E+02 -0.13593818151E+03  0.16961037984E+03  0.00000000000E+00 0.  1.
         -5    1    5    5    0  501  0.29121387519E+02 -0.45532043279E+02 -0.54293997703E+00  0.54255017832E+02  0.47000000000E+01 0.  1.
<mgrwt>
<rscale>  2 0.20927683E+03</rscale>
<asrwt>0</asrwt>
<pdfrwt beam="1">  1        2 0.22761828E-01 0.20927683E+03</pdfrwt>
<pdfrwt beam="2">  1       -2 0.47545777E-01 0.20927683E+03</pdfrwt>
<totfact> 0.10113624E+03</totfact>
</mgrwt>
</event>
<event>
12    1  0.5759937E-002  0.1919161E+03  0.7546771E-02  0.1156744E+00
         -1   -1    0    0    0  501 -0.00000000000E+00  0.00000000000E+00  0.25380805172E+02  0.25380805172E+02  0.00000000000E+00 0.  1.
          1   -1    0    0  503    0  0.00000000000E+00 -0.00000000000E+00 -0.15499194905E+04  0.15499194905E+04  0.00000000000E+00 0. -1.
          6    2    1    2  503    0  0.62268003440E+02 -0.57632888012E+02 -0.56148162116E+03  0.59320253141E+03  0.17154818083E+03 0.  0.
         24    2    3    3    0    0  0.45680322596E+02 -0.12948327651E+02 -0.52435976990E+03  0.53260564262E+03  0.80381908410E+02 0.  0.
         -6    2    1    2    0  501 -0.62268003440E+02  0.57632888012E+02 -0.96305706418E+03  0.98209776426E+03  0.17273753408E+03 0.  0.
        -24    2    5    5    0    0 -0.77726616965E+02  0.59307711872E+02 -0.42132450900E+03  0.44012172687E+03  0.81449130812E+02 0.  0.
          2    1    4    4  502    0  0.20875720753E+02 -0.46439681072E+02 -0.32176464121E+03  0.32576820598E+03  0.00000000000E+00 0. -1.
         -1    1    4    4    0  502  0.24804601843E+02  0.33491353420E+02 -0.20259512870E+03  0.20683743665E+03  0.00000000000E+00 0.  1.
          5    1    3    3  503    0  0.16587680843E+02 -0.44684560361E+02 -0.37121851252E+02  0.60596888788E+02  0.47000000000E+01 0. -1.
         11    1    6    6    0    0  0.41674857501E+01  0.32793239000E+02 -0.58188633279E+02  0.66922952001E+02  0.00000000000E+00 0. -1.
        -12    1    6    6    0    0 -0.81894102715E+02  0.26514472872E+02 -0.36313587572E+03  0.37319877487E+03  0.00000000000E+00 0.  1.
         -5    1    5    5    0  501  0.15458613525E+02 -0.16748238599E+01 -0.54173255518E+03  0.54197603739E+03  0.47000000000E+01 0.  1.
<mgrwt>
<rscale>  2 0.19191613E+03</rscale>
<asrwt>0</asrwt>
<pdfrwt beam="2">  1        1 0.23844914E+00 0.19191613E+03</pdfrwt>
<pdfrwt beam="1">  1       -1 0.39047395E-02 0.19191613E+03</pdfrwt>
<totfact> 0.16937193E+03</totfact>
</mgrwt>
</event>
<event>
12    1  0.5759937E-002  0.1757386E+03  0.7546771E-02  0.1171992E+00
          2   -1    0    0  503    0  0.00000000000E+00  0.00000000000E+00  0.43551215125E+03  0.43551215125E+03  0.00000000000E+00 0.  1.
         -2   -1    0    0    0  501 -0.00000000000E+00 -0.00000000000E+00 -0.14092530238E+03  0.14092530238E+03  0.00000000000E+00 0. -1.
          6    2    1    2  503    0  0.32154990763E+02  0.38220437386E+01  0.35049243278E+03  0.39213820861E+03  0.17285507733E+03 0.  0.
         24    2    3    3    0    0 -0.46349254332E+02 -0.17944506286E+02  0.16248286208E+03  0.18718360906E+03  0.78528748547E+02 0.  0.
         -6    2    1    2    0  501 -0.32154990763E+02 -0.38220437386E+01 -0.55905583921E+02  0.18429924502E+03  0.17260424663E+03 0.  0.
        -24    2    5    5    0    0  0.28862691616E+02  0.39844275492E+02 -0.53530199981E+02  0.10908197675E+03  0.81318965096E+02 0.  0.
          2    1    4    4  502    0 -0.40804726616E+02 -0.42123898228E+02  0.69447492521E+02  0.90897759783E+02  0.00000000000E+00 0. -1.
         -1    1    4    4    0  502 -0.55445277153E+01  0.24179391942E+02  0.93035369554E+02  0.96285849274E+02  0.00000000000E+00 0.  1.
          5    1    3    3  503    0  0.78504245095E+02  0.21766550025E+02  0.18800957071E+03  0.20495459955E+03  0.47000000000E+01 0. -1.
         13    1    6    6    0    0  0.44918364318E+02  0.28157324078E+02 -0.11094374857E+01  0.53025703237E+02  0.00000000000E+00 0. -1.
        -14    1    6    6    0    0 -0.16055672702E+02  0.11686951414E+02 -0.52420762495E+02  0.56056273510E+02  0.00000000000E+00 0.  1.
         -5    1    5    5    0  501 -0.61017682379E+02 -0.43666319231E+02 -0.23753839399E+01  0.75217268277E+02  0.47000000000E+01 0.  1.
<mgrwt>
<rscale>  2 0.17573865E+03</rscale>
<asrwt>0</asrwt>
<pdfrwt beam="1">  1        2 0.67001869E-01 0.17573865E+03</pdfrwt>
<pdfrwt beam="2">  1       -2 0.21680816E-01 0.17573865E+03</pdfrwt>
<totfact> 0.13193481E+03</totfact>
</mgrwt>
</event>
<event>
12    1  0.5759937E-002  0.2051735E+03  0.7546771E-02  0.1145446E+00
          2   -1    0    0  503    0  0.00000000000E+00  0.00000000000E+00  0.38709112000E+03  0.38709112000E+03  0.00000000000E+00 0. -1.
         -2   -1    0    0    0  501 -0.00000000000E+00 -0.00000000000E+00 -0.10876103252E+03  0.10876103252E+03  0.00000000000E+00 0.  1.
          6    2    1    2  503    0  0.89221366865E+02 -0.65650411664E+02  0.14132164233E+03  0.24879289889E+03  0.17220822017E+03 0.  0.
         24    2    3    3    0    0  0.88382843563E+01 -0.68148175132E+02  0.36134786210E+02  0.11630122566E+03  0.86590780528E+02 0.  0.
         -6    2    1    2    0  501 -0.89221366865E+02  0.65650411664E+02  0.13700844515E+03  0.24705925363E+03  0.17319506894E+03 0.  0.
        -24    2    5    5    0    0 -0.79251233272E+02 -0.65935353062E-01  0.24055034322E+02  0.11591580222E+03  0.81099113469E+02 0.  0.
          2    1    4    4  502    0 -0.30423488278E+02 -0.62202946776E+01 -0.61522099220E+01  0.31656443133E+02  0.00000000000E+00 0. -1.
         -1    1    4    4    0  502  0.39261772634E+02 -0.61927880455E+02  0.42286996132E+02  0.84644782532E+02  0.00000000000E+00 0.  1.
          5    1    3    3  503    0  0.80383082509E+02  0.24977634684E+01  0.10518685612E+03  0.13249167323E+03  0.47000000000E+01 0. -1.
         11    1    6    6    0    0 -0.29969338867E+02  0.33974416781E+02  0.32042767594E+02  0.55490190330E+02  0.00000000000E+00 0. -1.
        -12    1    6    6    0    0 -0.49281894405E+02 -0.34040352134E+02 -0.79877332719E+01  0.60425611891E+02  0.00000000000E+00 0.  1.
         -5    1    5    5    0  501 -0.99701335927E+01  0.65716347017E+02  0.11295341083E+03  0.13114345141E+03  0.47000000000E+01 0.  1.
<mgrwt>
<rscale>  2 0.20517355E+03</rscale>
<asrwt>0</asrwt>
<pdfrwt beam="1">  1        2 0.59552480E-01 0.20517355E+03</pdfrwt>
<pdfrwt beam="2">  1       -2 0.16732467E-01 0.20517355E+03</pdfrwt>
<totfact> 0.23338884E+03</totfact>
</mgrwt>
</event>
<event>
12    1  0.5759937E-002  0.3385698E+03  0.7546771E-02  0.1067407E+00
          2   -1    0    0  503    0  0.00000000000E+00  0.00000000000E+00  0.15548691257E+04  0.15548691257E+04  0.00000000000E+00 0.  1.
         -2   -1    0    0    0  501 -0.00000000000E+00 -0.00000000000E+00 -0.75581324177E+02  0.75581324177E+02  0.00000000000E+00 0. -1.
          6    2    1    2  503    0  0.28082999631E+03 -0.79836999903E+02  0.61175759840E+03  0.69918481029E+03  0.17138438190E+03 0.  0.
         24    2    3    3    0    0  0.10353267322E+03 -0.89697696636E+02  0.33264704764E+03  0.36834290899E+03  0.79105935865E+02 0.  0.
         -6    2    1    2    0  501 -0.28082999631E+03  0.79836999903E+02  0.86753020308E+03  0.93126563954E+03  0.17148645650E+03 0.  0.
        -24    2    5    5    0    0 -0.64618259497E+02 -0.48155282719E+01  0.21360238389E+03  0.23732237935E+03  0.80605363118E+02 0.  0.
          4    1    4    4  502    0  0.69633847513E+02 -0.33830509236E+02  0.25686061716E+03  0.26827365268E+03  0.00000000000E+00 0. -1.
         -3    1    4    4    0  502  0.33898825708E+02 -0.55867187400E+02  0.75786430484E+02  0.10006925631E+03  0.00000000000E+00 0.  1.
          5    1    3    3  503    0  0.17729732309E+03  0.98606967331E+01  0.27911055076E+03  0.33084190131E+03  0.47000000000E+01 0. -1.
         11    1    6    6    0    0 -0.44973623138E+02 -0.15082993558E+01  0.33444269495E+02  0.56066218949E+02  0.00000000000E+00 0. -1.
        -12    1    6    6    0    0 -0.19644636359E+02 -0.33072289162E+01  0.18015811439E+03  0.18125616040E+03  0.00000000000E+00 0.  1.
         -5    1    5    5    0  501 -0.21621173681E+03  0.84652528174E+02  0.65392781919E+03  0.69394326019E+03  0.47000000000E+01 0.  1.
<mgrwt>
<rscale>  2 0.33856984E+03</rscale>
<asrwt>0</asrwt>
<pdfrwt beam="1">  1        2 0.23921061E+00 0.33856984E+03</pdfrwt>
<pdfrwt beam="2">  1       -2 0.11627897E-01 0.33856984E+03</pdfrwt>
<totfact> 0.66066014E+02</totfact>
</mgrwt>
</event>
<event>
12    1  0.5759937E-002  0.2572553E+03  0.7546771E-02  0.1108804E+00
          1   -1    0    0  503    0  0.00000000000E+00  0.00000000000E+00  0.17895293475E+03  0.17895293475E+03  0.00000000000E+00 0.  1.
         -1   -1    0    0    0  501 -0.00000000000E+00 -0.00000000000E+00 -0.48257432843E+03  0.48257432843E+03  0.00000000000E+00 0. -1.
          6    2    1    2  503    0  0.75753131338E+02  0.17816465777E+03  0.95740745347E+01  0.25401064833E+03  0.16416017902E+03 0.  0.
         24    2    3    3    0    0  0.26511827115E+01  0.14293393069E+03 -0.25684471173E+02  0.16540842449E+03  0.79139860510E+02 0.  0.
         -6    2    1    2    0  501 -0.75753131338E+02 -0.17816465777E+03 -0.31319546821E+03  0.40751661485E+03  0.17463449799E+03 0.  0.
        -24    2    5    5    0    0 -0.19203232223E+02 -0.12729961375E+03 -0.29064697562E+03  0.32804543573E+03  0.81019674645E+02 0.  0.
          4    1    4    4  502    0  0.19851920199E+02  0.61796551077E+02 -0.46561817655E+02  0.79880631720E+02  0.00000000000E+00 0. -1.
         -3    1    4    4    0  502 -0.17200737488E+02  0.81137379609E+02  0.20877346482E+02  0.85527792770E+02  0.00000000000E+00 0.  1.
          5    1    3    3  503    0  0.73101948627E+02  0.35230727086E+02  0.35258545708E+02  0.88602223840E+02  0.47000000000E+01 0. -1.
         13    1    6    6    0    0 -0.49404332741E+02 -0.62668963210E+02 -0.17184551422E+03  0.18947049322E+03  0.00000000000E+00 0. -1.
        -14    1    6    6    0    0  0.30201100518E+02 -0.64630650539E+02 -0.11880146139E+03  0.13857494250E+03  0.00000000000E+00 0.  1.
         -5    1    5    5    0  501 -0.56549899115E+02 -0.50865044022E+02 -0.22548492597E+02  0.79471179126E+02  0.47000000000E+01 0.  1.
<mgrwt>
<rscale>  2 0.25725530E+03</rscale>
<asrwt>0</asrwt>
<pdfrwt beam="1">  1        1 0.27531221E-01 0.25725530E+03</pdfrwt>
<pdfrwt beam="2">  1       -1 0.74242204E-01 0.25725530E+03</pdfrwt>
<totfact> 0.32352273E+02</totfact>
</mgrwt>
</event>
<event>
12    1  0.5759937E-002  0.1738995E+03  0.7546771E-02  0.1173841E+00
         -2   -1    0    0    0  501 -0.00000000000E+00  0.00000000000E+00  0.24597514309E+03  0.24597514309E+03  0.00000000000E+00 0. -1.
          2   -1    0    0  503    0  0.00000000000E+00 -0.00000000000E+00 -0.14212194306E+03  0.14212194306E+03  0.00000000000E+00 0.  1.
          6    2    1    2  503    0  0.90369756213E+01 -0.12266110256E+02 -0.19348862682E+02  0.17500245990E+03  0.17326095375E+03 0.  0.
         24    2    3    3    0    0 -0.16658032780E+02 -0.61832674742E+02  0.27984607291E+02  0.10165653192E+03  0.73825080527E+02 0.  0.
         -6    2    1    2    0  501 -0.90369756213E+01  0.12266110256E+02  0.12320206270E+03  0.21309462625E+03  0.17320059784E+03 0.  0.
        -24    2    5    5    0    0  0.49909882195E+02 -0.28675628214E+02  0.86185690305E+02  0.13220420765E+03  0.82077349571E+02 0.  0.
          2    1    4    4  502    0 -0.49868341949E+01 -0.65918062067E+02  0.45474317016E+02  0.80236979816E+02  0.00000000000E+00 0. -1.
         -1    1    4    4    0  502 -0.11671198585E+02  0.40853873248E+01 -0.17489709726E+02  0.21419552103E+02  0.00000000000E+00 0.  1.
          5    1    3    3  503    0  0.25695008402E+02  0.49566564486E+02 -0.47333469973E+02  0.73345927981E+02  0.47000000000E+01 0. -1.
         13    1    6    6    0    0  0.16576755065E+02 -0.70308995352E+01  0.90456581266E+02  0.92231314916E+02  0.00000000000E+00 0. -1.
        -14    1    6    6    0    0  0.33333127130E+02 -0.21644728679E+02 -0.42708909612E+01  0.39972892733E+02  0.00000000000E+00 0.  1.
         -5    1    5    5    0  501 -0.58946857817E+02  0.40941738471E+02  0.37016372400E+02  0.80890418599E+02  0.47000000000E+01 0.  1.
<mgrwt>
<rscale>  2 0.17389947E+03</rscale>
<asrwt>0</asrwt>
<pdfrwt beam="2">  1        2 0.21864914E-01 0.17389947E+03</pdfrwt>
<pdfrwt beam="1">  1       -2 0.37842330E-01 0.17389947E+03</pdfrwt>
<totfact> 0.16342520E+03</totfact>
</mgrwt>
</event>
<event>
12    1  0.5759937E-002  0.1850376E+03  0.7546771E-02  0.1163015E+00
         -2   -1    0    0    0  501 -0.00000000000E+00  0.00000000000E+00  0.39696040523E+02  0.39696040523E+02  0.00000000000E+00 0.  1.
          2   -1    0    0  503    0  0.00000000000E+00 -0.00000000000E+00 -0.86309433687E+03  0.86309433687E+03  0.00000000000E+00 0. -1.
          6    2    1    2  503    0  0.66633278436E+02 -0.19575460550E+02 -0.42505650907E+03  0.46394598071E+03  0.17248085303E+03 0.  0.
         24    2    3    3    0    0  0.15535262333E+02 -0.12792430423E+02 -0.39776098846E+03  0.40542972491E+03  0.75858204881E+02 0.  0.
         -6    2    1    2    0  501 -0.66633278436E+02  0.19575460550E+02 -0.39834178728E+03  0.43884439669E+03  0.17054334510E+03 0.  0.
        -24    2    5    5    0    0 -0.13044121618E+02 -0.32941197256E+02 -0.11791325329E+03  0.14851346524E+03  0.83050842695E+02 0.  0.
          2    1    4    4  502    0 -0.88506507432E+01 -0.34155841135E+02 -0.30759974384E+03  0.30961679204E+03  0.00000000000E+00 0. -1.
         -1    1    4    4    0  502  0.24385913076E+02  0.21363410712E+02 -0.90161244619E+02  0.95812932869E+02  0.00000000000E+00 0.  1.
          5    1    3    3  503    0  0.51098016103E+02 -0.67830301265E+01 -0.27295520608E+02  0.58516255798E+02  0.47000000000E+01 0. -1.
         11    1    6    6    0    0 -0.17061088985E+02 -0.43648457307E+02 -0.12604882538E+03  0.13447890155E+03  0.00000000000E+00 0. -1.
        -12    1    6    6    0    0  0.40169673672E+01  0.10707260051E+02  0.81355720960E+01  0.14034563690E+02  0.00000000000E+00 0.  1.
         -5    1    5    5    0  501 -0.53589156818E+02  0.52516657806E+02 -0.28042853399E+03  0.29033093144E+03  0.47000000000E+01 0.  1.
<mgrwt>
<rscale>  2 0.18503761E+03</rscale>
<asrwt>0</asrwt>
<pdfrwt beam="2">  1        2 0.13278374E+00 0.18503761E+03</pdfrwt>
<pdfrwt beam="1">  1       -2 0.61070833E-02 0.18503761E+03</pdfrwt>
<totfact> 0.45615652E+03</totfact>
</mgrwt>
</event>
<event>
12    1  0.5759937E-002  0.2909562E+03  0.7546771E-02  0.1089851E+00
          2   -1    0    0  503    0  0.00000000000E+00  0.00000000000E+00  0.26493762935E+04  0.26493762935E+04  0.00000000000E+00 0. -1.
         -2   -1    0    0    0  501 -0.00000000000E+00 -0.00000000000E+00 -0.32496005909E+02  0.32496005909E+02  0.00000000000E+00 0.  1.
          6    2    1    2  503    0 -0.22592281089E+03  0.70842673394E+02  0.14879482184E+04  0.15164027610E+04  0.17154484017E+03 0.  0.
         24    2    3    3    0    0 -0.24282513082E+03  0.44969006896E+02  0.12764136247E+04  0.13025707958E+04  0.80452973468E+02 0.  0.
         -6    2    1    2    0  501  0.22592281089E+03 -0.70842673394E+02  0.11289320692E+04  0.11654695384E+04  0.16664881390E+03 0.  0.
        -24    2    5    5    0    0  0.21240439357E+03 -0.10485166080E+03  0.10318014563E+04  0.10615666761E+04  0.78740493866E+02 0.  0.
          4    1    4    4  502    0 -0.17097288746E+03  0.65974836159E+02  0.96868241150E+03  0.98586511329E+03  0.00000000000E+00 0. -1.
         -3    1    4    4    0  502 -0.71852243363E+02 -0.21005829263E+02  0.30773121319E+03  0.31670568248E+03  0.00000000000E+00 0.  1.
          5    1    3    3  503    0  0.16902319934E+02  0.25873666498E+02  0.21153459369E+03  0.21383196526E+03  0.47000000000E+01 0. -1.
         11    1    6    6    0    0  0.82708519425E+02 -0.61795362346E+02  0.59488069824E+03  0.60377347667E+03  0.00000000000E+00 0. -1.
        -12    1    6    6    0    0  0.12969587415E+03 -0.43056298454E+02  0.43692075803E+03  0.45779319939E+03  0.00000000000E+00 0.  1.
         -5    1    5    5    0  501  0.13518417313E+02  0.34008987406E+02  0.97130612964E+02  0.10390286236E+03  0.47000000000E+01 0.  1.
<mgrwt>
<rscale>  2 0.29095615E+03</rscale>
<asrwt>0</asrwt>
<pdfrwt beam="1">  1        2 0.40759618E+00 0.29095615E+03</pdfrwt>
<pdfrwt beam="2">  1       -2 0.49993876E-02 0.29095615E+03</pdfrwt>
<totfact> 0.64682368E+02</totfact>
</mgrwt>
</event>
<event>
12    1  0.5759937E-002  0.1993312E+03  0.7546771E-02  0.1150304E+00
          1   -1    0    0  503    0  0.00000000000E+00  0.00000000000E+00  0.40794995371E+03  0.40794995371E+03  0.00000000000E+00 0. -1.
         -1   -1    0    0    0  501 -0.00000000000E+00 -0.00000000000E+00 -0.10332735340E+03  0.10332735340E+03  0.00000000000E+00 0.  1.
          6    2    1    2  503    0  0.60959140721E+02 -0.60387725623E+02  0.20748521156E+03  0.28273621776E+03  0.17183411063E+03 0.  0.
         24    2    3    3    0    0 -0.45989401154E+01 -0.77410132803E+02  0.80980288237E+02  0.13916320521E+03  0.82432467451E+02 0.  0.
         -6    2    1    2    0  501 -0.60959140721E+02  0.60387725623E+02  0.97137388754E+02  0.22854108934E+03  0.18823565810E+03 0.  0.
        -24    2    5    5    0    0 -0.28327839802E+02  0.18968869186E+02  0.13681116053E+03  0.16238656088E+03  0.80559400468E+02 0.  0.
          4    1    4    4  502    0 -0.98629077285E+01 -0.31941283766E+01 -0.14681969728E+02  0.17973303537E+02  0.00000000000E+00 0. -1.
         -3    1    4    4    0  502  0.52639676130E+01 -0.74216004427E+02  0.95662257965E+02  0.12118990167E+03  0.00000000000E+00 0.  1.
          5    1    3    3  503    0  0.65558080837E+02  0.17022407180E+02  0.12650492332E+03  0.14357301255E+03  0.47000000000E+01 0. -1.
         13    1    6    6    0    0 -0.50227331263E+02  0.18732943278E+02  0.12801390536E+03  0.13878497014E+03  0.00000000000E+00 0. -1.
        -14    1    6    6    0    0  0.21899491461E+02  0.23592590801E+00  0.87972551670E+01  0.23601590746E+02  0.00000000000E+00 0.  1.
         -5    1    5    5    0  501 -0.32631300919E+02  0.41418856437E+02 -0.39673771777E+02  0.66154528456E+02  0.47000000000E+01 0.  1.
<mgrwt>
<rscale>  2 0.19933122E+03</rscale>
<asrwt>0</asrwt>
<pdfrwt beam="1">  1        1 0.62761530E-01 0.19933122E+03</pdfrwt>
<pdfrwt beam="2">  1       -1 0.15896516E-01 0.19933122E+03</pdfrwt>
<totfact> 0.17170696E+03</totfact>
</mgrwt>
</event>
<event>
12    1  0.5759937E-002  0.1869359E+03  0.7546771E-02  0.1161254E+00
          1   -1    0    0  503    0  0.00000000000E+00  0.00000000000E+00  0.32038347914E+04  0.32038347914E+04  0.00000000000E+00 0.  1.
         -1   -1    0    0    0  501 -0.00000000000E+00 -0.00000000000E+00 -0.10957603424E+02  0.10957603424E+02  0.00000000000E+00 0. -1.
          6    2    1    2  503    0  0.34445517712E+02  0.63254813627E+02  0.14832094533E+04  0.14948794285E+04  0.17194928926E+03 0.  0.
         24    2    3    3    0    0 -0.20920919668E+02  0.60158597640E+02  0.12818697125E+04  0.12859899596E+04  0.80768030669E+02 0.  0.
         -6    2    1    2    0  501 -0.34445517712E+02 -0.63254813627E+02  0.17096677347E+04  0.17199129664E+04  0.17305832487E+03 0.  0.
        -24    2    5    5    0    0  0.23895685304E+02 -0.54241126011E+02  0.56570595808E+03  0.57441937022E+03  0.80132879352E+02 0.  0.
          2    1    4    4  502    0 -0.43315435628E+02  0.64836798563E+02  0.87079442873E+03  0.87427854515E+03  0.00000000000E+00 0. -1.
         -1    1    4    4    0  502  0.22394515960E+02 -0.46782009234E+01  0.41107528374E+03  0.41171141448E+03  0.00000000000E+00 0.  1.
          5    1    3    3  503    0  0.55366437379E+02  0.30962159874E+01  0.20133974085E+03  0.20888946883E+03  0.47000000000E+01 0. -1.
         13    1    6    6    0    0  0.16991026899E+02 -0.11871886380E+02  0.27163033975E+02  0.34168217630E+02  0.00000000000E+00 0. -1.
        -14    1    6    6    0    0  0.69046584055E+01 -0.42369239631E+02  0.53854292411E+03  0.54025115259E+03  0.00000000000E+00 0.  1.
         -5    1    5    5    0  501 -0.58341203016E+02 -0.90136876163E+01  0.11439617766E+04  0.11454935962E+04  0.47000000000E+01 0.  1.
<mgrwt>
<rscale>  2 0.18693585E+03</rscale>
<asrwt>0</asrwt>
<pdfrwt beam="1">  1        1 0.49289691E+00 0.18693585E+03</pdfrwt>
<pdfrwt beam="2">  1       -1 0.16857877E-02 0.18693585E+03</pdfrwt>
<totfact> 0.46498411E+02</totfact>
</mgrwt>
</event>
<event>
12    1  0.5759937E-002  0.2086652E+03  0.7546771E-02  0.1142627E+00
          1   -1    0    0  503    0  0.00000000000E+00  0.00000000000E+00  0.15951506533E+03  0.15951506533E+03  0.00000000000E+00 0.  1.
         -1   -1    0    0    0  501 -0.00000000000E+00 -0.00000000000E+00 -0.27882950278E+03  0.27882950278E+03  0.00000000000E+00 0. -1.
          6    2    1    2  503    0 -0.41927721926E+02  0.11168924518E+03 -0.91418058037E+02  0.22768407016E+03  0.17102734611E+03 0.  0.
         24    2    3    3    0    0 -0.41064955464E+02  0.18288219398E+02  0.79925556194E+01  0.91195769966E+02  0.78943004619E+02 0.  0.
         -6    2    1    2    0  501  0.41927721926E+02 -0.11168924518E+03 -0.27896379414E+02  0.21066049794E+03  0.17136865540E+03 0.  0.
        -24    2    5    5    0    0  0.42630679031E+02 -0.14363275171E+03 -0.42250118105E+02  0.17531928160E+03  0.80647602971E+02 0.  0.
          4    1    4    4  502    0  0.43801656465E+01 -0.22503871056E+02 -0.13321435022E+02  0.26515480283E+02  0.00000000000E+00 0. -1.
         -3    1    4    4    0  502 -0.45445121111E+02  0.40792090454E+02  0.21313990641E+02  0.64680289683E+02  0.00000000000E+00 0.  1.
          5    1    3    3  503    0 -0.86276646187E+00  0.93401025784E+02 -0.99410613656E+02  0.13648830020E+03  0.47000000000E+01 0. -1.
         11    1    6    6    0    0  0.55366922219E+02 -0.77488878312E+02  0.10519733752E+01  0.95242474696E+02  0.00000000000E+00 0. -1.
        -12    1    6    6    0    0 -0.12736243188E+02 -0.66143873393E+02 -0.43302091480E+02  0.80076806908E+02  0.00000000000E+00 0.  1.
         -5    1    5    5    0  501 -0.70295710524E+00  0.31943506524E+02  0.14353738691E+02  0.35341216336E+02  0.47000000000E+01 0.  1.
<mgrwt>
<rscale>  2 0.20866520E+03</rscale>
<asrwt>0</asrwt>
<pdfrwt beam="1">  1        1 0.24540780E-01 0.20866520E+03</pdfrwt>
<pdfrwt beam="2">  1       -1 0.42896846E-01 0.20866520E+03</pdfrwt>
<totfact> 0.10629487E+03</totfact>
</mgrwt>
</event>
<event>
12    1  0.5759937E-002  0.3644654E+03  0.7546771E-02  0.1056830E+00
          2   -1    0    0  503    0  0.00000000000E+00  0.00000000000E+00  0.57803426740E+03  0.57803426740E+03  0.00000000000E+00 0. -1.
         -2   -1    0    0    0  501 -0.00000000000E+00 -0.00000000000E+00 -0.23226799269E+03  0.23226799269E+03  0.00000000000E+00 0.  1.
          6    2    1    2  503    0 -0.51450947549E+02 -0.31603592576E+03  0.21395151126E+03  0.42147082500E+03  0.17127901444E+03 0.  0.
         24    2    3    3    0    0  0.29504087900E+02 -0.22454035089E+03  0.13461993570E+03  0.27572876908E+03  0.81332445122E+02 0.  0.
         -6    2    1    2    0  501  0.51450947549E+02  0.31603592576E+03  0.13181476345E+03  0.38883143508E+03  0.17688653616E+03 0.  0.
        -24    2    5    5    0    0  0.23762773496E+02  0.16151559469E+03  0.14355729365E+03  0.23134129345E+03  0.79108411461E+02 0.  0.
          2    1    4    4  502    0  0.35434007828E+02 -0.17810473987E+03  0.13903467833E+03  0.22870834933E+03  0.00000000000E+00 0. -1.
         -1    1    4    4    0  502 -0.59299199286E+01 -0.46435611012E+02 -0.44147426286E+01  0.47020419744E+02  0.00000000000E+00 0.  1.
          5    1    3    3  503    0 -0.80955035449E+02 -0.91495574872E+02  0.79331575558E+02  0.14574205593E+03  0.47000000000E+01 0. -1.
         11    1    6    6    0    0 -0.92810569181E+01  0.13464180236E+03  0.12797075426E+03  0.18598673853E+03  0.00000000000E+00 0. -1.
        -12    1    6    6    0    0  0.33043830414E+02  0.26873792330E+02  0.15586539386E+02  0.45354554927E+02  0.00000000000E+00 0.  1.
         -5    1    5    5    0  501  0.27688174053E+02  0.15452033107E+03 -0.11742530202E+02  0.15749014163E+03  0.47000000000E+01 0.  1.
<mgrwt>
<rscale>  2 0.36446535E+03</rscale>
<asrwt>0</asrwt>
<pdfrwt beam="1">  1        2 0.88928348E-01 0.36446535E+03</pdfrwt>
<pdfrwt beam="2">  1       -2 0.35733537E-01 0.36446535E+03</pdfrwt>
<totfact> 0.38999607E+02</totfact>
</mgrwt>
</event>
<event>
12    1  0.5759937E-002  0.1893348E+03  0.7546771E-02  0.1159063E+00
          2   -1    0    0  503    0  0.00000000000E+00  0.00000000000E+00  0.25171567191E+03  0.25171567191E+03  0.00000000000E+00 0. -1.
         -2   -1    0    0    0  501 -0.00000000000E+00 -0.00000000000E+00 -0.16416006894E+03  0.16416006894E+03  0.00000000000E+00 0.  1.
          6    2    1    2  503    0 -0.64298553191E+02 -0.41896627888E+02 -0.32065842130E+02  0.19121500359E+03  0.17217818676E+03 0.  0.
         24    2    3    3    0    0 -0.87934939624E+02 -0.35222693718E+02  0.27758238458E+02  0.12637496366E+03  0.78910834980E+02 0.  0.
         -6    2    1    2    0  501  0.64298553191E+02  0.41896627888E+02  0.11962144511E+03  0.22466073725E+03  0.17399288883E+03 0.  0.
        -24    2    5    5    0    0  0.77136438934E+02  0.20434272921E+02  0.14861740460E+03  0.18608225027E+03  0.78561321220E+02 0.  0.
          2    1    4    4  502    0 -0.66212680863E+02  0.12711218420E+02  0.29789406654E+02  0.73709585059E+02  0.00000000000E+00 0. -1.
         -1    1    4    4    0  502 -0.21722258761E+02 -0.47933912138E+02 -0.20311681961E+01  0.52665378597E+02  0.00000000000E+00 0.  1.
          5    1    3    3  503    0  0.23636386433E+02 -0.66739341705E+01 -0.59824080588E+02  0.64840039937E+02  0.47000000000E+01 0. -1.
         11    1    6    6    0    0  0.62152371535E+02 -0.22157118678E+02  0.76815005843E+02  0.10126401295E+03  0.00000000000E+00 0. -1.
        -12    1    6    6    0    0  0.14984067399E+02  0.42591391599E+02  0.71802398762E+02  0.84818237321E+02  0.00000000000E+00 0.  1.
         -5    1    5    5    0  501 -0.12837885743E+02  0.21462354967E+02 -0.28995959498E+02  0.38578486987E+02  0.47000000000E+01 0.  1.
<mgrwt>
<rscale>  2 0.18933484E+03</rscale>
<asrwt>0</asrwt>
<pdfrwt beam="1">  1        2 0.38725488E-01 0.18933484E+03</pdfrwt>
<pdfrwt beam="2">  1       -2 0.25255395E-01 0.18933484E+03</pdfrwt>
<totfact> 0.18261133E+03</totfact>
</mgrwt>
</event>
<event>
12    1  0.5759937E-002  0.5364300E+03  0.7546771E-02  0.1004685E+00
         -2   -1    0    0    0  501 -0.00000000000E+00  0.00000000000E+00  0.15069435324E+04  0.15069435324E+04  0.00000000000E+00 0.  1.
          2   -1    0    0  503    0  0.00000000000E+00 -0.00000000000E+00 -0.41732484454E+03  0.41732484454E+03  0.00000000000E+00 0. -1.
          6    2    1    2  503    0  0.36673524910E+03  0.34957173783E+03  0.12538247055E+04  0.13640999559E+04  0.17887748563E+03 0.  0.
         24    2    3    3    0    0  0.94569488667E+02  0.62462326031E+02  0.40492563482E+03  0.42753296010E+03  0.77296389836E+02 0.  0.
         -6    2    1    2    0  501 -0.36673524910E+03 -0.34957173783E+03 -0.16420601760E+03  0.56016842104E+03  0.17357966730E+03 0.  0.
        -24    2    5    5    0    0 -0.63919112544E+02 -0.98202531774E+02 -0.33250280850E+02  0.14537258536E+03  0.79361307974E+02 0.  0.
          2    1    4    4  502    0  0.99338971676E+02  0.74096911052E+02  0.37841286594E+03  0.39818950341E+03  0.00000000000E+00 0. -1.
         -1    1    4    4    0  502 -0.47694830099E+01 -0.11634585021E+02  0.26512768879E+02  0.29343456688E+02  0.00000000000E+00 0.  1.
          5    1    3    3  503    0  0.27216576043E+03  0.28710941180E+03  0.84889907066E+03  0.93656699582E+03  0.47000000000E+01 0. -1.
         13    1    6    6    0    0 -0.66011273696E+02 -0.86063587648E+02 -0.54060672509E+02  0.12118987452E+03  0.00000000000E+00 0. -1.
        -14    1    6    6    0    0  0.20921611519E+01 -0.12138944126E+02  0.20810391659E+02  0.24182710844E+02  0.00000000000E+00 0.  1.
         -5    1    5    5    0  501 -0.30281613655E+03 -0.25136920606E+03 -0.13095573675E+03  0.41479583568E+03  0.47000000000E+01 0.  1.
<mgrwt>
<rscale>  2 0.53643001E+03</rscale>
<asrwt>0</asrwt>
<pdfrwt beam="2">  1        2 0.64203823E-01 0.53643001E+03</pdfrwt>
<pdfrwt beam="1">  1       -2 0.23183746E+00 0.53643001E+03</pdfrwt>
<totfact> 0.66604461E+00</totfact>
</mgrwt>
</event>
<event>
12    1  0.5759937E-002  0.1777743E+03  0.7546771E-02  0.1169975E+00
          3   -1    0    0  503    0  0.00000000000E+00  0.00000000000E+00  0.22651137167E+02  0.22651137167E+02  0.00000000000E+00 0.  1.
         -3   -1    0    0    0  501 -0.00000000000E+00 -0.00000000000E+00 -0.13952537638E+04  0.13952537638E+04  0.00000000000E+00 0. -1.
          6    2    1    2  503    0  0.37216115231E+02  0.10128862611E+02 -0.68721638336E+03  0.70976031815E+03  0.17322158806E+03 0.  0.
         24    2    3    3    0    0  0.81667819340E+02 -0.23022144731E+02 -0.54903006453E+03  0.56078887123E+03  0.76488525095E+02 0.  0.
         -6    2    1    2    0  501 -0.37216115231E+02 -0.10128862611E+02 -0.68538624332E+03  0.70814458286E+03  0.17385860525E+03 0.  0.
        -24    2    5    5    0    0  0.43510193080E+02 -0.20851260194E+01 -0.43073129325E+03  0.44083825644E+03  0.83135050993E+02 0.  0.
          2    1    4    4  502    0  0.67551487705E+02 -0.48827717507E+02 -0.44201000201E+03  0.44980016826E+03  0.00000000000E+00 0. -1.
         -1    1    4    4    0  502  0.14116331635E+02  0.25805572776E+02 -0.10702006252E+03  0.11098870297E+03  0.00000000000E+00 0.  1.
          5    1    3    3  503    0 -0.44451704109E+02  0.33151007342E+02 -0.13818631883E+03  0.14897144692E+03  0.47000000000E+01 0. -1.
         11    1    6    6    0    0  0.26337036249E+02  0.28167432853E+02 -0.35954255104E+03  0.36160460417E+03  0.00000000000E+00 0. -1.
        -12    1    6    6    0    0  0.17173156831E+02 -0.30252558872E+02 -0.71188742213E+02  0.79233652268E+02  0.00000000000E+00 0.  1.
         -5    1    5    5    0  501 -0.80726308310E+02 -0.80437365914E+01 -0.25465495007E+03  0.26730632642E+03  0.47000000000E+01 0.  1.
<mgrwt>
<rscale>  2 0.17777431E+03</rscale>
<asrwt>0</asrwt>
<pdfrwt beam="1">  1        3 0.34847901E-02 0.17777431E+03</pdfrwt>
<pdfrwt beam="2">  1       -3 0.21465444E+00 0.17777431E+03</pdfrwt>
<totfact> 0.12781199E+02</totfact>
</mgrwt>
</event>
<event>
12    1  0.5759937E-002  0.2311109E+03  0.7546771E-02  0.1125860E+00
         -2   -1    0    0    0  501 -0.00000000000E+00  0.00000000000E+00  0.39705388906E+02  0.39705388906E+02  0.00000000000E+00 0.  1.
          2   -1    0    0  503    0  0.00000000000E+00 -0.00000000000E+00 -0.13470946936E+04  0.13470946936E+04  0.00000000000E+00 0. -1.
          6    2    1    2  503    0  0.95035279670E+02  0.12145460133E+03 -0.63442752078E+03  0.67592940662E+03  0.17492672479E+03 0.  0.
         24    2    3    3    0    0  0.55294191778E+02  0.67145411379E+02 -0.57086119725E+03  0.58323847035E+03  0.81967388973E+02 0.  0.
         -6    2    1    2    0  501 -0.95035279670E+02 -0.12145460133E+03 -0.67296178392E+03  0.71087067590E+03  0.16934175700E+03 0.  0.
        -24    2    5    5    0    0 -0.21296449913E+02 -0.13164861308E+03 -0.43880357802E+03  0.46511980961E+03  0.77478778393E+02 0.  0.
          2    1    4    4  502    0  0.67763868325E+02  0.20324328521E+02 -0.35944414032E+03  0.36634015640E+03  0.00000000000E+00 0. -1.
         -1    1    4    4    0  502 -0.12469676546E+02  0.46821082858E+02 -0.21141705693E+03  0.21689831395E+03  0.00000000000E+00 0.  1.
          5    1    3    3  503    0  0.39741087892E+02  0.54309189947E+02 -0.63566323526E+02  0.92690936268E+02  0.47000000000E+01 0. -1.
         13    1    6    6    0    0  0.67265830324E+00  0.10172850478E+02 -0.20757252409E+02  0.23125805578E+02  0.00000000000E+00 0. -1.
        -14    1    6    6    0    0 -0.21969108216E+02 -0.14182146356E+03 -0.41804632561E+03  0.44199400403E+03  0.00000000000E+00 0.  1.
         -5    1    5    5    0  501 -0.73738829757E+02  0.10194011755E+02 -0.23415820590E+03  0.24575086629E+03  0.47000000000E+01 0.  1.
<mgrwt>
<rscale>  2 0.23111094E+03</rscale>
<asrwt>0</asrwt>
<pdfrwt beam="2">  1        2 0.20724530E+00 0.23111094E+03</pdfrwt>
<pdfrwt beam="1">  1       -2 0.61085224E-02 0.23111094E+03</pdfrwt>
<totfact> 0.23776913E+03</totfact>
</mgrwt>
</event>
<event>
12    1  0.5759937E-002  0.2135105E+03  0.7546771E-02  0.1138816E+00
          1   -1    0    0  503    0  0.00000000000E+00  0.00000000000E+00  0.28421061299E+03  0.28421061299E+03  0.00000000000E+00 0.  1.
         -1   -1    0    0    0  501 -0.00000000000E+00 -0.00000000000E+00 -0.16102135644E+03  0.16102135644E+03  0.00000000000E+00 0. -1.
          6    2    1    2  503    0 -0.75541897262E+02 -0.97812927584E+02  0.75279392371E+02  0.22587415404E+03  0.17343067635E+03 0.  0.
         24    2    3    3    0    0 -0.15734049867E+02  0.16866850266E+02  0.36457235190E+02  0.90753171409E+02  0.79843328838E+02 0.  0.
         -6    2    1    2    0  501  0.75541897262E+02  0.97812927584E+02  0.47909864173E+02  0.21935781540E+03  0.17478143221E+03 0.  0.
        -24    2    5    5    0    0  0.99875203672E+02  0.20664293442E+02  0.48802475648E+02  0.13832135258E+03  0.79680898700E+02 0.  0.
          4    1    4    4  502    0  0.19514991119E+02  0.20168519645E+02  0.46180169167E+02  0.54038986735E+02  0.00000000000E+00 0. -1.
         -3    1    4    4    0  502 -0.35249040986E+02 -0.33016693794E+01 -0.97229339773E+01  0.36714184674E+02  0.00000000000E+00 0.  1.
          5    1    3    3  503    0 -0.59807847395E+02 -0.11467977785E+03  0.38822157181E+02  0.13512098263E+03  0.47000000000E+01 0. -1.
         13    1    6    6    0    0  0.47523923303E+02 -0.25906026886E+02  0.40835207631E+02  0.67802357610E+02  0.00000000000E+00 0. -1.
        -14    1    6    6    0    0  0.52351280369E+02  0.46570320328E+02  0.79672680163E+01  0.70518994968E+02  0.00000000000E+00 0.  1.
         -5    1    5    5    0  501 -0.24333306410E+02  0.77148634143E+02 -0.89261147498E+00  0.81036462819E+02  0.47000000000E+01 0.  1.
<mgrwt>
<rscale>  2 0.21351046E+03</rscale>
<asrwt>0</asrwt>
<pdfrwt beam="1">  1        1 0.43724710E-01 0.21351046E+03</pdfrwt>
<pdfrwt beam="2">  1       -1 0.24772516E-01 0.21351046E+03</pdfrwt>
<totfact> 0.13217139E+03</totfact>
</mgrwt>
</event>
<event>
12    1  0.5759937E-002  0.1749841E+03  0.7546771E-02  0.1172748E+00
         -2   -1    0    0    0  501 -0.00000000000E+00  0.00000000000E+00  0.10604350938E+02  0.10604350938E+02  0.00000000000E+00 0. -1.
          2   -1    0    0  503    0  0.00000000000E+00 -0.00000000000E+00 -0.29730582062E+04  0.29730582062E+04  0.00000000000E+00 0.  1.
          6    2    1    2  503    0 -0.24630493773E+02  0.25065773013E+02 -0.17285773183E+04  0.17373415412E+04  0.17070773551E+03 0.  0.
         24    2    3    3    0    0 -0.23216941990E+01  0.98499347012E+01 -0.16773315356E+04  0.16792259278E+04  0.79096299634E+02 0.  0.
         -6    2    1    2    0  501  0.24630493773E+02 -0.25065773013E+02 -0.12338765370E+04  0.12463210160E+04  0.17213312378E+03 0.  0.
        -24    2    5    5    0    0  0.78879192517E+02 -0.15766555474E+02 -0.97452924251E+03  0.98115596194E+03  0.80555979713E+02 0.  0.
          4    1    4    4  502    0 -0.15269745791E+02  0.42056302157E+02 -0.10143638832E+04  0.10153501786E+04  0.00000000000E+00 0. -1.
         -3    1    4    4    0  502  0.12948051592E+02 -0.32206367456E+02 -0.66296765239E+03  0.66387574911E+03  0.00000000000E+00 0.  1.
          5    1    3    3  503    0 -0.22308799574E+02  0.15215838312E+02 -0.51245782737E+02  0.58115613412E+02  0.47000000000E+01 0. -1.
         13    1    6    6    0    0  0.56026154314E+02  0.22826887991E+02 -0.36509275587E+03  0.37007123257E+03  0.00000000000E+00 0. -1.
        -14    1    6    6    0    0  0.22853038203E+02 -0.38593443464E+02 -0.60943648664E+03  0.61108472938E+03  0.00000000000E+00 0.  1.
         -5    1    5    5    0  501 -0.54248698743E+02 -0.92992175396E+01 -0.25934729444E+03  0.26516505407E+03  0.47000000000E+01 0.  1.
<mgrwt>
<rscale>  2 0.17498414E+03</rscale>
<asrwt>0</asrwt>
<pdfrwt beam="2">  1        2 0.45739331E+00 0.17498414E+03</pdfrwt>
<pdfrwt beam="1">  1       -2 0.16314395E-02 0.17498414E+03</pdfrwt>
<totfact> 0.22841456E+03</totfact>
</mgrwt>
</event>
<event>
12    1  0.5759937E-002  0.1751968E+03  0.7546771E-02  0.1172534E+00
          2   -1    0    0  503    0  0.00000000000E+00  0.00000000000E+00  0.53863834976E+03  0.53863834976E+03  0.00000000000E+00 0. -1.
         -2   -1    0    0    0  501 -0.00000000000E+00 -0.00000000000E+00 -0.62124271435E+02  0.62124271435E+02  0.00000000000E+00 0.  1.
          6    2    1    2  503    0 -0.13598060379E+02 -0.13508386553E+02  0.15114172708E+03  0.23094691818E+03  0.17356633775E+03 0.  0.
         24    2    3    3    0    0 -0.45355090126E+02 -0.58166940368E+02  0.56202793565E+02  0.12122733714E+03  0.78082239424E+02 0.  0.
         -6    2    1    2    0  501  0.13598060379E+02  0.13508386553E+02  0.32537235124E+03  0.36981570301E+03  0.17472579514E+03 0.  0.
        -24    2    5    5    0    0  0.75822851052E+02 -0.32942762113E+01  0.18805272374E+03  0.21804935579E+03  0.80135745195E+02 0.  0.
          2    1    4    4  502    0 -0.24772954793E+02 -0.49538971776E+02  0.74175135593E+02  0.92572996895E+02  0.00000000000E+00 0. -1.
         -1    1    4    4    0  502 -0.20582135333E+02 -0.86279685923E+01 -0.17972342028E+02  0.28654340245E+02  0.00000000000E+00 0.  1.
          5    1    3    3  503    0  0.31757029747E+02  0.44658553815E+02  0.94938933513E+02  0.10971958104E+03  0.47000000000E+01 0. -1.
         13    1    6    6    0    0  0.13384896300E+02  0.32939351542E+01  0.13542617598E+03  0.13612587777E+03  0.00000000000E+00 0. -1.
        -14    1    6    6    0    0  0.62437954752E+02 -0.65882113655E+01  0.52626547766E+02  0.81923478029E+02  0.00000000000E+00 0.  1.
         -5    1    5    5    0  501 -0.62224790673E+02  0.16802662764E+02  0.13731962750E+03  0.15176634722E+03  0.47000000000E+01 0.  1.
<mgrwt>
<rscale>  2 0.17519677E+03</rscale>
<asrwt>0</asrwt>
<pdfrwt beam="1">  1        2 0.82867435E-01 0.17519677E+03</pdfrwt>
<pdfrwt beam="2">  1       -2 0.95575806E-02 0.17519677E+03</pdfrwt>
<totfact> 0.39980733E+03</totfact>
</mgrwt>
</event>
<event>
12    1  0.5759937E-002  0.1904993E+03  0.7546771E-02  0.1158012E+00
          1   -1    0    0  503    0  0.00000000000E+00  0.00000000000E+00  0.37134511034E+02  0.37134511034E+02  0.00000000000E+00 0.  1.
         -1   -1    0    0    0  501 -0.00000000000E+00 -0.00000000000E+00 -0.13643754537E+04  0.13643754537E+04  0.00000000000E+00 0. -1.
          6    2    1    2  503    0  0.32147010829E+02 -0.83782784373E+02 -0.28215800285E+03  0.33859374623E+03  0.16425468380E+03 0.  0.
         24    2    3    3    0    0  0.55604809873E+02 -0.60482712850E-01 -0.17363804752E+03  0.19945941245E+03  0.80882551456E+02 0.  0.
         -6    2    1    2    0  501 -0.32147010829E+02  0.83782784373E+02 -0.10450829398E+04  0.10629162185E+04  0.17187073980E+03 0.  0.
        -24    2    5    5    0    0 -0.39595410142E+02  0.12344350464E+03 -0.83172147052E+03  0.84572124166E+03  0.81717309900E+02 0.  0.
          2    1    4    4  502    0  0.30868956400E+02  0.37642150576E+02 -0.11928728731E+03  0.12883819652E+03  0.00000000000E+00 0. -1.
         -1    1    4    4    0  502  0.24735853473E+02 -0.37702633289E+02 -0.54350760206E+02  0.70621215927E+02  0.00000000000E+00 0.  1.
          5    1    3    3  503    0 -0.23457799044E+02 -0.83722301660E+02 -0.10851995534E+03  0.13913433378E+03  0.47000000000E+01 0. -1.
         11    1    6    6    0    0  0.21643808767E+02  0.53831878306E+02 -0.24901690494E+03  0.25568680944E+03  0.00000000000E+00 0. -1.
        -12    1    6    6    0    0 -0.61239218909E+02  0.69611626330E+02 -0.58270456558E+03  0.59003443222E+03  0.00000000000E+00 0.  1.
         -5    1    5    5    0  501  0.74483993122E+01 -0.39660720262E+02 -0.21336146932E+03  0.21719497687E+03  0.47000000000E+01 0.  1.
<mgrwt>
<rscale>  2 0.19049933E+03</rscale>
<asrwt>0</asrwt>
<pdfrwt beam="1">  1        1 0.57130018E-02 0.19049933E+03</pdfrwt>
<pdfrwt beam="2">  1       -1 0.20990391E+00 0.19049933E+03</pdfrwt>
<totfact> 0.19974580E+02</totfact>
</mgrwt>
</event>
<event>
12    1  0.5759937E-002  0.1759276E+03  0.7546771E-02  0.1171804E+00
         -2   -1    0    0    0  501 -0.00000000000E+00  0.00000000000E+00  0.12316107687E+03  0.12316107687E+03  0.00000000000E+00 0. -1.
          2   -1    0    0  503    0  0.00000000000E+00 -0.00000000000E+00 -0.34462714395E+03  0.34462714395E+03  0.00000000000E+00 0.  1.
          6    2    1    2  503    0 -0.18004007021E+01  0.26798146931E+02  0.11141736872E+02  0.17593227290E+03  0.17351266302E+03 0.  0.
         24    2    3    3    0    0 -0.35987100630E+02  0.31583221223E+02  0.61078003817E+02  0.11504427619E+03  0.84924034633E+02 0.  0.
         -6    2    1    2    0  501  0.18004007021E+01 -0.26798146931E+02 -0.23260780395E+03  0.29185594791E+03  0.17421860335E+03 0.  0.
        -24    2    5    5    0    0  0.42617404278E+02  0.30024681406E+02 -0.18127276968E+03  0.20495233841E+03  0.80174306057E+02 0.  0.
          4    1    4    4  502    0 -0.46853514001E+02  0.35158396637E+02  0.76180726949E+02  0.96098219478E+02  0.00000000000E+00 0. -1.
         -3    1    4    4    0  502  0.10866413371E+02 -0.35751754132E+01 -0.15102723132E+02  0.18946056708E+02  0.00000000000E+00 0.  1.
          5    1    3    3  503    0  0.34186699927E+02 -0.47850742925E+01 -0.49936266946E+02  0.60887996718E+02  0.47000000000E+01 0. -1.
         13    1    6    6    0    0  0.57145559946E+02  0.52292748820E+01 -0.72580480381E+02  0.92525058604E+02  0.00000000000E+00 0. -1.
        -14    1    6    6    0    0 -0.14528155667E+02  0.24795406524E+02 -0.10869228930E+03  0.11242727981E+03  0.00000000000E+00 0.  1.
         -5    1    5    5    0  501 -0.40817003576E+02 -0.56822828337E+02 -0.51335034273E+02  0.86903609505E+02  0.47000000000E+01 0.  1.
<mgrwt>
<rscale>  2 0.17592760E+03</rscale>
<asrwt>0</asrwt>
<pdfrwt beam="2">  1        2 0.53019561E-01 0.17592760E+03</pdfrwt>
<pdfrwt beam="1">  1       -2 0.18947858E-01 0.17592760E+03</pdfrwt>
<totfact> 0.21362912E+03</totfact>
</mgrwt>
</event>
<event>
12    1  0.5759937E-002  0.2164656E+03  0.7546771E-02  0.1136546E+00
          2   -1    0    0  503    0  0.00000000000E+00  0.00000000000E+00  0.25014965793E+04  0.25014965793E+04  0.00000000000E+00 0. -1.
         -2   -1    0    0    0  501 -0.00000000000E+00 -0.00000000000E+00 -0.19040905110E+02  0.19040905110E+02  0.00000000000E+00 0.  1.
          6    2    1    2  503    0  0.68930348418E+02 -0.97294346046E+02  0.13610139427E+04  0.13771377434E+04  0.17300817721E+03 0.  0.
         24    2    3    3    0    0  0.52049904931E+02 -0.34925012089E+02  0.35696373383E+03  0.37099968373E+03  0.79301380740E+02 0.  0.
         -6    2    1    2    0  501 -0.68930348418E+02  0.97294346046E+02  0.11214417315E+04  0.11433997410E+04  0.18845112867E+03 0.  0.
        -24    2    5    5    0    0  0.32280535792E+02  0.37647895391E+02  0.71733915017E+03  0.72254070476E+03  0.70924020272E+02 0.  0.
          4    1    4    4  502    0  0.65849379571E+02 -0.17475125439E+02  0.32494958979E+03  0.33201469350E+03  0.00000000000E+00 0. -1.
         -3    1    4    4    0  502 -0.13799474640E+02 -0.17449886650E+02  0.32014144044E+02  0.38984990231E+02  0.00000000000E+00 0.  1.
          5    1    3    3  503    0  0.16880443487E+02 -0.62369333957E+02  0.10040502088E+04  0.10061380596E+04  0.47000000000E+01 0. -1.
         11    1    6    6    0    0  0.17760282074E+02  0.21598331308E+02  0.78441218400E+02  0.83276288814E+02  0.00000000000E+00 0. -1.
        -12    1    6    6    0    0  0.14520253718E+02  0.16049564083E+02  0.63889793177E+03  0.63926441595E+03  0.00000000000E+00 0.  1.
         -5    1    5    5    0  501 -0.10121088421E+03  0.59646450655E+02  0.40410258134E+03  0.42085903626E+03  0.47000000000E+01 0.  1.
<mgrwt>
<rscale>  2 0.21646562E+03</rscale>
<asrwt>0</asrwt>
<pdfrwt beam="1">  1        2 0.38484537E+00 0.21646562E+03</pdfrwt>
<pdfrwt beam="2">  1       -2 0.29293720E-02 0.21646562E+03</pdfrwt>
<totfact> 0.17671389E+03</totfact>
</mgrwt>
</event>
<event>
12    1  0.5759937E-002  0.1859504E+03  0.7546771E-02  0.1162165E+00
          1   -1    0    0  503    0  0.00000000000E+00  0.00000000000E+00  0.14823339399E+04  0.14823339399E+04  0.00000000000E+00 0.  1.
         -1   -1    0    0    0  501 -0.00000000000E+00 -0.00000000000E+00 -0.27850213603E+02  0.27850213603E+02  0.00000000000E+00 0. -1.
          6    2    1    2  503    0  0.41256258258E+01 -0.67969058437E+02  0.42103232438E+03  0.46003416626E+03  0.17241346312E+03 0.  0.
         24    2    3    3    0    0 -0.60873564484E+02 -0.57731129641E+02  0.30867280780E+03  0.32974041779E+03  0.80071010133E+02 0.  0.
         -6    2    1    2    0  501 -0.41256258258E+01  0.67969058437E+02  0.10334514019E+04  0.10501499873E+04  0.17365592957E+03 0.  0.
        -24    2    5    5    0    0  0.29442910299E+02 -0.68056592036E+01  0.29504482729E+03  0.30719341753E+03  0.80019645712E+02 0.  0.
          2    1    4    4  502    0 -0.37070334711E+01 -0.45945641292E+02  0.68418146261E+02  0.82497192611E+02  0.00000000000E+00 0. -1.
         -1    1    4    4    0  502 -0.57166531012E+02 -0.11785488349E+02  0.24025466154E+03  0.24724322517E+03  0.00000000000E+00 0.  1.
          5    1    3    3  503    0  0.64999190309E+02 -0.10237928796E+02  0.11235951658E+03  0.13029374848E+03  0.47000000000E+01 0. -1.
         11    1    6    6    0    0  0.50100677478E+02  0.72832248550E+01  0.25504362066E+03  0.26001994479E+03  0.00000000000E+00 0. -1.
        -12    1    6    6    0    0 -0.20657767179E+02 -0.14088884059E+02  0.40001206632E+02  0.47173472745E+02  0.00000000000E+00 0.  1.
         -5    1    5    5    0  501 -0.33568536125E+02  0.74774717641E+02  0.73840657465E+03  0.74295656973E+03  0.47000000000E+01 0.  1.
<mgrwt>
<rscale>  2 0.18595036E+03</rscale>
<asrwt>0</asrwt>
<pdfrwt beam="1">  1        1 0.22805131E+00 0.18595036E+03</pdfrwt>
<pdfrwt beam="2">  1       -1 0.42846494E-02 0.18595036E+03</pdfrwt>
<totfact> 0.16345847E+03</totfact>
</mgrwt>
</event>
<event>
12    1  0.5759937E-002  0.1893006E+03  0.7546771E-02  0.1159094E+00
          1   -1    0    0  503    0  0.00000000000E+00  0.00000000000E+00  0.44136845786E+03  0.44136845786E+03  0.00000000000E+00 0. -1.
         -1   -1    0    0    0  501 -0.00000000000E+00 -0.00000000000E+00 -0.89482293934E+02  0.89482293934E+02  0.00000000000E+00 0.  1.
          6    2    1    2  503    0 -0.58091556088E+01  0.76852527737E+02  0.25694320699E+03  0.31928801520E+03  0.17316168089E+03 0.  0.
         24    2    3    3    0    0 -0.66218770715E+02  0.26221497582E+02  0.17764707515E+03  0.20738274573E+03  0.79853787559E+02 0.  0.
         -6    2    1    2    0  501  0.58091556088E+01 -0.76852527737E+02  0.94942956944E+02  0.21156273659E+03  0.17263999865E+03 0.  0.
        -24    2    5    5    0    0 -0.33034985897E+02 -0.37483245678E+02  0.11927140131E+03  0.15095934639E+03  0.77889364431E+02 0.  0.
          2    1    4    4  502    0 -0.70600205028E+02  0.45419701234E+02  0.16110468429E+03  0.18166468426E+03  0.00000000000E+00 0. -1.
         -1    1    4    4    0  502  0.43814343128E+01 -0.19198203652E+02  0.16542390863E+02  0.25718061466E+02  0.00000000000E+00 0.  1.
          5    1    3    3  503    0  0.60409615106E+02  0.50631030155E+02  0.79296131837E+02  0.11190526947E+03  0.47000000000E+01 0. -1.
         11    1    6    6    0    0  0.42496742971E+01 -0.49496755581E+02  0.87090547203E+02  0.10026341285E+03  0.00000000000E+00 0. -1.
        -12    1    6    6    0    0 -0.37284660194E+02  0.12013509902E+02  0.32180854107E+02  0.50695933536E+02  0.00000000000E+00 0.  1.
         -5    1    5    5    0  501  0.38844141506E+02 -0.39369282058E+02 -0.24328444366E+02  0.60603390205E+02  0.47000000000E+01 0.  1.
<mgrwt>
<rscale>  2 0.18930059E+03</rscale>
<asrwt>0</asrwt>
<pdfrwt beam="1">  1        1 0.67902839E-01 0.18930059E+03</pdfrwt>
<pdfrwt beam="2">  1       -1 0.13766507E-01 0.18930059E+03</pdfrwt>
<totfact> 0.19454643E+03</totfact>
</mgrwt>
</event>
<event>
12    1  0.5759937E-002  0.2522279E+03  0.7546771E-02  0.1111905E+00
          2   -1    0    0  503    0  0.00000000000E+00  0.00000000000E+00  0.25274523598E+04  0.25274523598E+04  0.00000000000E+00 0. -1.
         -2   -1    0    0    0  501 -0.00000000000E+00 -0.00000000000E+00 -0.32676967708E+02  0.32676967708E+02  0.00000000000E+00 0.  1.
          6    2    1    2  503    0 -0.74822063649E+02 -0.16592092042E+03  0.18631494539E+04  0.18802252129E+04  0.17547897470E+03 0.  0.
         24    2    3    3    0    0 -0.57452261606E+02 -0.19163096589E+03  0.14593821476E+04  0.14752402204E+04  0.80711002030E+02 0.  0.
         -6    2    1    2    0  501  0.74822063649E+02  0.16592092042E+03  0.63162593813E+03  0.67990411456E+03  0.17375323375E+03 0.  0.
        -24    2    5    5    0    0  0.16735446729E+02  0.79486111785E+02  0.49569807463E+03  0.50860465372E+03  0.79774654175E+02 0.  0.
          2    1    4    4  502    0 -0.78043213066E+02 -0.15864925815E+03  0.11855088995E+04  0.11986207411E+04  0.00000000000E+00 0. -1.
         -1    1    4    4    0  502  0.20590951460E+02 -0.32981707736E+02  0.27387324804E+03  0.27661947928E+03  0.00000000000E+00 0.  1.
          5    1    3    3  503    0 -0.17369802043E+02  0.25710045467E+02  0.40376730637E+03  0.40498499251E+03  0.47000000000E+01 0. -1.
         11    1    6    6    0    0  0.29777776859E+02  0.95294050326E+01  0.27369627868E+03  0.27547627579E+03  0.00000000000E+00 0. -1.
        -12    1    6    6    0    0 -0.13042330130E+02  0.69956706752E+02  0.22200179595E+03  0.23312837793E+03  0.00000000000E+00 0.  1.
         -5    1    5    5    0  501  0.58086616921E+02  0.86434808637E+02  0.13592786350E+03  0.17129946084E+03  0.47000000000E+01 0.  1.
<mgrwt>
<rscale>  2 0.25222789E+03</rscale>
<asrwt>0</asrwt>
<pdfrwt beam="1">  1        2 0.38883867E+00 0.25222789E+03</pdfrwt>
<pdfrwt beam="2">  1       -2 0.50272278E-02 0.25222789E+03</pdfrwt>
<totfact> 0.75492416E+02</totfact>
</mgrwt>
</event>
<event>
12    1  0.5759937E-002  0.1958505E+03  0.7546771E-02  0.1153288E+00
          2   -1    0    0  503    0  0.00000000000E+00  0.00000000000E+00  0.19375589130E+04  0.19375589130E+04  0.00000000000E+00 0.  1.
         -2   -1    0    0    0  501 -0.00000000000E+00 -0.00000000000E+00 -0.41620127369E+02  0.41620127369E+02  0.00000000000E+00 0. -1.
          6    2    1    2  503    0  0.83131785570E+02 -0.37597023644E+02  0.16643959617E+04  0.16758715265E+04  0.17322536210E+03 0.  0.
         24    2    3    3    0    0 -0.19781271937E+02 -0.20509141547E+02  0.85996933297E+03  0.86469498338E+03  0.85663510411E+02 0.  0.
         -6    2    1    2    0  501 -0.83131785570E+02  0.37597023644E+02  0.23154282391E+03  0.30330751384E+03  0.17337513861E+03 0.  0.
        -24    2    5    5    0    0 -0.75204234891E+02 -0.14723037891E+02  0.56695696975E+02  0.12056769143E+03  0.73822228158E+02 0.  0.
          2    1    4    4  502    0  0.68263137031E+01  0.31187322549E+02  0.33365438148E+03  0.33517830169E+03  0.00000000000E+00 0. -1.
         -1    1    4    4    0  502 -0.26607585641E+02 -0.51696464095E+02  0.52631495150E+03  0.52951668168E+03  0.00000000000E+00 0.  1.
          5    1    3    3  503    0  0.10291305751E+03 -0.17087882097E+02  0.80442662874E+03  0.81117654314E+03  0.47000000000E+01 0. -1.
         11    1    6    6    0    0 -0.53850707903E+02 -0.37380051090E+02  0.60497463261E+02  0.89202634614E+02  0.00000000000E+00 0. -1.
        -12    1    6    6    0    0 -0.21353526988E+02  0.22657013200E+02 -0.38017662856E+01  0.31365056812E+02  0.00000000000E+00 0.  1.
         -5    1    5    5    0  501 -0.79275506790E+01  0.52320061534E+02  0.17484712693E+03  0.18273982241E+03  0.47000000000E+01 0.  1.
<mgrwt>
<rscale>  2 0.19585046E+03</rscale>
<asrwt>0</asrwt>
<pdfrwt beam="1">  1        2 0.29808592E+00 0.19585046E+03</pdfrwt>
<pdfrwt beam="2">  1       -2 0.64030980E-02 0.19585046E+03</pdfrwt>
<totfact> 0.10827857E+03</totfact>
</mgrwt>
</event>
<event>
12    1  0.5759937E-002  0.1832968E+03  0.7546771E-02  0.1164650E+00
          1   -1    0    0  503    0  0.00000000000E+00  0.00000000000E+00  0.52688867066E+03  0.52688867066E+03  0.00000000000E+00 0.  1.
         -1   -1    0    0    0  501 -0.00000000000E+00 -0.00000000000E+00 -0.10500377357E+03  0.10500377357E+03  0.00000000000E+00 0. -1.
          6    2    1    2  503    0 -0.37375916339E+02 -0.49901888761E+02  0.40831010256E+03  0.44720166871E+03  0.17142063765E+03 0.  0.
         24    2    3    3    0    0 -0.23433974776E+02 -0.14049836048E+02  0.39814076339E+03  0.40713606154E+03  0.80604938238E+02 0.  0.
         -6    2    1    2    0  501  0.37375916339E+02  0.49901888761E+02  0.13574794529E+02  0.18469077552E+03  0.17331834840E+03 0.  0.
        -24    2    5    5    0    0  0.88228664171E+02  0.12329759159E+02  0.19422078472E+02  0.12102015738E+03  0.79576009063E+02 0.  0.
          4    1    4    4  502    0  0.20812993676E+02  0.20310254724E+02  0.13345725967E+03  0.13658889893E+03  0.00000000000E+00 0. -1.
         -3    1    4    4    0  502 -0.44246968452E+02 -0.34360090772E+02  0.26468350372E+03  0.27054716261E+03  0.00000000000E+00 0.  1.
          5    1    3    3  503    0 -0.13941941563E+02 -0.35852052712E+02  0.10169339175E+02  0.40065607165E+02  0.47000000000E+01 0. -1.
         13    1    6    6    0    0  0.41276953725E+02  0.31960299861E+01 -0.30848548722E+02  0.51629782827E+02  0.00000000000E+00 0. -1.
        -14    1    6    6    0    0  0.46951710447E+02  0.91337291726E+01  0.50270627194E+02  0.69390374556E+02  0.00000000000E+00 0.  1.
         -5    1    5    5    0  501 -0.50852747832E+02  0.37572129602E+02 -0.58472839432E+01  0.63670618141E+02  0.47000000000E+01 0.  1.
<mgrwt>
<rscale>  2 0.18329678E+03</rscale>
<asrwt>0</asrwt>
<pdfrwt beam="1">  1        1 0.81059794E-01 0.18329678E+03</pdfrwt>
<pdfrwt beam="2">  1       -1 0.16154427E-01 0.18329678E+03</pdfrwt>
<totfact> 0.11976111E+03</totfact>
</mgrwt>
</event>
<event>
12    1  0.5759937E-002  0.2137908E+03  0.7546771E-02  0.1138599E+00
          1   -1    0    0  503    0  0.00000000000E+00  0.00000000000E+00  0.12367602996E+04  0.12367602996E+04  0.00000000000E+00 0. -1.
         -1   -1    0    0    0  501 -0.00000000000E+00 -0.00000000000E+00 -0.37143246305E+02  0.37143246305E+02  0.00000000000E+00 0.  1.
          6    2    1    2  503    0 -0.47236782468E+02  0.11763917602E+03  0.55863315577E+03  0.59863324255E+03  0.17384034918E+03 0.  0.
         24    2    3    3    0    0  0.27007937158E+02  0.22127325490E+02  0.16516422700E+03  0.18696021708E+03  0.80348327237E+02 0.  0.
         -6    2    1    2    0  501  0.47236782468E+02 -0.11763917602E+03  0.64098389748E+03  0.67527030332E+03  0.17046799218E+03 0.  0.
        -24    2    5    5    0    0  0.32923169173E+02 -0.12855416735E+03  0.34299845778E+03  0.37670468434E+03  0.81537526028E+02 0.  0.
          4    1    4    4  502    0  0.54092669804E+02  0.16501221096E+02  0.84449796650E+02  0.10163697840E+03  0.00000000000E+00 0. -1.
         -3    1    4    4    0  502 -0.27084732646E+02  0.56261043942E+01  0.80714430346E+02  0.85323238683E+02  0.00000000000E+00 0.  1.
          5    1    3    3  503    0 -0.74244719626E+02  0.95511850527E+02  0.39346892878E+03  0.41167302547E+03  0.47000000000E+01 0. -1.
         13    1    6    6    0    0  0.49546580339E+02 -0.84513134155E+02  0.28855830580E+03  0.30473468676E+03  0.00000000000E+00 0. -1.
        -14    1    6    6    0    0 -0.16623411166E+02 -0.44041033197E+02  0.54440151978E+02  0.71969997577E+02  0.00000000000E+00 0.  1.
         -5    1    5    5    0  501  0.14313613295E+02  0.10914991335E+02  0.29798543970E+03  0.29856561898E+03  0.47000000000E+01 0.  1.
<mgrwt>
<rscale>  2 0.21379079E+03</rscale>
<asrwt>0</asrwt>
<pdfrwt beam="1">  1        1 0.19027078E+00 0.21379079E+03</pdfrwt>
<pdfrwt beam="2">  1       -1 0.57143465E-02 0.21379079E+03</pdfrwt>
<totfact> 0.15538217E+03</totfact>
</mgrwt>
</event>
<event>
12    1  0.5759937E-002  0.1727983E+03  0.7546771E-02  0.1174961E+00
         -1   -1    0    0    0  501 -0.00000000000E+00  0.00000000000E+00  0.78049467207E+02  0.78049467207E+02  0.00000000000E+00 0.  1.
          1   -1    0    0  503    0  0.00000000000E+00 -0.00000000000E+00 -0.40150236239E+03  0.40150236239E+03  0.00000000000E+00 0. -1.
          6    2    1    2  503    0  0.48153162493E+01  0.54611827784E+01 -0.21385040280E+03  0.27497686426E+03  0.17270573040E+03 0.  0.
         24    2    3    3    0    0  0.58723462588E+02 -0.29064092825E+02 -0.97544256962E+02  0.14213375207E+03  0.79962208952E+02 0.  0.
         -6    2    1    2    0  501 -0.48153162493E+01 -0.54611827784E+01 -0.10960249238E+03  0.20457496534E+03  0.17258388777E+03 0.  0.
        -24    2    5    5    0    0  0.23172955664E+02 -0.13722669739E+02 -0.13374913810E+03  0.16640762287E+03  0.95275219576E+02 0.  0.
          2    1    4    4  502    0  0.43964443365E+02 -0.52243289965E+02 -0.91205855024E+02  0.11393305761E+03  0.00000000000E+00 0. -1.
         -1    1    4    4    0  502  0.14759019223E+02  0.23179197140E+02 -0.63384019378E+01  0.28200694453E+02  0.00000000000E+00 0.  1.
          5    1    3    3  503    0 -0.53908146339E+02  0.34525275603E+02 -0.11630614584E+03  0.13284311219E+03  0.47000000000E+01 0. -1.
         13    1    6    6    0    0  0.41989049732E+02  0.26962060245E+02 -0.94329903012E+02  0.10671533907E+03  0.00000000000E+00 0. -1.
        -14    1    6    6    0    0 -0.18816094068E+02 -0.40684729984E+02 -0.39419235092E+02  0.59692283798E+02  0.00000000000E+00 0.  1.
         -5    1    5    5    0  501 -0.27988271913E+02  0.82614869608E+01  0.24146645723E+02  0.38167342469E+02  0.47000000000E+01 0.  1.
<mgrwt>
<rscale>  2 0.17279826E+03</rscale>
<asrwt>0</asrwt>
<pdfrwt beam="2">  1        1 0.61769595E-01 0.17279826E+03</pdfrwt>
<pdfrwt beam="1">  1       -1 0.12007610E-01 0.17279826E+03</pdfrwt>
<totfact> 0.27114130E+03</totfact>
</mgrwt>
</event>
<event>
12    1  0.5759937E-002  0.1920944E+03  0.7546771E-02  0.1156586E+00
          2   -1    0    0  503    0  0.00000000000E+00  0.00000000000E+00  0.39794993480E+03  0.39794993480E+03  0.00000000000E+00 0.  1.
         -2   -1    0    0    0  501 -0.00000000000E+00 -0.00000000000E+00 -0.12803646523E+03  0.12803646523E+03  0.00000000000E+00 0. -1.
          6    2    1    2  503    0 -0.82333372354E+02  0.17822867086E+02  0.27281225754E+03  0.33336945539E+03  0.17208203604E+03 0.  0.
         24    2    3    3    0    0 -0.68851161782E+02  0.75906914091E+02  0.20558177345E+03  0.24338304247E+03  0.80430701246E+02 0.  0.
         -6    2    1    2    0  501  0.82333372354E+02 -0.17822867086E+02 -0.28987879653E+01  0.19261694464E+03  0.17319481977E+03 0.  0.
        -24    2    5    5    0    0 -0.12610729392E+01 -0.51699666719E+02  0.25557076505E+02  0.97920085872E+02  0.79124795190E+02 0.  0.
          2    1    4    4  502    0  0.13628581600E+02  0.32556875164E+02  0.75821644193E+02  0.83633785548E+02  0.00000000000E+00 0. -1.
         -1    1    4    4    0  502 -0.82479743382E+02  0.43350038927E+02  0.12976012925E+03  0.15974925692E+03  0.00000000000E+00 0.  1.
          5    1    3    3  503    0 -0.13482210572E+02 -0.58084047006E+02  0.67230484095E+02  0.89986412919E+02  0.47000000000E+01 0. -1.
         13    1    6    6    0    0  0.36538866115E+02 -0.38353139818E+02  0.59816176678E+01  0.53308834360E+02  0.00000000000E+00 0. -1.
        -14    1    6    6    0    0 -0.37799939054E+02 -0.13346526901E+02  0.19575458837E+02  0.44611251513E+02  0.00000000000E+00 0.  1.
         -5    1    5    5    0  501  0.83594445294E+02  0.33876799634E+02 -0.28455864470E+02  0.94696858766E+02  0.47000000000E+01 0.  1.
<mgrwt>
<rscale>  2 0.19209444E+03</rscale>
<asrwt>0</asrwt>
<pdfrwt beam="1">  1        2 0.61223066E-01 0.19209444E+03</pdfrwt>
<pdfrwt beam="2">  1       -2 0.19697918E-01 0.19209444E+03</pdfrwt>
<totfact> 0.17176404E+03</totfact>
</mgrwt>
</event>
<event>
12    1  0.5759937E-002  0.2002515E+03  0.7546771E-02  0.1149527E+00
          2   -1    0    0  503    0  0.00000000000E+00  0.00000000000E+00  0.23457023332E+04  0.23457023332E+04  0.00000000000E+00 0. -1.
         -2   -1    0    0    0  501 -0.00000000000E+00 -0.00000000000E+00 -0.18141500667E+02  0.18141500667E+02  0.00000000000E+00 0.  1.
          6    2    1    2  503    0 -0.77625298721E+02  0.57762655561E+02  0.14347139128E+04  0.14483080934E+04  0.17271395505E+03 0.  0.
         24    2    3    3    0    0 -0.26212130646E+02 -0.49360618094E+01  0.38687136436E+03  0.39732258472E+03  0.86512098949E+02 0.  0.
         -6    2    1    2    0  501  0.77625298721E+02 -0.57762655561E+02  0.89284691972E+03  0.91553574052E+03  0.17795465358E+03 0.  0.
        -24    2    5    5    0    0  0.10277788531E+03 -0.25497760560E+02  0.40983750202E+03  0.43077408398E+03  0.79913101950E+02 0.  0.
          4    1    4    4  502    0 -0.43568488158E+02 -0.33873937655E+02  0.27456332525E+03  0.28005477390E+03  0.00000000000E+00 0. -1.
         -3    1    4    4    0  502  0.17356357512E+02  0.28937875846E+02  0.11230803911E+03  0.11726781081E+03  0.00000000000E+00 0.  1.
          5    1    3    3  503    0 -0.51413168075E+02  0.62698717371E+02  0.10478425485E+04  0.10509855087E+04  0.47000000000E+01 0. -1.
         11    1    6    6    0    0  0.62892508693E+02 -0.50645449319E+02  0.31028238353E+03  0.32061750843E+03  0.00000000000E+00 0. -1.
        -12    1    6    6    0    0  0.39885376619E+02  0.25147688759E+02  0.99555118493E+02  0.11015657555E+03  0.00000000000E+00 0.  1.
         -5    1    5    5    0  501 -0.25152586591E+02 -0.32264895002E+02  0.48300941770E+03  0.48476165654E+03  0.47000000000E+01 0.  1.
<mgrwt>
<rscale>  2 0.20025152E+03</rscale>
<asrwt>0</asrwt>
<pdfrwt beam="1">  1        2 0.36087704E+00 0.20025152E+03</pdfrwt>
<pdfrwt beam="2">  1       -2 0.27910020E-02 0.20025152E+03</pdfrwt>
<totfact> 0.23067998E+03</totfact>
</mgrwt>
</event>
<event>
12    1  0.5759937E-002  0.2003176E+03  0.7546771E-02  0.1149471E+00
         -4   -1    0    0    0  501 -0.00000000000E+00  0.00000000000E+00  0.26915744364E+03  0.26915744364E+03  0.00000000000E+00 0. -1.
          4   -1    0    0  503    0  0.00000000000E+00 -0.00000000000E+00 -0.15634557993E+03  0.15634557993E+03  0.00000000000E+00 0.  1.
          6    2    1    2  503    0  0.97201343010E+02  0.21094306871E+02  0.10660069767E+02  0.20098093363E+03  0.17431760590E+03 0.  0.
         24    2    3    3    0    0  0.10066582951E+03 -0.27342533622E+02  0.39522131835E+02  0.14429549625E+03  0.91531240332E+02 0.  0.
         -6    2    1    2    0  501 -0.97201343010E+02 -0.21094306871E+02  0.10215179394E+03  0.22452208995E+03  0.17344194708E+03 0.  0.
        -24    2    5    5    0    0 -0.34303346856E+02  0.17800436575E+02  0.11549236740E+03  0.14922919595E+03  0.86239728939E+02 0.  0.
          4    1    4    4  502    0  0.72741290979E+02 -0.58722469978E+02  0.41411240993E+02  0.10224732160E+03  0.00000000000E+00 0. -1.
         -3    1    4    4    0  502  0.27924538534E+02  0.31379936356E+02 -0.18891091579E+01  0.42048174651E+02  0.00000000000E+00 0.  1.
          5    1    3    3  503    0 -0.34644865036E+01  0.48436840493E+02 -0.28862062068E+02  0.56685437376E+02  0.47000000000E+01 0. -1.
         13    1    6    6    0    0 -0.41436711360E+02 -0.33286315727E+01  0.11866263133E+02  0.43230649280E+02  0.00000000000E+00 0. -1.
        -14    1    6    6    0    0  0.71333645039E+01  0.21129068148E+02  0.10362610427E+03  0.10599854667E+03  0.00000000000E+00 0.  1.
         -5    1    5    5    0  501 -0.62897996154E+02 -0.38894743446E+02 -0.13340573456E+02  0.75292894008E+02  0.47000000000E+01 0.  1.
<mgrwt>
<rscale>  2 0.20031762E+03</rscale>
<asrwt>0</asrwt>
<pdfrwt beam="2">  1        4 0.24053166E-01 0.20031762E+03</pdfrwt>
<pdfrwt beam="1">  1       -4 0.41408837E-01 0.20031762E+03</pdfrwt>
<totfact> 0.16247480E+02</totfact>
</mgrwt>
</event>
<event>
12    1  0.5759937E-002  0.2264572E+03  0.7546771E-02  0.1129158E+00
         -2   -1    0    0    0  501 -0.00000000000E+00  0.00000000000E+00  0.18944413101E+03  0.18944413101E+03  0.00000000000E+00 0.  1.
          2   -1    0    0  503    0  0.00000000000E+00 -0.00000000000E+00 -0.27686292516E+03  0.27686292516E+03  0.00000000000E+00 0. -1.
          6    2    1    2  503    0 -0.10343353867E+03 -0.97191085254E+02 -0.78915209083E+02  0.24263111899E+03  0.18027103400E+03 0.  0.
         24    2    3    3    0    0  0.81820881282E+01 -0.67242968947E+02 -0.72579973175E+01  0.10657310263E+03  0.81954769479E+02 0.  0.
         -6    2    1    2    0  501  0.10343353867E+03  0.97191085254E+02 -0.85035850700E+01  0.22367593718E+03  0.17266733895E+03 0.  0.
        -24    2    5    5    0    0  0.20550770367E+02 -0.12926724977E+02  0.20484748162E+02  0.82757879870E+02  0.76418632492E+02 0.  0.
          4    1    4    4  502    0  0.37374486972E+02 -0.20612178634E+02 -0.24128694468E+02  0.49029665318E+02  0.00000000000E+00 0. -1.
         -3    1    4    4    0  502 -0.29192398844E+02 -0.46630790313E+02  0.16870697150E+02  0.57543437313E+02  0.00000000000E+00 0.  1.
          5    1    3    3  503    0 -0.11161562680E+03 -0.29948116307E+02 -0.71657211766E+02  0.13605801636E+03  0.47000000000E+01 0. -1.
         11    1    6    6    0    0  0.30588944097E+02  0.18815505322E+02 -0.10356502174E+02  0.37375979971E+02  0.00000000000E+00 0. -1.
        -12    1    6    6    0    0 -0.10038173729E+02 -0.31742230299E+02  0.30841250336E+02  0.45381899899E+02  0.00000000000E+00 0.  1.
         -5    1    5    5    0  501  0.82882768307E+02  0.11011781023E+03 -0.28988333232E+02  0.14091805731E+03  0.47000000000E+01 0.  1.
<mgrwt>
<rscale>  2 0.22645724E+03</rscale>
<asrwt>0</asrwt>
<pdfrwt beam="2">  1        2 0.42594296E-01 0.22645724E+03</pdfrwt>
<pdfrwt beam="1">  1       -2 0.29145251E-01 0.22645724E+03</pdfrwt>
<totfact> 0.12820638E+03</totfact>
</mgrwt>
</event>
<event>
12    1  0.5759937E-002  0.2184868E+03  0.7546771E-02  0.1135016E+00
         -1   -1    0    0    0  501 -0.00000000000E+00  0.00000000000E+00  0.72953205866E+02  0.72953205866E+02  0.00000000000E+00 0. -1.
          1   -1    0    0  503    0  0.00000000000E+00 -0.00000000000E+00 -0.65646323814E+03  0.65646323814E+03  0.00000000000E+00 0.  1.
          6    2    1    2  503    0  0.89802866265E+02  0.10386570278E+03 -0.30970711745E+03  0.37793187464E+03  0.16751526577E+03 0.  0.
         24    2    3    3    0    0  0.23272257755E+02 -0.43610792642E+01 -0.16162829049E+03  0.18276838622E+03  0.81975372636E+02 0.  0.
         -6    2    1    2    0  501 -0.89802866265E+02 -0.10386570278E+03 -0.27380291483E+03  0.35148456938E+03  0.17239700501E+03 0.  0.
        -24    2    5    5    0    0 -0.18871694699E+02 -0.53447258880E+02 -0.48420064843E+02  0.10983861006E+03  0.80667634386E+02 0.  0.
          2    1    4    4  502    0  0.16900617575E+02  0.37829411594E+02 -0.95084308276E+02  0.10371943374E+03  0.00000000000E+00 0. -1.
         -1    1    4    4    0  502  0.63716401796E+01 -0.42190490858E+02 -0.66543982216E+02  0.79048952470E+02  0.00000000000E+00 0.  1.
          5    1    3    3  503    0  0.66530608510E+02  0.10822678205E+03 -0.14807882695E+03  0.19516348842E+03  0.47000000000E+01 0. -1.
         13    1    6    6    0    0 -0.16381658519E+02  0.12538261341E+02  0.88339712739E+01  0.22441162666E+02  0.00000000000E+00 0. -1.
        -14    1    6    6    0    0 -0.24900361793E+01 -0.65985520221E+02 -0.57254036116E+02  0.87397447392E+02  0.00000000000E+00 0.  1.
         -5    1    5    5    0  501 -0.70931171566E+02 -0.50418443902E+02 -0.22538284999E+03  0.24164595932E+03  0.47000000000E+01 0.  1.
<mgrwt>
<rscale>  2 0.21848679E+03</rscale>
<asrwt>0</asrwt>
<pdfrwt beam="2">  1        1 0.10099435E+00 0.21848679E+03</pdfrwt>
<pdfrwt beam="1">  1       -1 0.11223570E-01 0.21848679E+03</pdfrwt>
<totfact> 0.15712765E+03</totfact>
</mgrwt>
</event>
<event>
12    1  0.5759937E-002  0.2414146E+03  0.7546771E-02  0.1118854E+00
         -2   -1    0    0    0  501 -0.00000000000E+00  0.00000000000E+00  0.64672267581E+03  0.64672267581E+03  0.00000000000E+00 0.  1.
          2   -1    0    0  503    0  0.00000000000E+00 -0.00000000000E+00 -0.22744219153E+03  0.22744219153E+03  0.00000000000E+00 0. -1.
          6    2    1    2  503    0  0.16402724529E+03 -0.67888993506E+01  0.55030914891E+03  0.60219962872E+03  0.18125453680E+03 0.  0.
         24    2    3    3    0    0  0.33379448077E+02  0.13862741460E+02  0.35744239884E+03  0.36828722959E+03  0.81018836318E+02 0.  0.
         -6    2    1    2    0  501 -0.16402724529E+03  0.67888993506E+01 -0.13102866462E+03  0.27196523862E+03  0.17275865743E+03 0.  0.
        -24    2    5    5    0    0 -0.14994029964E+03  0.14597445742E+02 -0.16294042119E+03  0.23591158913E+03  0.80059466332E+02 0.  0.
          4    1    4    4  502    0 -0.26623064070E+02  0.10175667155E+02  0.12319801788E+03  0.12645190133E+03  0.00000000000E+00 0. -1.
         -3    1    4    4    0  502  0.60002512147E+02  0.36870743052E+01  0.23424438096E+03  0.24183532826E+03  0.00000000000E+00 0.  1.
          5    1    3    3  503    0  0.13064779721E+03 -0.20651640811E+02  0.19286675007E+03  0.23391239913E+03  0.47000000000E+01 0. -1.
         11    1    6    6    0    0 -0.71722147197E+02  0.63814510743E+01 -0.23362768949E+02  0.75700781300E+02  0.00000000000E+00 0. -1.
        -12    1    6    6    0    0 -0.78218152441E+02  0.82159946678E+01 -0.13957765224E+03  0.16021080783E+03  0.00000000000E+00 0.  1.
         -5    1    5    5    0  501 -0.14086945652E+02 -0.78085463916E+01  0.31911756570E+02  0.36053649495E+02  0.47000000000E+01 0.  1.
<mgrwt>
<rscale>  2 0.24141460E+03</rscale>
<asrwt>0</asrwt>
<pdfrwt beam="2">  1        2 0.34991107E-01 0.24141460E+03</pdfrwt>
<pdfrwt beam="1">  1       -2 0.99495796E-01 0.24141460E+03</pdfrwt>
<totfact> 0.12960929E+02</totfact>
</mgrwt>
</event>
<event>
12    1  0.5759937E-002  0.2270055E+03  0.7546771E-02  0.1128765E+00
          4   -1    0    0  503    0  0.00000000000E+00  0.00000000000E+00  0.33798079856E+03  0.33798079856E+03  0.00000000000E+00 0. -1.
         -4   -1    0    0    0  501 -0.00000000000E+00 -0.00000000000E+00 -0.26396495985E+03  0.26396495985E+03  0.00000000000E+00 0.  1.
          6    2    1    2  503    0 -0.14416712124E+03  0.26993044405E+02  0.23255301772E+03  0.32453387701E+03  0.17241968560E+03 0.  0.
         24    2    3    3    0    0 -0.16586214851E+03  0.42124681089E+02  0.22929595388E+03  0.29747211244E+03  0.81414262539E+02 0.  0.
         -6    2    1    2    0  501  0.14416712124E+03 -0.26993044405E+02 -0.15853717901E+03  0.27741188141E+03  0.17409920024E+03 0.  0.
        -24    2    5    5    0    0  0.35096163693E+02 -0.64775611289E+02 -0.10168887912E+03  0.14865701610E+03  0.79565443341E+02 0.  0.
          2    1    4    4  502    0 -0.70190516810E+02  0.35964706755E+01  0.15551984112E+03  0.17066359961E+03  0.00000000000E+00 0. -1.
         -1    1    4    4    0  502 -0.95671631698E+02  0.38528210413E+02  0.73776112765E+02  0.12680851282E+03  0.00000000000E+00 0.  1.
          5    1    3    3  503    0  0.21695027268E+02 -0.15131636684E+02  0.32570638372E+01  0.27061764571E+02  0.47000000000E+01 0. -1.
         11    1    6    6    0    0  0.30256392851E+02 -0.49643290727E+02 -0.11439049995E+03  0.12831637503E+03  0.00000000000E+00 0. -1.
        -12    1    6    6    0    0  0.48397708419E+01 -0.15132320562E+02  0.12701620827E+02  0.20340641067E+02  0.00000000000E+00 0.  1.
         -5    1    5    5    0  501  0.10907095755E+03  0.37782566884E+02 -0.56848299889E+02  0.12875486531E+03  0.47000000000E+01 0.  1.
<mgrwt>
<rscale>  2 0.22700551E+03</rscale>
<asrwt>0</asrwt>
<pdfrwt beam="1">  1        4 0.51997046E-01 0.22700551E+03</pdfrwt>
<pdfrwt beam="2">  1       -4 0.40609994E-01 0.22700551E+03</pdfrwt>
<totfact> 0.38041192E+01</totfact>
</mgrwt>
</event>
<event>
12    1  0.5759937E-002  0.2113210E+03  0.7546771E-02  0.1140524E+00
         -2   -1    0    0    0  501 -0.00000000000E+00  0.00000000000E+00  0.21893346442E+02  0.21893346442E+02  0.00000000000E+00 0. -1.
          2   -1    0    0  503    0  0.00000000000E+00 -0.00000000000E+00 -0.20397521352E+04  0.20397521352E+04  0.00000000000E+00 0.  1.
          6    2    1    2  503    0  0.11456059255E+03  0.39478788908E+02 -0.10062693293E+04  0.10282383640E+04  0.17324394982E+03 0.  0.
         24    2    3    3    0    0  0.11026462452E+03  0.82232086472E+02 -0.64636139654E+03  0.66574407467E+03  0.80695195380E+02 0.  0.
         -6    2    1    2    0  501 -0.11456059255E+03 -0.39478788908E+02 -0.10115894595E+04  0.10334071176E+04  0.17301540969E+03 0.  0.
        -24    2    5    5    0    0 -0.20288783969E+02  0.11766803199E+02 -0.23687406078E+03  0.25128224034E+03  0.80519259993E+02 0.  0.
          2    1    4    4  502    0  0.12258271174E+03  0.66398380306E+02 -0.56365699366E+03  0.58064143206E+03  0.00000000000E+00 0. -1.
         -1    1    4    4    0  502 -0.12318087216E+02  0.15833706166E+02 -0.82704402878E+02  0.85102642609E+02  0.00000000000E+00 0.  1.
          5    1    3    3  503    0  0.42959680295E+01 -0.42753297565E+02 -0.35990793272E+03  0.36249428937E+03  0.47000000000E+01 0. -1.
         11    1    6    6    0    0 -0.32086866538E+02  0.41151955079E+02 -0.14990362062E+03  0.15872663887E+03  0.00000000000E+00 0. -1.
        -12    1    6    6    0    0  0.11798082569E+02 -0.29385151880E+02 -0.86970440157E+02  0.92555601475E+02  0.00000000000E+00 0.  1.
         -5    1    5    5    0  501 -0.94271808585E+02 -0.51245592106E+02 -0.77471539876E+03  0.78212487730E+03  0.47000000000E+01 0.  1.
<mgrwt>
<rscale>  2 0.21132105E+03</rscale>
<asrwt>0</asrwt>
<pdfrwt beam="2">  1        2 0.31380803E+00 0.21132105E+03</pdfrwt>
<pdfrwt beam="1">  1       -2 0.33682070E-02 0.21132105E+03</pdfrwt>
<totfact> 0.25265693E+03</totfact>
</mgrwt>
</event>
<event>
12    1  0.5759937E-002  0.2105660E+03  0.7546771E-02  0.1141119E+00
         -2   -1    0    0    0  501 -0.00000000000E+00  0.00000000000E+00  0.94305070604E+02  0.94305070604E+02  0.00000000000E+00 0. -1.
          2   -1    0    0  503    0  0.00000000000E+00 -0.00000000000E+00 -0.47591700129E+03  0.47591700129E+03  0.00000000000E+00 0.  1.
          6    2    1    2  503    0 -0.93052233546E+02 -0.70551973065E+02 -0.22373520428E+03  0.30851727321E+03  0.17745187280E+03 0.  0.
         24    2    3    3    0    0 -0.32023131087E+02 -0.90255407785E+02 -0.73463036901E+02  0.14506516715E+03  0.80470897654E+02 0.  0.
         -6    2    1    2    0  501  0.93052233546E+02  0.70551973065E+02 -0.15787672640E+03  0.26170479868E+03  0.17299723074E+03 0.  0.
        -24    2    5    5    0    0  0.71926612292E+02  0.53117062714E+02 -0.18629553720E+03  0.22195575115E+03  0.81015235483E+02 0.  0.
          2    1    4    4  502    0 -0.24664427687E+02 -0.77294352734E+02 -0.12237776635E+02  0.82051899031E+02  0.00000000000E+00 0. -1.
         -1    1    4    4    0  502 -0.73587033995E+01 -0.12961055051E+02 -0.61225260267E+02  0.63013268115E+02  0.00000000000E+00 0.  1.
          5    1    3    3  503    0 -0.61029102460E+02  0.19703434720E+02 -0.15027216738E+03  0.16345210606E+03  0.47000000000E+01 0. -1.
         13    1    6    6    0    0  0.32400443416E+02  0.47172081444E+02 -0.38801208090E+02  0.69141360636E+02  0.00000000000E+00 0. -1.
        -14    1    6    6    0    0  0.39526168876E+02  0.59449812704E+01 -0.14749432911E+03  0.15281439052E+03  0.00000000000E+00 0.  1.
         -5    1    5    5    0  501  0.21125621254E+02  0.17434910351E+02  0.28418810801E+02  0.39749047532E+02  0.47000000000E+01 0.  1.
<mgrwt>
<rscale>  2 0.21056598E+03</rscale>
<asrwt>0</asrwt>
<pdfrwt beam="2">  1        2 0.73218002E-01 0.21056598E+03</pdfrwt>
<pdfrwt beam="1">  1       -2 0.14508472E-01 0.21056598E+03</pdfrwt>
<totfact> 0.23603173E+03</totfact>
</mgrwt>
</event>
<event>
12    1  0.5759937E-002  0.1970116E+03  0.7546771E-02  0.1152285E+00
         -2   -1    0    0    0  501 -0.00000000000E+00  0.00000000000E+00  0.24892369300E+02  0.24892369300E+02  0.00000000000E+00 0.  1.
          2   -1    0    0  503    0  0.00000000000E+00 -0.00000000000E+00 -0.15754673756E+04  0.15754673756E+04  0.00000000000E+00 0. -1.
          6    2    1    2  503    0  0.25689577289E+02  0.91839315109E+02 -0.69791522041E+03  0.72544879538E+03  0.17348165800E+03 0.  0.
         24    2    3    3    0    0  0.50426361305E+02  0.29957459036E+02 -0.20245784523E+03  0.22550742560E+03  0.80150811860E+02 0.  0.
         -6    2    1    2    0  501 -0.25689577289E+02 -0.91839315109E+02 -0.85265978593E+03  0.87491094956E+03  0.17130687357E+03 0.  0.
        -24    2    5    5    0    0 -0.70638483573E+02 -0.18421017214E+02 -0.51436216754E+03  0.52580062423E+03  0.81047688475E+02 0.  0.
          2    1    4    4  502    0  0.72556469884E+02  0.23406448195E+02 -0.15600575081E+03  0.17363783409E+03  0.00000000000E+00 0. -1.
         -1    1    4    4    0  502 -0.22130108579E+02  0.65510108410E+01 -0.46452094412E+02  0.51869591516E+02  0.00000000000E+00 0.  1.
          5    1    3    3  503    0 -0.24736784016E+02  0.61881856073E+02 -0.49545737518E+03  0.49994136978E+03  0.47000000000E+01 0. -1.
         13    1    6    6    0    0 -0.10933064720E+02 -0.25025360246E+02 -0.34540295058E+03  0.34648087802E+03  0.00000000000E+00 0. -1.
        -14    1    6    6    0    0 -0.59705418852E+02  0.66043430320E+01 -0.16895921696E+03  0.17931974621E+03  0.00000000000E+00 0.  1.
         -5    1    5    5    0  501  0.44948906284E+02 -0.73418297895E+02 -0.33829761839E+03  0.34911032533E+03  0.47000000000E+01 0.  1.
<mgrwt>
<rscale>  2 0.19701160E+03</rscale>
<asrwt>0</asrwt>
<pdfrwt beam="2">  1        2 0.24237957E+00 0.19701160E+03</pdfrwt>
<pdfrwt beam="1">  1       -2 0.38295957E-02 0.19701160E+03</pdfrwt>
<totfact> 0.36400758E+03</totfact>
</mgrwt>
</event>
<event>
12    1  0.5759937E-002  0.2360747E+03  0.7546771E-02  0.1122436E+00
         -2   -1    0    0    0  501 -0.00000000000E+00  0.00000000000E+00  0.14150679606E+03  0.14150679606E+03  0.00000000000E+00 0.  1.
          2   -1    0    0  503    0  0.00000000000E+00 -0.00000000000E+00 -0.57838423543E+03  0.57838423543E+03  0.00000000000E+00 0. -1.
          6    2    1    2  503    0  0.15132870788E+03  0.44441540994E+02 -0.16826470848E+02  0.23933235509E+03  0.17922448962E+03 0.  0.
         24    2    3    3    0    0  0.54581066305E+02  0.36476458709E+02 -0.78588933686E+02  0.12417923746E+03  0.70246976293E+02 0.  0.
         -6    2    1    2    0  501 -0.15132870788E+03 -0.44441540994E+02 -0.42005096852E+03  0.48055867640E+03  0.17209996198E+03 0.  0.
        -24    2    5    5    0    0 -0.68214630826E+02 -0.77149335398E+02 -0.32340204416E+03  0.34887399924E+03  0.80739887093E+02 0.  0.
          4    1    4    4  502    0  0.25218456387E+02  0.18407088146E+02 -0.83692512879E+02  0.89326525447E+02  0.00000000000E+00 0. -1.
         -3    1    4    4    0  502  0.29362609918E+02  0.18069370563E+02  0.51035791927E+01  0.34852712009E+02  0.00000000000E+00 0.  1.
          5    1    3    3  503    0  0.96747641571E+02  0.79650822846E+01  0.61762462838E+02  0.11515311763E+03  0.47000000000E+01 0. -1.
         11    1    6    6    0    0 -0.86238937506E+02 -0.70958131880E+02 -0.28137245128E+03  0.30272539894E+03  0.00000000000E+00 0. -1.
        -12    1    6    6    0    0  0.18024306680E+02 -0.61912035180E+01 -0.42029592875E+02  0.46148600299E+02  0.00000000000E+00 0.  1.
         -5    1    5    5    0  501 -0.83114077050E+02  0.32707794404E+02 -0.96648924362E+02  0.13168467716E+03  0.47000000000E+01 0.  1.
<mgrwt>
<rscale>  2 0.23607475E+03</rscale>
<asrwt>0</asrwt>
<pdfrwt beam="2">  1        2 0.88982189E-01 0.23607475E+03</pdfrwt>
<pdfrwt beam="1">  1       -2 0.21770277E-01 0.23607475E+03</pdfrwt>
<totfact> 0.95726191E+02</totfact>
</mgrwt>
</event>
<event>
12    1  0.5759937E-002  0.2048328E+03  0.7546771E-02  0.1145724E+00
          2   -1    0    0  503    0  0.00000000000E+00  0.00000000000E+00  0.37844666637E+04  0.37844666637E+04  0.00000000000E+00 0.  1.
         -2   -1    0    0    0  501 -0.00000000000E+00 -0.00000000000E+00 -0.13860837397E+02  0.13860837397E+02  0.00000000000E+00 0. -1.
          6    2    1    2  503    0  0.88627096544E+02  0.62429236283E+02  0.27333025469E+04  0.27409499980E+04  0.17352782665E+03 0.  0.
         24    2    3    3    0    0  0.23907792436E+02  0.97162021375E+02  0.14616615989E+04  0.14671808880E+04  0.78441619477E+02 0.  0.
         -6    2    1    2    0  501 -0.88627096544E+02 -0.62429236283E+02  0.10373032794E+04  0.10573775031E+04  0.17406010141E+03 0.  0.
        -24    2    5    5    0    0  0.28964333090E+02  0.32630977255E+01  0.34707290544E+03  0.35411134711E+03  0.63919199512E+02 0.  0.
          2    1    4    4  502    0  0.25577573133E+02  0.42643245876E+02  0.28864957480E+03  0.29290140952E+03  0.00000000000E+00 0. -1.
         -1    1    4    4    0  502 -0.16697806968E+01  0.54518775499E+02  0.11730120241E+04  0.11742794785E+04  0.00000000000E+00 0.  1.
          5    1    3    3  503    0  0.64719304107E+02 -0.34732785091E+02  0.12716409480E+04  0.12737691099E+04  0.47000000000E+01 0. -1.
         11    1    6    6    0    0  0.14023094409E+02 -0.23117999411E+02  0.26904395767E+03  0.27039922380E+03  0.00000000000E+00 0. -1.
        -12    1    6    6    0    0  0.14941238681E+02  0.26381097136E+02  0.78028947767E+02  0.83712123310E+02  0.00000000000E+00 0.  1.
         -5    1    5    5    0  501 -0.11759142963E+03 -0.65692334009E+02  0.69023037397E+03  0.70326615603E+03  0.47000000000E+01 0.  1.
<mgrwt>
<rscale>  2 0.20483282E+03</rscale>
<asrwt>0</asrwt>
<pdfrwt beam="1">  1        2 0.58222482E+00 0.20483282E+03</pdfrwt>
<pdfrwt beam="2">  1       -2 0.21324395E-02 0.20483282E+03</pdfrwt>
<totfact> 0.46451736E+02</totfact>
</mgrwt>
</event>
<event>
12    1  0.5759937E-002  0.2003837E+03  0.7546771E-02  0.1149416E+00
         -2   -1    0    0    0  501 -0.00000000000E+00  0.00000000000E+00  0.49154421431E+03  0.49154421431E+03  0.00000000000E+00 0.  1.
          2   -1    0    0  503    0  0.00000000000E+00 -0.00000000000E+00 -0.81730126782E+02  0.81730126782E+02  0.00000000000E+00 0. -1.
          6    2    1    2  503    0  0.99168376203E+02 -0.59544170020E+01  0.21261452315E+03  0.29333259935E+03  0.17598084119E+03 0.  0.
         24    2    3    3    0    0  0.54394722735E+02 -0.54006310599E+02  0.19582513392E+03  0.22537939403E+03  0.81073551365E+02 0.  0.
         -6    2    1    2    0  501 -0.99168376203E+02  0.59544170020E+01  0.19719956438E+03  0.27994174174E+03  0.17207524127E+03 0.  0.
        -24    2    5    5    0    0 -0.22132339828E+02  0.46418906606E+02  0.15699171168E+03  0.18396941637E+03  0.80955501757E+02 0.  0.
          4    1    4    4  502    0  0.26583522078E+02 -0.72879174871E+02  0.12775476630E+03  0.14946350086E+03  0.00000000000E+00 0. -1.
         -3    1    4    4    0  502  0.27811200657E+02  0.18872864272E+02  0.68070367621E+02  0.75915893171E+02  0.00000000000E+00 0.  1.
          5    1    3    3  503    0  0.44773653468E+02  0.48051893597E+02  0.16789389230E+02  0.67953205324E+02  0.47000000000E+01 0. -1.
         11    1    6    6    0    0 -0.40689115647E+02 -0.38752677493E+01  0.52562430644E+02  0.66584014204E+02  0.00000000000E+00 0. -1.
        -12    1    6    6    0    0  0.18556775819E+02  0.50294174355E+02  0.10442928104E+03  0.11738540216E+03  0.00000000000E+00 0.  1.
         -5    1    5    5    0  501 -0.77036036375E+02 -0.40464489604E+02  0.40207852693E+02  0.95972325372E+02  0.47000000000E+01 0.  1.
<mgrwt>
<rscale>  2 0.20038374E+03</rscale>
<asrwt>0</asrwt>
<pdfrwt beam="2">  1        2 0.12573866E-01 0.20038374E+03</pdfrwt>
<pdfrwt beam="1">  1       -2 0.75622185E-01 0.20038374E+03</pdfrwt>
<totfact> 0.77272598E+02</totfact>
</mgrwt>
</event>
<event>
12    1  0.5759937E-002  0.2451613E+03  0.7546771E-02  0.1116402E+00
          2   -1    0    0  503    0  0.00000000000E+00  0.00000000000E+00  0.17418336649E+04  0.17418336649E+04  0.00000000000E+00 0.  1.
         -2   -1    0    0    0  501 -0.00000000000E+00 -0.00000000000E+00 -0.62542404248E+02  0.62542404248E+02  0.00000000000E+00 0. -1.
          6    2    1    2  503    0  0.11253218455E+03 -0.13330319612E+03  0.23565074849E+03  0.34007113900E+03  0.17229007418E+03 0.  0.
         24    2    3    3    0    0  0.14236149204E+03 -0.12855090871E+03  0.22989880628E+03  0.30896572693E+03  0.76251090114E+02 0.  0.
         -6    2    1    2    0  501 -0.11253218455E+03  0.13330319612E+03  0.14436405122E+04  0.14643049301E+04  0.17221430092E+03 0.  0.
        -24    2    5    5    0    0 -0.10819201360E+03  0.25678006313E+02  0.79104513719E+03  0.80286344974E+03  0.80451463916E+02 0.  0.
          2    1    4    4  502    0  0.12118951102E+03 -0.12104563934E+03  0.22966106535E+03  0.28650156949E+03  0.00000000000E+00 0. -1.
         -1    1    4    4    0  502  0.21171981021E+02 -0.75052693656E+01  0.23774093029E+00  0.22464157437E+02  0.00000000000E+00 0.  1.
          5    1    3    3  503    0 -0.29829307490E+02 -0.47522874183E+01  0.57519422093E+01  0.31105412072E+02  0.47000000000E+01 0. -1.
         13    1    6    6    0    0 -0.11528038084E+03  0.24541117656E+02  0.58826547753E+03  0.59995675237E+03  0.00000000000E+00 0. -1.
        -14    1    6    6    0    0  0.70883672465E+01  0.11368886570E+01  0.20277965966E+03  0.20290669737E+03  0.00000000000E+00 0.  1.
         -5    1    5    5    0  501 -0.43401709525E+01  0.10762518981E+03  0.65259537497E+03  0.66144148040E+03  0.47000000000E+01 0.  1.
<mgrwt>
<rscale>  2 0.24516128E+03</rscale>
<asrwt>0</asrwt>
<pdfrwt beam="1">  1        2 0.26797437E+00 0.24516128E+03</pdfrwt>
<pdfrwt beam="2">  1       -2 0.96219096E-02 0.24516128E+03</pdfrwt>
<totfact> 0.72041274E+02</totfact>
</mgrwt>
</event>
<event>
12    1  0.5759937E-002  0.2535602E+03  0.7546771E-02  0.1111075E+00
         -2   -1    0    0    0  501 -0.00000000000E+00  0.00000000000E+00  0.10281421243E+03  0.10281421243E+03  0.00000000000E+00 0.  1.
          2   -1    0    0  503    0  0.00000000000E+00 -0.00000000000E+00 -0.13050549135E+04  0.13050549135E+04  0.00000000000E+00 0. -1.
          6    2    1    2  503    0 -0.16118019339E+03  0.90247663964E+02 -0.92622249418E+02  0.26955540265E+03  0.17308246133E+03 0.  0.
         24    2    3    3    0    0 -0.18952693473E+03  0.70625415061E+02 -0.88097697698E+02  0.23446791250E+03  0.79407741505E+02 0.  0.
         -6    2    1    2    0  501  0.16118019339E+03 -0.90247663964E+02 -0.11096184516E+04  0.11383137233E+04  0.17430240613E+03 0.  0.
        -24    2    5    5    0    0  0.82435599369E+02  0.14580783638E+02 -0.39590770243E+03  0.41264517769E+03  0.80776893552E+02 0.  0.
          2    1    4    4  502    0 -0.62602497513E+02  0.39677102540E+02 -0.71131164968E+02  0.10272773623E+03  0.00000000000E+00 0. -1.
         -1    1    4    4    0  502 -0.12692443722E+03  0.30948312521E+02 -0.16966532730E+02  0.13174017627E+03  0.00000000000E+00 0.  1.
          5    1    3    3  503    0  0.28346741343E+02  0.19622248904E+02 -0.45245517205E+01  0.35087490150E+02  0.47000000000E+01 0. -1.
         11    1    6    6    0    0  0.73169022664E+01 -0.18760412115E+02 -0.18811807221E+03  0.18919275676E+03  0.00000000000E+00 0. -1.
        -12    1    6    6    0    0  0.75118697102E+02  0.33341195754E+02 -0.20778963023E+03  0.22345242093E+03  0.00000000000E+00 0.  1.
         -5    1    5    5    0  501  0.78744594021E+02 -0.10482844760E+03 -0.71371074921E+03  0.72566854558E+03  0.47000000000E+01 0.  1.
<mgrwt>
<rscale>  2 0.25356021E+03</rscale>
<asrwt>0</asrwt>
<pdfrwt beam="2">  1        2 0.20077767E+00 0.25356021E+03</pdfrwt>
<pdfrwt beam="1">  1       -2 0.15817572E-01 0.25356021E+03</pdfrwt>
<totfact> 0.54960439E+02</totfact>
</mgrwt>
</event>
<event>
12    1  0.5759937E-002  0.2044106E+03  0.7546771E-02  0.1146070E+00
         -2   -1    0    0    0  501 -0.00000000000E+00  0.00000000000E+00  0.35346437846E+02  0.35346437846E+02  0.00000000000E+00 0. -1.
          2   -1    0    0  503    0  0.00000000000E+00 -0.00000000000E+00 -0.11945143250E+04  0.11945143250E+04  0.00000000000E+00 0.  1.
          6    2    1    2  503    0  0.89955011040E+02 -0.57657273684E+02 -0.64145534360E+03  0.67315483614E+03  0.17394312392E+03 0.  0.
         24    2    3    3    0    0 -0.17948056771E+02 -0.24489655011E+02 -0.21288558596E+03  0.22994237000E+03  0.81433069868E+02 0.  0.
         -6    2    1    2    0  501 -0.89955011040E+02  0.57657273684E+02 -0.51771254355E+03  0.55670592671E+03  0.17458220374E+03 0.  0.
        -24    2    5    5    0    0 -0.37494121902E+02 -0.34344221461E+02 -0.18894067764E+03  0.21126497689E+03  0.79680462272E+02 0.  0.
          2    1    4    4  502    0 -0.14559458020E+02 -0.30107594883E+02 -0.24535705576E+02  0.41478258589E+02  0.00000000000E+00 0. -1.
         -1    1    4    4    0  502 -0.33885987506E+01  0.56179398726E+01 -0.18834988038E+03  0.18846411141E+03  0.00000000000E+00 0.  1.
          5    1    3    3  503    0  0.10790306781E+03 -0.33167618673E+02 -0.42856975765E+03  0.44321246614E+03  0.47000000000E+01 0. -1.
         11    1    6    6    0    0 -0.58910761660E+02 -0.99238956943E+01 -0.98877842491E+02  0.11552397708E+03  0.00000000000E+00 0. -1.
        -12    1    6    6    0    0  0.21416639758E+02 -0.24420325767E+02 -0.90062835145E+02  0.95740999803E+02  0.00000000000E+00 0.  1.
         -5    1    5    5    0  501 -0.52460889138E+02  0.92001495145E+02 -0.32877186592E+03  0.34544094983E+03  0.47000000000E+01 0.  1.
<mgrwt>
<rscale>  2 0.20441060E+03</rscale>
<asrwt>0</asrwt>
<pdfrwt beam="2">  1        2 0.18377143E+00 0.20441060E+03</pdfrwt>
<pdfrwt beam="1">  1       -2 0.54379135E-02 0.20441060E+03</pdfrwt>
<totfact> 0.34476821E+03</totfact>
</mgrwt>
</event>
<event>
12    1  0.5759937E-002  0.1766251E+03  0.7546771E-02  0.1171110E+00
          1   -1    0    0  503    0  0.00000000000E+00  0.00000000000E+00  0.72328344104E+03  0.72328344104E+03  0.00000000000E+00 0.  1.
         -1   -1    0    0    0  501 -0.00000000000E+00 -0.00000000000E+00 -0.46224675056E+02  0.46224675056E+02  0.00000000000E+00 0. -1.
          6    2    1    2  503    0 -0.25875957998E+02  0.16872909665E+02  0.43901026222E+03  0.47340994207E+03  0.17444971376E+03 0.  0.
         24    2    3    3    0    0  0.48866369399E+02  0.23302951839E+01  0.16345480659E+03  0.18748897000E+03  0.77725721231E+02 0.  0.
         -6    2    1    2    0  501  0.25875957998E+02 -0.16872909665E+02  0.23804850377E+03  0.29609817403E+03  0.17335737145E+03 0.  0.
        -24    2    5    5    0    0 -0.34379164114E+02 -0.57119813050E+02  0.13951165994E+03  0.17369681552E+03  0.79135835724E+02 0.  0.
          4    1    4    4  502    0 -0.11331371424E+02 -0.23466286511E+02  0.40033601702E+02  0.47767728083E+02  0.00000000000E+00 0. -1.
         -3    1    4    4    0  502  0.60197740822E+02  0.25796581695E+02  0.12342120488E+03  0.13972124191E+03  0.00000000000E+00 0.  1.
          5    1    3    3  503    0 -0.74742327397E+02  0.14542614481E+02  0.27555545563E+03  0.28592097207E+03  0.47000000000E+01 0. -1.
         11    1    6    6    0    0 -0.25620107962E+02 -0.36277569065E+02  0.14396031441E+03  0.15065531545E+03  0.00000000000E+00 0. -1.
        -12    1    6    6    0    0 -0.87590561519E+01 -0.20842243985E+02 -0.44486544685E+01  0.23041500072E+02  0.00000000000E+00 0.  1.
         -5    1    5    5    0  501  0.60255122113E+02  0.40246903385E+02  0.98536843831E+02  0.12240135851E+03  0.47000000000E+01 0.  1.
<mgrwt>
<rscale>  2 0.17662509E+03</rscale>
<asrwt>0</asrwt>
<pdfrwt beam="1">  1        1 0.11127437E+00 0.17662509E+03</pdfrwt>
<pdfrwt beam="2">  1       -1 0.71114890E-02 0.17662509E+03</pdfrwt>
<totfact> 0.27373649E+03</totfact>
</mgrwt>
</event>
<event>
12    1  0.5759937E-002  0.1868855E+03  0.7546771E-02  0.1161301E+00
         -2   -1    0    0    0  501 -0.00000000000E+00  0.00000000000E+00  0.57028616274E+02  0.57028616274E+02  0.00000000000E+00 0.  1.
          2   -1    0    0  503    0  0.00000000000E+00 -0.00000000000E+00 -0.15291268773E+04  0.15291268773E+04  0.00000000000E+00 0. -1.
          6    2    1    2  503    0 -0.69814015436E+02 -0.65071908788E+01 -0.12111978280E+03  0.22223545073E+03  0.17263329196E+03 0.  0.
         24    2    3    3    0    0 -0.64665172808E+02  0.55398441686E+02 -0.45903278102E+02  0.12457056194E+03  0.78486572393E+02 0.  0.
         -6    2    1    2    0  501  0.69814015436E+02  0.65071908788E+01 -0.13509784783E+04  0.13639200429E+04  0.17383525062E+03 0.  0.
        -24    2    5    5    0    0 -0.28328781341E+02  0.87804677200E+01 -0.47500000874E+03  0.48244540035E+03  0.79050234379E+02 0.  0.
          4    1    4    4  502    0 -0.61205450553E+02  0.65545514294E+02 -0.59225195107E+02  0.10747067208E+03  0.00000000000E+00 0. -1.
         -3    1    4    4    0  502 -0.34597222549E+01 -0.10147072607E+02  0.13321917006E+02  0.17099889862E+02  0.00000000000E+00 0.  1.
          5    1    3    3  503    0 -0.51488426289E+01 -0.61905632565E+02 -0.75216504699E+02  0.97664888793E+02  0.47000000000E+01 0. -1.
         13    1    6    6    0    0 -0.19402758600E+02 -0.28572999114E+02 -0.34945248775E+03  0.35115512884E+03  0.00000000000E+00 0. -1.
        -14    1    6    6    0    0 -0.89260227410E+01  0.37353466834E+02 -0.12554752099E+03  0.13129027151E+03  0.00000000000E+00 0.  1.
         -5    1    5    5    0  501  0.98142796777E+02 -0.22732768411E+01 -0.87597846951E+03  0.88147464251E+03  0.47000000000E+01 0.  1.
<mgrwt>
<rscale>  2 0.18688551E+03</rscale>
<asrwt>0</asrwt>
<pdfrwt beam="2">  1        2 0.23525024E+00 0.18688551E+03</pdfrwt>
<pdfrwt beam="1">  1       -2 0.87736351E-02 0.18688551E+03</pdfrwt>
<totfact> 0.10850540E+03</totfact>
</mgrwt>
</event>
<event>
12    1  0.5759937E-002  0.1859176E+03  0.7546771E-02  0.1162196E+00
          1   -1    0    0  503    0  0.00000000000E+00  0.00000000000E+00  0.17662946467E+04  0.17662946467E+04  0.00000000000E+00 0.  1.
         -1   -1    0    0    0  501 -0.00000000000E+00 -0.00000000000E+00 -0.22495913798E+02  0.22495913798E+02  0.00000000000E+00 0. -1.
          6    2    1    2  503    0 -0.62071456657E+02  0.30287690998E+02  0.11945035037E+04  0.12088859441E+04  0.17261632423E+03 0.  0.
         24    2    3    3    0    0 -0.15545057370E+02  0.82082023526E+02  0.77700504979E+03  0.78559596338E+03  0.80281148981E+02 0.  0.
         -6    2    1    2    0  501  0.62071456657E+02 -0.30287690998E+02  0.54929522915E+03  0.57990461641E+03  0.17260911159E+03 0.  0.
        -24    2    5    5    0    0  0.43812687388E+02 -0.67443469047E+02  0.50807920911E+03  0.52129757924E+03  0.84489705277E+02 0.  0.
          4    1    4    4  502    0 -0.32234487706E+02  0.72630191576E+02  0.38462900349E+03  0.39275141916E+03  0.00000000000E+00 0. -1.
         -3    1    4    4    0  502  0.16689430336E+02  0.94518319495E+01  0.39237604630E+03  0.39284454422E+03  0.00000000000E+00 0.  1.
          5    1    3    3  503    0 -0.46526399287E+02 -0.51794332528E+02  0.41749845393E+03  0.42328998068E+03  0.47000000000E+01 0. -1.
         13    1    6    6    0    0  0.15446296922E+02 -0.78708613481E+02  0.28261573649E+03  0.29377761731E+03  0.00000000000E+00 0. -1.
        -14    1    6    6    0    0  0.28366390467E+02  0.11265144434E+02  0.22546347262E+03  0.22751996192E+03  0.00000000000E+00 0.  1.
         -5    1    5    5    0  501  0.18258769269E+02  0.37155778049E+02  0.41216020047E+02  0.58607037173E+02  0.47000000000E+01 0.  1.
<mgrwt>
<rscale>  2 0.18591762E+03</rscale>
<asrwt>0</asrwt>
<pdfrwt beam="1">  1        1 0.27173753E+00 0.18591762E+03</pdfrwt>
<pdfrwt beam="2">  1       -1 0.34609112E-02 0.18591762E+03</pdfrwt>
<totfact> 0.14662505E+03</totfact>
</mgrwt>
</event>
<event>
12    1  0.5759937E-002  0.2487783E+03  0.7546771E-02  0.1114079E+00
         -2   -1    0    0    0  501 -0.00000000000E+00  0.00000000000E+00  0.12360741525E+03  0.12360741525E+03  0.00000000000E+00 0.  1.
          2   -1    0    0  503    0  0.00000000000E+00 -0.00000000000E+00 -0.51440162117E+03  0.51440162117E+03  0.00000000000E+00 0. -1.
          6    2    1    2  503    0  0.17925690926E+03 -0.17831665192E+01 -0.24731543678E+03  0.35066502085E+03  0.17223475950E+03 0.  0.
         24    2    3    3    0    0  0.74438265260E+02 -0.62649459962E+02 -0.10892588043E+03  0.16663944352E+03  0.80236192206E+02 0.  0.
         -6    2    1    2    0  501 -0.17925690926E+03  0.17831665192E+01 -0.14347876915E+03  0.28734401556E+03  0.17275475936E+03 0.  0.
        -24    2    5    5    0    0 -0.19122439465E+03 -0.34309102391E+02 -0.12644587207E+03  0.24541452517E+03  0.80596817462E+02 0.  0.
          4    1    4    4  502    0  0.26701917644E+02 -0.72567389371E+02 -0.65009419787E+02  0.10102100310E+03  0.00000000000E+00 0. -1.
         -3    1    4    4    0  502  0.47736347616E+02  0.99179294091E+01 -0.43916460643E+02  0.65618440418E+02  0.00000000000E+00 0.  1.
          5    1    3    3  503    0  0.10481864400E+03  0.60866293443E+02 -0.13838955635E+03  0.18402557734E+03  0.47000000000E+01 0. -1.
         11    1    6    6    0    0 -0.11160716773E+03  0.16593241403E+02 -0.48083179498E+02  0.12265189644E+03  0.00000000000E+00 0. -1.
        -12    1    6    6    0    0 -0.79617226918E+02 -0.50902343794E+02 -0.78362692574E+02  0.12276262873E+03  0.00000000000E+00 0.  1.
         -5    1    5    5    0  501  0.11967485390E+02  0.36092268910E+02 -0.17032897075E+02  0.41929490390E+02  0.47000000000E+01 0.  1.
<mgrwt>
<rscale>  2 0.24877834E+03</rscale>
<asrwt>0</asrwt>
<pdfrwt beam="2">  1        2 0.79138710E-01 0.24877834E+03</pdfrwt>
<pdfrwt beam="1">  1       -2 0.19016526E-01 0.24877834E+03</pdfrwt>
<totfact> 0.13806107E+03</totfact>
</mgrwt>
</event>
<event>
12    1  0.5759937E-002  0.1950611E+03  0.7546771E-02  0.1153974E+00
          1   -1    0    0  503    0  0.00000000000E+00  0.00000000000E+00  0.86094714974E+02  0.86094714974E+02  0.00000000000E+00 0.  1.
         -1   -1    0    0    0  501 -0.00000000000E+00 -0.00000000000E+00 -0.55122867389E+03  0.55122867389E+03  0.00000000000E+00 0. -1.
          6    2    1    2  503    0 -0.96904901297E+01  0.71448877994E+02 -0.80507641644E+02  0.20034094571E+03  0.16868955628E+03 0.  0.
         24    2    3    3    0    0  0.88264193035E+01  0.17848255826E+02  0.22401443095E+02  0.82747270904E+02  0.77128595706E+02 0.  0.
         -6    2    1    2    0  501  0.96904901297E+01 -0.71448877994E+02 -0.38462631727E+03  0.43698244315E+03  0.19446697386E+03 0.  0.
        -24    2    5    5    0    0  0.29888394070E+02  0.20738444062E+02 -0.28811187958E+03  0.30191362975E+03  0.82583203572E+02 0.  0.
          2    1    4    4  502    0  0.24599439354E+02  0.40760157922E+02  0.94533479047E+00  0.47617397538E+02  0.00000000000E+00 0. -1.
         -1    1    4    4    0  502 -0.15773020051E+02 -0.22911902097E+02  0.21456108304E+02  0.35129873367E+02  0.00000000000E+00 0.  1.
          5    1    3    3  503    0 -0.18516909433E+02  0.53600622169E+02 -0.10290908474E+03  0.11759367480E+03  0.47000000000E+01 0. -1.
         11    1    6    6    0    0 -0.27139024520E+02  0.16830849929E+02 -0.81278904719E+02  0.87327341156E+02  0.00000000000E+00 0. -1.
        -12    1    6    6    0    0  0.57027418590E+02  0.39075941333E+01 -0.20683297486E+03  0.21458628859E+03  0.00000000000E+00 0.  1.
         -5    1    5    5    0  501 -0.20197903940E+02 -0.92187322056E+02 -0.96514437690E+02  0.13506881340E+03  0.47000000000E+01 0.  1.
<mgrwt>
<rscale>  2 0.19506106E+03</rscale>
<asrwt>0</asrwt>
<pdfrwt beam="1">  1        1 0.13245341E-01 0.19506106E+03</pdfrwt>
<pdfrwt beam="2">  1       -1 0.84804411E-01 0.19506106E+03</pdfrwt>
<totfact> 0.63379825E+02</totfact>
</mgrwt>
</event>
<event>
12    1  0.5759937E-002  0.2215773E+03  0.7546771E-02  0.1132713E+00
         -1   -1    0    0    0  501 -0.00000000000E+00  0.00000000000E+00  0.50315700019E+02  0.50315700019E+02  0.00000000000E+00 0. -1.
          1   -1    0    0  503    0  0.00000000000E+00 -0.00000000000E+00 -0.98347547019E+03  0.98347547019E+03  0.00000000000E+00 0.  1.
          6    2    1    2  503    0  0.13931282142E+03  0.14054373438E+02 -0.51331976499E+03  0.55929053520E+03  0.17234597183E+03 0.  0.
         24    2    3    3    0    0  0.26515545466E+02  0.36115030013E+02 -0.33734800435E+03  0.34905721583E+03  0.77652394281E+02 0.  0.
         -6    2    1    2    0  501 -0.13931282142E+03 -0.14054373438E+02 -0.41984000518E+03  0.47450063501E+03  0.17111293070E+03 0.  0.
        -24    2    5    5    0    0 -0.39980197235E+02  0.48708403271E+02 -0.23519794985E+03  0.25559217249E+03  0.77706874236E+02 0.  0.
          2    1    4    4  502    0 -0.25079258393E+02  0.88685821464E+01 -0.59910337575E+02  0.65550511052E+02  0.00000000000E+00 0. -1.
         -1    1    4    4    0  502  0.51594803859E+02  0.27246447866E+02 -0.27743766678E+03  0.28350670478E+03  0.00000000000E+00 0.  1.
          5    1    3    3  503    0  0.11279727595E+03 -0.22060656575E+02 -0.17597176064E+03  0.21023331937E+03  0.47000000000E+01 0. -1.
         13    1    6    6    0    0 -0.19812829163E+02 -0.51768469834E+01 -0.93154363832E+01  0.22497228700E+02  0.00000000000E+00 0. -1.
        -14    1    6    6    0    0 -0.20167368072E+02  0.53885250255E+02 -0.22588251346E+03  0.23309494379E+03  0.00000000000E+00 0.  1.
         -5    1    5    5    0  501 -0.99332624184E+02 -0.62762776709E+02 -0.18464205534E+03  0.21890846253E+03  0.47000000000E+01 0.  1.
<mgrwt>
<rscale>  2 0.22157734E+03</rscale>
<asrwt>0</asrwt>
<pdfrwt beam="2">  1        1 0.15130393E+00 0.22157734E+03</pdfrwt>
<pdfrwt beam="1">  1       -1 0.77408763E-02 0.22157734E+03</pdfrwt>
<totfact> 0.14905022E+03</totfact>
</mgrwt>
</event>
<event>
12    1  0.5759937E-002  0.1801680E+03  0.7546771E-02  0.1167641E+00
         -1   -1    0    0    0  501 -0.00000000000E+00  0.00000000000E+00  0.69546722249E+02  0.69546722249E+02  0.00000000000E+00 0. -1.
          1   -1    0    0  503    0  0.00000000000E+00 -0.00000000000E+00 -0.47614001710E+03  0.47614001710E+03  0.00000000000E+00 0.  1.
          6    2    1    2  503    0  0.27174061660E+02  0.38642558625E+02 -0.24246468971E+03  0.30253971294E+03  0.17466961723E+03 0.  0.
         24    2    3    3    0    0  0.47116144156E+02 -0.80246311399E+01 -0.23098977496E+03  0.25029723096E+03  0.83714407017E+02 0.  0.
         -6    2    1    2    0  501 -0.27174061660E+02 -0.38642558625E+02 -0.16412860514E+03  0.24314702641E+03  0.17306241783E+03 0.  0.
        -24    2    5    5    0    0  0.37728866411E+01 -0.18574712428E+01 -0.26021009566E+02  0.96836896148E+02  0.93180505707E+02 0.  0.
          2    1    4    4  502    0  0.22127625126E+02 -0.23703734234E+02 -0.21883150434E+02  0.39119957608E+02  0.00000000000E+00 0. -1.
         -1    1    4    4    0  502  0.24988519031E+02  0.15679103094E+02 -0.20910662453E+03  0.21117727335E+03  0.00000000000E+00 0.  1.
          5    1    3    3  503    0 -0.19942082496E+02  0.46667189765E+02 -0.11474914749E+02  0.52242481979E+02  0.47000000000E+01 0. -1.
         13    1    6    6    0    0 -0.18719388986E+02 -0.30834561695E+02  0.17354986727E+02  0.40029754974E+02  0.00000000000E+00 0. -1.
        -14    1    6    6    0    0  0.22492275627E+02  0.28977090453E+02 -0.43375996294E+02  0.56807141175E+02  0.00000000000E+00 0.  1.
         -5    1    5    5    0  501 -0.30946948301E+02 -0.36785087383E+02 -0.13810759557E+03  0.14631013026E+03  0.47000000000E+01 0.  1.
<mgrwt>
<rscale>  2 0.18016801E+03</rscale>
<asrwt>0</asrwt>
<pdfrwt beam="2">  1        1 0.73252308E-01 0.18016801E+03</pdfrwt>
<pdfrwt beam="1">  1       -1 0.10699496E-01 0.18016801E+03</pdfrwt>
<totfact> 0.26062226E+03</totfact>
</mgrwt>
</event>
<event>
12    1  0.5759937E-002  0.1964680E+03  0.7546771E-02  0.1152754E+00
         -1   -1    0    0    0  501 -0.00000000000E+00  0.00000000000E+00  0.55634422210E+03  0.55634422210E+03  0.00000000000E+00 0.  1.
          1   -1    0    0  503    0  0.00000000000E+00 -0.00000000000E+00 -0.11961180837E+03  0.11961180837E+03  0.00000000000E+00 0. -1.
          6    2    1    2  503    0  0.85902676053E+02 -0.34145763321E+02 -0.85804079992E+00  0.19615480742E+03  0.17300511361E+03 0.  0.
         24    2    3    3    0    0  0.77729016068E+02  0.37809732896E+02  0.23070021591E+02  0.11974116778E+03  0.79588601721E+02 0.  0.
         -6    2    1    2    0  501 -0.85902676053E+02  0.34145763321E+02  0.43759045453E+03  0.47980122305E+03  0.17371990341E+03 0.  0.
        -24    2    5    5    0    0  0.21630906314E+02 -0.21856588443E+01  0.20757290965E+03  0.22325959967E+03  0.79282172099E+02 0.  0.
          2    1    4    4  502    0  0.63060635166E+02  0.13742056409E+02 -0.20614800855E+02  0.67752917548E+02  0.00000000000E+00 0. -1.
         -1    1    4    4    0  502  0.14668380902E+02  0.24067676487E+02  0.43684822447E+02  0.51988250230E+02  0.00000000000E+00 0.  1.
          5    1    3    3  503    0  0.81736599853E+01 -0.71955496217E+02 -0.23928062391E+02  0.76413639641E+02  0.47000000000E+01 0. -1.
         11    1    6    6    0    0  0.36497120155E+02  0.12685869191E+02  0.44914544591E+02  0.59247678204E+02  0.00000000000E+00 0. -1.
        -12    1    6    6    0    0 -0.14866213841E+02 -0.14871528036E+02  0.16265836505E+03  0.16401192146E+03  0.00000000000E+00 0.  1.
         -5    1    5    5    0  501 -0.10753358237E+03  0.36331422166E+02  0.23001754488E+03  0.25654162338E+03  0.47000000000E+01 0.  1.
<mgrwt>
<rscale>  2 0.19646804E+03</rscale>
<asrwt>0</asrwt>
<pdfrwt beam="2">  1        1 0.18401817E-01 0.19646804E+03</pdfrwt>
<pdfrwt beam="1">  1       -1 0.85591418E-01 0.19646804E+03</pdfrwt>
<totfact> 0.40479916E+02</totfact>
</mgrwt>
</event>
<event>
12    1  0.5759937E-002  0.1973296E+03  0.7546771E-02  0.1152012E+00
         -2   -1    0    0    0  501 -0.00000000000E+00  0.00000000000E+00  0.18521804070E+03  0.18521804070E+03  0.00000000000E+00 0. -1.
          2   -1    0    0  503    0  0.00000000000E+00 -0.00000000000E+00 -0.25313301603E+03  0.25313301603E+03  0.00000000000E+00 0.  1.
          6    2    1    2  503    0  0.82379338587E+02 -0.47758216264E+02  0.56247870740E+02  0.20534639072E+03  0.17302056112E+03 0.  0.
         24    2    3    3    0    0  0.66607966686E+02 -0.83930747173E+02  0.75205889290E+02  0.16131589411E+03  0.94265053772E+02 0.  0.
         -6    2    1    2    0  501 -0.82379338587E+02  0.47758216264E+02 -0.12416284607E+03  0.23300466601E+03  0.17264865882E+03 0.  0.
        -24    2    5    5    0    0 -0.50990017297E+02  0.88275895560E+02 -0.43039016001E+02  0.13693106073E+03  0.80654466048E+02 0.  0.
          4    1    4    4  502    0  0.68584915548E+02 -0.10055925905E+03  0.77668852977E+02  0.14439011720E+03  0.00000000000E+00 0. -1.
         -3    1    4    4    0  502 -0.19769488622E+01  0.16628511878E+02 -0.24629636869E+01  0.16925776916E+02  0.00000000000E+00 0.  1.
          5    1    3    3  503    0  0.15771371901E+02  0.36172530909E+02 -0.18958018551E+02  0.44030496606E+02  0.47000000000E+01 0. -1.
         11    1    6    6    0    0  0.83135334466E+01 -0.10450891977E+02  0.15245179345E+01  0.13440987182E+02  0.00000000000E+00 0. -1.
        -12    1    6    6    0    0 -0.59303550743E+02  0.98726787537E+02 -0.44563533935E+02  0.12349007355E+03  0.00000000000E+00 0.  1.
         -5    1    5    5    0  501 -0.31389321290E+02 -0.40517679296E+02 -0.81123830070E+02  0.96073605282E+02  0.47000000000E+01 0.  1.
<mgrwt>
<rscale>  2 0.19732964E+03</rscale>
<asrwt>0</asrwt>
<pdfrwt beam="2">  1        2 0.38943541E-01 0.19732964E+03</pdfrwt>
<pdfrwt beam="1">  1       -2 0.28495083E-01 0.19732964E+03</pdfrwt>
<totfact> 0.14660659E+03</totfact>
</mgrwt>
</event>
<event>
12    1  0.5759937E-002  0.4426793E+03  0.7546771E-02  0.1029928E+00
          2   -1    0    0  503    0  0.00000000000E+00  0.00000000000E+00  0.62160429060E+03  0.62160429060E+03  0.00000000000E+00 0.  1.
         -2   -1    0    0    0  501 -0.00000000000E+00 -0.00000000000E+00 -0.31931838215E+03  0.31931838215E+03  0.00000000000E+00 0. -1.
          6    2    1    2  503    0 -0.35458309357E+03  0.20005443781E+03  0.98061852392E+02  0.45334597689E+03  0.17365338906E+03 0.  0.
         24    2    3    3    0    0 -0.11700105731E+03  0.91376645696E+02  0.91136199924E+02  0.19195328167E+03  0.80630742377E+02 0.  0.
         -6    2    1    2    0  501  0.35458309357E+03 -0.20005443781E+03  0.20422405606E+03  0.48757669586E+03  0.17399028979E+03 0.  0.
        -24    2    5    5    0    0  0.24164151771E+03 -0.98508613267E+02  0.63417586225E+02  0.28041515023E+03  0.80723579382E+02 0.  0.
          4    1    4    4  502    0 -0.71384049347E+02  0.16667447225E+02  0.71170704237E+02  0.10217022776E+03  0.00000000000E+00 0. -1.
         -3    1    4    4    0  502 -0.45617007961E+02  0.74709198471E+02  0.19965495687E+02  0.89783053911E+02  0.00000000000E+00 0.  1.
          5    1    3    3  503    0 -0.23758203626E+03  0.10867779212E+03  0.69256524684E+01  0.26139269522E+03  0.47000000000E+01 0. -1.
         11    1    6    6    0    0  0.67375421787E+02 -0.33834491981E+02 -0.17957818720E+02  0.77502926150E+02  0.00000000000E+00 0. -1.
        -12    1    6    6    0    0  0.17426609592E+03 -0.64674121286E+02  0.81375404944E+02  0.20291222408E+03  0.00000000000E+00 0.  1.
         -5    1    5    5    0  501  0.11294157586E+03 -0.10154582455E+03  0.14080646984E+03  0.20716154563E+03  0.47000000000E+01 0.  1.
<mgrwt>
<rscale>  2 0.44267934E+03</rscale>
<asrwt>0</asrwt>
<pdfrwt beam="1">  1        2 0.95631429E-01 0.44267934E+03</pdfrwt>
<pdfrwt beam="2">  1       -2 0.49125905E-01 0.44267934E+03</pdfrwt>
<totfact> 0.19152768E+02</totfact>
</mgrwt>
</event>
<event>
12    1  0.5759937E-002  0.2054861E+03  0.7546771E-02  0.1145191E+00
          2   -1    0    0  503    0  0.00000000000E+00  0.00000000000E+00  0.15774932813E+04  0.15774932813E+04  0.00000000000E+00 0.  1.
         -2   -1    0    0    0  501 -0.00000000000E+00 -0.00000000000E+00 -0.26800717717E+02  0.26800717717E+02  0.00000000000E+00 0. -1.
          6    2    1    2  503    0 -0.20705944898E+02  0.10175860123E+03  0.73595809077E+03  0.76293556827E+03  0.17219994450E+03 0.  0.
         24    2    3    3    0    0  0.30511829530E+02  0.18129142122E+02  0.49768475633E+03  0.50522755762E+03  0.79404853523E+02 0.  0.
         -6    2    1    2    0  501  0.20705944898E+02 -0.10175860123E+03  0.81473447282E+03  0.84135843075E+03  0.18250533888E+03 0.  0.
        -24    2    5    5    0    0 -0.51111764627E+01 -0.13697535128E+03  0.52654023307E+03  0.54983698546E+03  0.79295160992E+02 0.  0.
          2    1    4    4  502    0 -0.13505323054E+02 -0.20941439231E+02  0.21784034190E+03  0.21926092262E+03  0.00000000000E+00 0. -1.
         -1    1    4    4    0  502  0.44017152584E+02  0.39070581353E+02  0.27984441443E+03  0.28596663501E+03  0.00000000000E+00 0.  1.
          5    1    3    3  503    0 -0.51217774428E+02  0.83629459106E+02  0.23827333444E+03  0.25770801065E+03  0.47000000000E+01 0. -1.
         11    1    6    6    0    0 -0.40045859634E+02 -0.96084495462E+02  0.32645387381E+03  0.34264855592E+03  0.00000000000E+00 0. -1.
        -12    1    6    6    0    0  0.34934683172E+02 -0.40890855817E+02  0.20008635925E+03  0.20718842954E+03  0.00000000000E+00 0.  1.
         -5    1    5    5    0  501  0.25817121361E+02  0.35216750052E+02  0.28819423975E+03  0.29152144529E+03  0.47000000000E+01 0.  1.
<mgrwt>
<rscale>  2 0.20548606E+03</rscale>
<asrwt>0</asrwt>
<pdfrwt beam="1">  1        2 0.24269120E+00 0.20548606E+03</pdfrwt>
<pdfrwt beam="2">  1       -2 0.41231886E-02 0.20548606E+03</pdfrwt>
<totfact> 0.32513717E+03</totfact>
</mgrwt>
</event>
<event>
12    1  0.5759937E-002  0.3547155E+03  0.7546771E-02  0.1060696E+00
         -2   -1    0    0    0  501 -0.00000000000E+00  0.00000000000E+00  0.62247579351E+03  0.62247579351E+03  0.00000000000E+00 0. -1.
          2   -1    0    0  503    0  0.00000000000E+00 -0.00000000000E+00 -0.31764870394E+03  0.31764870394E+03  0.00000000000E+00 0.  1.
          6    2    1    2  503    0  0.26238736264E+03 -0.16342975039E+03  0.43563224704E+03  0.56121537683E+03  0.17213608901E+03 0.  0.
         24    2    3    3    0    0  0.13773625541E+03 -0.12431780801E+03  0.16544959850E+03  0.26106808607E+03  0.79729432977E+02 0.  0.
         -6    2    1    2    0  501 -0.26238736264E+03  0.16342975039E+03 -0.13080515747E+03  0.37890912062E+03  0.17580023061E+03 0.  0.
        -24    2    5    5    0    0 -0.10946759841E+03  0.14632104043E+03 -0.53942953335E+02  0.20684212590E+03  0.80503545612E+02 0.  0.
          2    1    4    4  502    0  0.95792971707E+02 -0.99966228701E+02  0.72645773346E+02  0.15635520041E+03  0.00000000000E+00 0. -1.
         -1    1    4    4    0  502  0.41943283698E+02 -0.24351579305E+02  0.92803825152E+02  0.10471288567E+03  0.00000000000E+00 0.  1.
          5    1    3    3  503    0  0.12465110724E+03 -0.39111942384E+02  0.27018264854E+03  0.30014729075E+03  0.47000000000E+01 0. -1.
         11    1    6    6    0    0 -0.47241345503E+01 -0.90714366258E+01 -0.10120074432E+02  0.14388339592E+02  0.00000000000E+00 0. -1.
        -12    1    6    6    0    0 -0.10474346386E+03  0.15539247706E+03 -0.43822878903E+02  0.19245378631E+03  0.00000000000E+00 0.  1.
         -5    1    5    5    0  501 -0.15291976423E+03  0.17108709956E+02 -0.76862204134E+02  0.17206699472E+03  0.47000000000E+01 0.  1.
<mgrwt>
<rscale>  2 0.35471548E+03</rscale>
<asrwt>0</asrwt>
<pdfrwt beam="2">  1        2 0.48869032E-01 0.35471548E+03</pdfrwt>
<pdfrwt beam="1">  1       -2 0.95765506E-01 0.35471548E+03</pdfrwt>
<totfact> 0.97514822E+01</totfact>
</mgrwt>
</event>
<event>
12    1  0.5759937E-002  0.1962566E+03  0.7546771E-02  0.1152936E+00
          1   -1    0    0  503    0  0.00000000000E+00  0.00000000000E+00  0.28213347202E+03  0.28213347202E+03  0.00000000000E+00 0. -1.
         -1   -1    0    0    0  501 -0.00000000000E+00 -0.00000000000E+00 -0.15139796299E+03  0.15139796299E+03  0.00000000000E+00 0.  1.
          6    2    1    2  503    0 -0.81720559359E+02 -0.33918752729E+02 -0.27309979807E+01  0.19578656154E+03  0.17463157710E+03 0.  0.
         24    2    3    3    0    0 -0.54711558107E+02  0.46137670221E+02  0.23242784915E+02  0.10726964563E+03  0.76449399077E+02 0.  0.
         -6    2    1    2    0  501  0.81720559359E+02  0.33918752729E+02  0.13346650701E+03  0.23774487346E+03  0.17572872490E+03 0.  0.
        -24    2    5    5    0    0  0.11849674366E+03 -0.44037495477E+00  0.11489993174E+03  0.18389466358E+03  0.81077622004E+02 0.  0.
          4    1    4    4  502    0 -0.65340324071E+02  0.23102840825E+02  0.36839163735E+02  0.78487089311E+02  0.00000000000E+00 0. -1.
         -3    1    4    4    0  502  0.10628765965E+02  0.23034829397E+02 -0.13596378820E+02  0.28782556319E+02  0.00000000000E+00 0.  1.
          5    1    3    3  503    0 -0.27009001253E+02 -0.80056422950E+02 -0.25973782896E+02  0.88516915910E+02  0.47000000000E+01 0. -1.
         11    1    6    6    0    0  0.68704939286E+02 -0.40173038988E+02  0.57983821401E+02  0.98470123835E+02  0.00000000000E+00 0. -1.
        -12    1    6    6    0    0  0.49791804379E+02  0.39732664033E+02  0.56916110334E+02  0.85424539742E+02  0.00000000000E+00 0.  1.
         -5    1    5    5    0  501 -0.36776184306E+02  0.34359127684E+02  0.18566575278E+02  0.53850209886E+02  0.47000000000E+01 0.  1.
<mgrwt>
<rscale>  2 0.19625656E+03</rscale>
<asrwt>0</asrwt>
<pdfrwt beam="1">  1        1 0.43405149E-01 0.19625656E+03</pdfrwt>
<pdfrwt beam="2">  1       -1 0.23291994E-01 0.19625656E+03</pdfrwt>
<totfact> 0.14745696E+03</totfact>
</mgrwt>
</event>
<event>
12    1  0.5759937E-002  0.2328320E+03  0.7546771E-02  0.1124662E+00
          1   -1    0    0  503    0  0.00000000000E+00  0.00000000000E+00  0.14381972860E+03  0.14381972860E+03  0.00000000000E+00 0.  1.
         -1   -1    0    0    0  501 -0.00000000000E+00 -0.00000000000E+00 -0.42678517889E+03  0.42678517889E+03  0.00000000000E+00 0. -1.
          6    2    1    2  503    0  0.89994464298E+02 -0.12679778612E+03 -0.44820070943E+02  0.23862248737E+03  0.17537152150E+03 0.  0.
         24    2    3    3    0    0  0.12326740725E+03 -0.72102261733E+02 -0.57201810865E+02  0.17324598851E+03  0.79677697837E+02 0.  0.
         -6    2    1    2    0  501 -0.89994464298E+02  0.12679778612E+03 -0.23814537935E+03  0.33198242012E+03  0.17123791459E+03 0.  0.
        -24    2    5    5    0    0 -0.44301648529E+02  0.15164510999E+03 -0.19957345558E+03  0.26705857073E+03  0.80819803155E+02 0.  0.
          4    1    4    4  502    0  0.11679543988E+03 -0.41239599519E+02 -0.66213466452E+02  0.14044964394E+03  0.00000000000E+00 0. -1.
         -3    1    4    4    0  502  0.64719673711E+01 -0.30862662214E+02  0.90116555869E+01  0.32796344567E+02  0.00000000000E+00 0.  1.
          5    1    3    3  503    0 -0.33272942948E+02 -0.54695524385E+02  0.12381739922E+02  0.65376498864E+02  0.47000000000E+01 0. -1.
         13    1    6    6    0    0 -0.60242384663E+02  0.73158948502E+02 -0.85236615747E+02  0.12746237610E+03  0.00000000000E+00 0. -1.
        -14    1    6    6    0    0  0.15940736134E+02  0.78486161486E+02 -0.11433683983E+03  0.13959619463E+03  0.00000000000E+00 0.  1.
         -5    1    5    5    0  501 -0.45692815769E+02 -0.24847323871E+02 -0.38571923768E+02  0.64923849390E+02  0.47000000000E+01 0.  1.
<mgrwt>
<rscale>  2 0.23283201E+03</rscale>
<asrwt>0</asrwt>
<pdfrwt beam="1">  1        1 0.22126112E-01 0.23283201E+03</pdfrwt>
<pdfrwt beam="2">  1       -1 0.65659259E-01 0.23283201E+03</pdfrwt>
<totfact> 0.54717052E+02</totfact>
</mgrwt>
</event>
<event>
12    1  0.5759937E-002  0.1828803E+03  0.7546771E-02  0.1165044E+00
         -2   -1    0    0    0  501 -0.00000000000E+00  0.00000000000E+00  0.24208327900E+02  0.24208327900E+02  0.00000000000E+00 0.  1.
          2   -1    0    0  503    0  0.00000000000E+00 -0.00000000000E+00 -0.13891506518E+04  0.13891506518E+04  0.00000000000E+00 0. -1.
          6    2    1    2  503    0 -0.27688289053E+02  0.52413188621E+02 -0.62966694514E+03  0.65564493340E+03  0.17284684899E+03 0.  0.
         24    2    3    3    0    0 -0.77538593866E+02  0.26764445396E+02 -0.32856533664E+03  0.34933270779E+03  0.85729756884E+02 0.  0.
         -6    2    1    2    0  501  0.27688289053E+02 -0.52413188621E+02 -0.73527537873E+03  0.75771404627E+03  0.17316728804E+03 0.  0.
        -24    2    5    5    0    0  0.84760359568E+02 -0.31976077580E+02 -0.45434411141E+03  0.47027820351E+03  0.80785079283E+02 0.  0.
          2    1    4    4  502    0 -0.30646716846E+02  0.54327864232E+02 -0.20608206617E+03  0.21531501593E+03  0.00000000000E+00 0. -1.
         -1    1    4    4    0  502 -0.46891877020E+02 -0.27563418836E+02 -0.12248327047E+03  0.13401769187E+03  0.00000000000E+00 0.  1.
          5    1    3    3  503    0  0.49850304813E+02  0.25648743226E+02 -0.30110160849E+03  0.30631222561E+03  0.47000000000E+01 0. -1.
         11    1    6    6    0    0  0.30606097196E+02 -0.62255516958E+01 -0.33753066399E+03  0.33897262399E+03  0.00000000000E+00 0. -1.
        -12    1    6    6    0    0  0.54154262372E+02 -0.25750525884E+02 -0.11681344742E+03  0.13130557953E+03  0.00000000000E+00 0.  1.
         -5    1    5    5    0  501 -0.57072070515E+02 -0.20437111042E+02 -0.28093126732E+03  0.28743584276E+03  0.47000000000E+01 0.  1.
<mgrwt>
<rscale>  2 0.18288031E+03</rscale>
<asrwt>0</asrwt>
<pdfrwt beam="2">  1        2 0.21371553E+00 0.18288031E+03</pdfrwt>
<pdfrwt beam="1">  1       -2 0.37243573E-02 0.18288031E+03</pdfrwt>
<totfact> 0.47585652E+03</totfact>
</mgrwt>
</event>
<event>
12    1  0.5759937E-002  0.2171275E+03  0.7546771E-02  0.1136043E+00
          2   -1    0    0  503    0  0.00000000000E+00  0.00000000000E+00  0.69150047110E+03  0.69150047110E+03  0.00000000000E+00 0.  1.
         -2   -1    0    0    0  501 -0.00000000000E+00 -0.00000000000E+00 -0.71232992878E+02  0.71232992878E+02  0.00000000000E+00 0. -1.
          6    2    1    2  503    0 -0.21379797817E+02  0.13111805596E+03  0.39079506769E+03  0.44766941757E+03  0.17331497957E+03 0.  0.
         24    2    3    3    0    0 -0.25568421339E+02  0.31791084883E+02  0.29842043885E+03  0.31188078106E+03  0.80934825793E+02 0.  0.
         -6    2    1    2    0  501  0.21379797817E+02 -0.13111805596E+03  0.22947241054E+03  0.31506404641E+03  0.17017263525E+03 0.  0.
        -24    2    5    5    0    0  0.29748784240E+02 -0.15227399531E+03  0.23419913398E+03  0.29135654511E+03  0.77246632362E+02 0.  0.
          2    1    4    4  502    0 -0.42663822699E+02  0.42694341906E+02  0.27178146510E+03  0.27840289756E+03  0.00000000000E+00 0. -1.
         -1    1    4    4    0  502  0.17095401360E+02 -0.10903257023E+02  0.26638973742E+02  0.33477883496E+02  0.00000000000E+00 0.  1.
          5    1    3    3  503    0  0.41886235218E+01  0.99326971081E+02  0.92374628843E+02  0.13578863651E+03  0.47000000000E+01 0. -1.
         11    1    6    6    0    0  0.27552970864E+02 -0.20130594414E+02  0.19673781853E+02  0.39388637032E+02  0.00000000000E+00 0. -1.
        -12    1    6    6    0    0  0.21958133760E+01 -0.13214340089E+03  0.21452535213E+03  0.25196790808E+03  0.00000000000E+00 0.  1.
         -5    1    5    5    0  501 -0.83689864226E+01  0.21155939344E+02 -0.47267234463E+01  0.23707501298E+02  0.47000000000E+01 0.  1.
<mgrwt>
<rscale>  2 0.21712751E+03</rscale>
<asrwt>0</asrwt>
<pdfrwt beam="1">  1        2 0.10638468E+00 0.21712751E+03</pdfrwt>
<pdfrwt beam="2">  1       -2 0.10958922E-01 0.21712751E+03</pdfrwt>
<totfact> 0.24232871E+03</totfact>
</mgrwt>
</event>
<event>
12    1  0.5759937E-002  0.3569817E+03  0.7546771E-02  0.1059785E+00
          2   -1    0    0  503    0  0.00000000000E+00  0.00000000000E+00  0.19925797168E+03  0.19925797168E+03  0.00000000000E+00 0. -1.
         -2   -1    0    0    0  501 -0.00000000000E+00 -0.00000000000E+00 -0.65487197782E+03  0.65487197782E+03  0.00000000000E+00 0.  1.
          6    2    1    2  503    0 -0.23328471763E+03 -0.20670925131E+03 -0.29249717208E+03  0.46074329035E+03  0.17198636535E+03 0.  0.
         24    2    3    3    0    0 -0.51701234131E+02 -0.26366672334E+02 -0.88868477386E+02  0.13366112548E+03  0.81237129260E+02 0.  0.
         -6    2    1    2    0  501  0.23328471763E+03  0.20670925131E+03 -0.16311683405E+03  0.39338665915E+03  0.17605535491E+03 0.  0.
        -24    2    5    5    0    0  0.65044116857E+02  0.10809797496E+03 -0.17951039040E+02  0.15023180805E+03  0.79570390346E+02 0.  0.
          2    1    4    4  502    0 -0.40519325424E+02  0.24670642956E+02 -0.38621807353E+02  0.61172709274E+02  0.00000000000E+00 0. -1.
         -1    1    4    4    0  502 -0.11181908707E+02 -0.51037315290E+02 -0.50246670033E+02  0.72488416204E+02  0.00000000000E+00 0.  1.
          5    1    3    3  503    0 -0.18158348350E+03 -0.18034257898E+03 -0.20362869469E+03  0.32708216487E+03  0.47000000000E+01 0. -1.
         13    1    6    6    0    0  0.14719806116E+02 -0.11928438692E+02 -0.37037940764E+01  0.19304881048E+02  0.00000000000E+00 0. -1.
        -14    1    6    6    0    0  0.50324310741E+02  0.12002641365E+03 -0.14247244964E+02  0.13092692701E+03  0.00000000000E+00 0.  1.
         -5    1    5    5    0  501  0.16824060077E+03  0.98611276349E+02 -0.14516579501E+03  0.24315485110E+03  0.47000000000E+01 0.  1.
<mgrwt>
<rscale>  2 0.35698166E+03</rscale>
<asrwt>0</asrwt>
<pdfrwt beam="1">  1        2 0.30655072E-01 0.35698166E+03</pdfrwt>
<pdfrwt beam="2">  1       -2 0.10074954E+00 0.35698166E+03</pdfrwt>
<totfact> 0.14449202E+02</totfact>
</mgrwt>
</event>
<event>
12    1  0.5759937E-002  0.1919765E+03  0.7546771E-02  0.1156691E+00
         -2   -1    0    0    0  501 -0.00000000000E+00  0.00000000000E+00  0.13261207001E+03  0.13261207001E+03  0.00000000000E+00 0.  1.
          2   -1    0    0  503    0  0.00000000000E+00 -0.00000000000E+00 -0.30849782371E+03  0.30849782371E+03  0.00000000000E+00 0. -1.
          6    2    1    2  503    0 -0.83690043660E+02 -0.12423925217E+02 -0.15714936601E+03  0.24765869335E+03  0.17169894533E+03 0.  0.
         24    2    3    3    0    0 -0.89102104583E+02  0.24372480705E+02 -0.46826843156E+02  0.13114081943E+03  0.80448483051E+02 0.  0.
         -6    2    1    2    0  501  0.83690043660E+02  0.12423925217E+02 -0.18736387688E+02  0.19345120036E+03  0.17295646092E+03 0.  0.
        -24    2    5    5    0    0  0.60890824320E+02  0.10201438131E+02 -0.79167083454E+02  0.12865380194E+03  0.80452543935E+02 0.  0.
          4    1    4    4  502    0 -0.70544216118E+01  0.35196247874E+02 -0.29788629612E+02  0.46646577397E+02  0.00000000000E+00 0. -1.
         -3    1    4    4    0  502 -0.82047682971E+02 -0.10823767170E+02 -0.17038213544E+02  0.84494242038E+02  0.00000000000E+00 0.  1.
          5    1    3    3  503    0  0.54120609236E+01 -0.36796405922E+02 -0.11032252286E+03  0.11651787392E+03  0.47000000000E+01 0. -1.
         13    1    6    6    0    0  0.61692153010E+02 -0.12555184507E+02 -0.84395229031E+02  0.10529059352E+03  0.00000000000E+00 0. -1.
        -14    1    6    6    0    0 -0.80132868972E+00  0.22756622638E+02  0.52281455770E+01  0.23363208421E+02  0.00000000000E+00 0.  1.
         -5    1    5    5    0  501  0.22799219339E+02  0.22224870866E+01  0.60430695766E+02  0.64797398420E+02  0.47000000000E+01 0.  1.
<mgrwt>
<rscale>  2 0.19197649E+03</rscale>
<asrwt>0</asrwt>
<pdfrwt beam="2">  1        2 0.47461203E-01 0.19197649E+03</pdfrwt>
<pdfrwt beam="1">  1       -2 0.20401857E-01 0.19197649E+03</pdfrwt>
<totfact> 0.21271375E+03</totfact>
</mgrwt>
</event>
<event>
12    1  0.5759937E-002  0.1869545E+03  0.7546771E-02  0.1161237E+00
         -2   -1    0    0    0  501 -0.00000000000E+00  0.00000000000E+00  0.12878292742E+03  0.12878292742E+03  0.00000000000E+00 0. -1.
          2   -1    0    0  503    0  0.00000000000E+00 -0.00000000000E+00 -0.52774847023E+03  0.52774847023E+03  0.00000000000E+00 0.  1.
          6    2    1    2  503    0 -0.46397028400E+02 -0.53513735832E+02  0.29141669312E+02  0.18949862320E+03  0.17333230263E+03 0.  0.
         24    2    3    3    0    0 -0.53119461526E+01  0.33965483694E+02 -0.71033070582E+01  0.86172023793E+02  0.78697457766E+02 0.  0.
         -6    2    1    2    0  501  0.46397028400E+02  0.53513735832E+02 -0.42810721211E+03  0.46703277445E+03  0.17270617587E+03 0.  0.
        -24    2    5    5    0    0  0.52299942855E+02  0.96549268605E+02 -0.37286409876E+03  0.39659987693E+03  0.78783126039E+02 0.  0.
          4    1    4    4  502    0 -0.10767031047E+02  0.56887585089E+02  0.76064893362E+01  0.58395076632E+02  0.00000000000E+00 0. -1.
         -3    1    4    4    0  502  0.54550848944E+01 -0.22922101395E+02 -0.14709796394E+02  0.27776947160E+02  0.00000000000E+00 0.  1.
          5    1    3    3  503    0 -0.41085082248E+02 -0.87479219526E+02  0.36244976370E+02  0.10332659940E+03  0.47000000000E+01 0. -1.
         13    1    6    6    0    0  0.12694810113E+02  0.81705531301E+02 -0.16596672641E+03  0.18542358621E+03  0.00000000000E+00 0. -1.
        -14    1    6    6    0    0  0.39605132743E+02  0.14843737304E+02 -0.20689737235E+03  0.21117629072E+03  0.00000000000E+00 0.  1.
         -5    1    5    5    0  501 -0.59029144552E+01 -0.43035532773E+02 -0.55243113353E+02  0.70432897520E+02  0.47000000000E+01 0.  1.
<mgrwt>
<rscale>  2 0.18695452E+03</rscale>
<asrwt>0</asrwt>
<pdfrwt beam="2">  1        2 0.81192073E-01 0.18695452E+03</pdfrwt>
<pdfrwt beam="1">  1       -2 0.19812758E-01 0.18695452E+03</pdfrwt>
<totfact> 0.12465463E+03</totfact>
</mgrwt>
</event>
<event>
12    1  0.5759937E-002  0.2251912E+03  0.7546771E-02  0.1130071E+00
          2   -1    0    0  503    0  0.00000000000E+00  0.00000000000E+00  0.28822315365E+03  0.28822315365E+03  0.00000000000E+00 0. -1.
         -2   -1    0    0    0  501 -0.00000000000E+00 -0.00000000000E+00 -0.17629821544E+03  0.17629821544E+03  0.00000000000E+00 0.  1.
          6    2    1    2  503    0  0.97685581531E+02  0.10543409378E+03  0.66355166693E+02  0.23468706108E+03  0.17325180381E+03 0.  0.
         24    2    3    3    0    0  0.90648132366E+02  0.86330271901E+01  0.64148673698E+02  0.13749173817E+03  0.80605909640E+02 0.  0.
         -6    2    1    2    0  501 -0.97685581531E+02 -0.10543409378E+03  0.45569771513E+02  0.22983430801E+03  0.17346003600E+03 0.  0.
        -24    2    5    5    0    0 -0.68360077306E+02  0.11913708300E+02  0.28060157273E+02  0.10752662860E+03  0.77198230655E+02 0.  0.
          4    1    4    4  502    0  0.64393058580E+02 -0.15796292497E+02  0.74921529147E+02  0.10004611127E+03  0.00000000000E+00 0. -1.
         -3    1    4    4    0  502  0.26255073786E+02  0.24429319687E+02 -0.10772855449E+02  0.37445626906E+02  0.00000000000E+00 0.  1.
          5    1    3    3  503    0  0.70374491645E+01  0.96801066593E+02  0.22064929954E+01  0.97195322910E+02  0.47000000000E+01 0. -1.
         11    1    6    6    0    0 -0.29476772602E+02 -0.13689112773E+02  0.47102802898E+02  0.57227143668E+02  0.00000000000E+00 0. -1.
        -12    1    6    6    0    0 -0.38883304704E+02  0.25602821074E+02 -0.19042645624E+02  0.50299484928E+02  0.00000000000E+00 0.  1.
         -5    1    5    5    0  501 -0.29325504224E+02 -0.11734780208E+03  0.17509614240E+02  0.12230767941E+03  0.47000000000E+01 0.  1.
<mgrwt>
<rscale>  2 0.22519124E+03</rscale>
<asrwt>0</asrwt>
<pdfrwt beam="1">  1        2 0.44342024E-01 0.22519124E+03</pdfrwt>
<pdfrwt beam="2">  1       -2 0.27122802E-01 0.22519124E+03</pdfrwt>
<totfact> 0.13970520E+03</totfact>
</mgrwt>
</event>
<event>
12    1  0.5759937E-002  0.2504537E+03  0.7546771E-02  0.1113018E+00
          2   -1    0    0  503    0  0.00000000000E+00  0.00000000000E+00  0.12623611945E+03  0.12623611945E+03  0.00000000000E+00 0. -1.
         -2   -1    0    0    0  501 -0.00000000000E+00 -0.00000000000E+00 -0.49710108071E+03  0.49710108071E+03  0.00000000000E+00 0.  1.
          6    2    1    2  503    0  0.17838560584E+03 -0.43608131705E+02 -0.18108191430E+03  0.31060931593E+03  0.17310226439E+03 0.  0.
         24    2    3    3    0    0  0.83979846726E+02 -0.49282292544E+02 -0.17128806297E+03  0.21541134863E+03  0.87069452670E+02 0.  0.
         -6    2    1    2    0  501 -0.17838560584E+03  0.43608131705E+02 -0.18978304696E+03  0.31272788423E+03  0.16750531675E+03 0.  0.
        -24    2    5    5    0    0 -0.86039261711E+02  0.11258311017E+02 -0.21280668865E+02  0.11781893216E+03  0.76804490658E+02 0.  0.
          2    1    4    4  502    0  0.40717113783E+02  0.13459263544E+02 -0.10849754082E+03  0.11666512544E+03  0.00000000000E+00 0. -1.
         -1    1    4    4    0  502  0.43262732943E+02 -0.62741556089E+02 -0.62790522141E+02  0.98746223183E+02  0.00000000000E+00 0.  1.
          5    1    3    3  503    0  0.94405759113E+02  0.56741608393E+01 -0.97938513311E+01  0.95197967304E+02  0.47000000000E+01 0. -1.
         11    1    6    6    0    0 -0.61549799138E+02  0.38662325322E+02  0.46593814940E+01  0.72834490519E+02  0.00000000000E+00 0. -1.
        -12    1    6    6    0    0 -0.24489462573E+02 -0.27404014305E+02 -0.25940050359E+02  0.44984441641E+02  0.00000000000E+00 0.  1.
         -5    1    5    5    0  501 -0.92346344128E+02  0.32349820688E+02 -0.16850237810E+03  0.19490895207E+03  0.47000000000E+01 0.  1.
<mgrwt>
<rscale>  2 0.25045372E+03</rscale>
<asrwt>0</asrwt>
<pdfrwt beam="1">  1        2 0.19420941E-01 0.25045372E+03</pdfrwt>
<pdfrwt beam="2">  1       -2 0.76477091E-01 0.25045372E+03</pdfrwt>
<totfact> 0.45280310E+02</totfact>
</mgrwt>
</event>
<event>
12    1  0.5759937E-002  0.1728483E+03  0.7546771E-02  0.1174910E+00
         -1   -1    0    0    0  501 -0.00000000000E+00  0.00000000000E+00  0.31638369952E+02  0.31638369952E+02  0.00000000000E+00 0.  1.
          1   -1    0    0  503    0  0.00000000000E+00 -0.00000000000E+00 -0.98365618403E+03  0.98365618403E+03  0.00000000000E+00 0. -1.
          6    2    1    2  503    0  0.15254943992E+02 -0.10141280728E+02 -0.37174238089E+03  0.40951994826E+03  0.17081753827E+03 0.  0.
         24    2    3    3    0    0  0.16105400546E+02  0.57861415728E+02 -0.25861935562E+03  0.27744421677E+03  0.80523257272E+02 0.  0.
         -6    2    1    2    0  501 -0.15254943992E+02  0.10141280728E+02 -0.58027543319E+03  0.60577460572E+03  0.17293853153E+03 0.  0.
        -24    2    5    5    0    0  0.53095727274E+02 -0.15095273494E+01 -0.42374644687E+03  0.43451174008E+03  0.80112209452E+02 0.  0.
          4    1    4    4  502    0  0.15062035196E+02  0.41323440879E+02 -0.25706512585E+03  0.26080063382E+03  0.00000000000E+00 0. -1.
         -3    1    4    4    0  502  0.10433653497E+01  0.16537974849E+02 -0.15542297682E+01  0.16643582954E+02  0.00000000000E+00 0.  1.
          5    1    3    3  503    0 -0.85045655414E+00 -0.68002696457E+02 -0.11312302527E+03  0.13207573149E+03  0.47000000000E+01 0. -1.
         13    1    6    6    0    0 -0.12546115968E+02  0.10004056270E+02 -0.21010837247E+03  0.21072022767E+03  0.00000000000E+00 0. -1.
        -14    1    6    6    0    0  0.65641843243E+02 -0.11513583619E+02 -0.21363807440E+03  0.22379151240E+03  0.00000000000E+00 0.  1.
         -5    1    5    5    0  501 -0.68350671266E+02  0.11650808078E+02 -0.15652898632E+03  0.17126286564E+03  0.47000000000E+01 0.  1.
<mgrwt>
<rscale>  2 0.17284825E+03</rscale>
<asrwt>0</asrwt>
<pdfrwt beam="2">  1        1 0.15133169E+00 0.17284825E+03</pdfrwt>
<pdfrwt beam="1">  1       -1 0.48674426E-02 0.17284825E+03</pdfrwt>
<totfact> 0.29860812E+03</totfact>
</mgrwt>
</event>
<event>
12    1  0.5759937E-002  0.1838659E+03  0.7546771E-02  0.1164113E+00
         -2   -1    0    0    0  501 -0.00000000000E+00  0.00000000000E+00  0.70836105150E+02  0.70836105150E+02  0.00000000000E+00 0. -1.
          2   -1    0    0  503    0  0.00000000000E+00 -0.00000000000E+00 -0.72009697495E+03  0.72009697495E+03  0.00000000000E+00 0.  1.
          6    2    1    2  503    0 -0.61176894791E+02 -0.14776665574E+02 -0.55536195036E+03  0.58529951016E+03  0.17374595935E+03 0.  0.
         24    2    3    3    0    0  0.10899337871E+02 -0.53013674608E+02 -0.33983115574E+03  0.35479427031E+03  0.86397422218E+02 0.  0.
         -6    2    1    2    0  501  0.61176894791E+02  0.14776665574E+02 -0.93898919444E+02  0.20563356994E+03  0.17177658662E+03 0.  0.
        -24    2    5    5    0    0 -0.23825225226E+02  0.40430843561E+02 -0.41144758146E+02  0.10224793849E+03  0.80990464467E+02 0.  0.
          2    1    4    4  502    0  0.77345335420E+00 -0.58265017325E+02 -0.10828804744E+03  0.12297036917E+03  0.00000000000E+00 0. -1.
         -1    1    4    4    0  502  0.10125884517E+02  0.52513427171E+01 -0.23154310830E+03  0.23182390114E+03  0.00000000000E+00 0.  1.
          5    1    3    3  503    0 -0.72076232663E+02  0.38237009034E+02 -0.21553079461E+03  0.23050523986E+03  0.47000000000E+01 0. -1.
         11    1    6    6    0    0 -0.25241000208E+02 -0.19038169638E+02 -0.34009403208E+01  0.31798213625E+02  0.00000000000E+00 0. -1.
        -12    1    6    6    0    0  0.14157749820E+01  0.59469013199E+02 -0.37743817825E+02  0.70449724866E+02  0.00000000000E+00 0.  1.
         -5    1    5    5    0  501  0.85002120017E+02 -0.25654177986E+02 -0.52754161299E+02  0.10338563145E+03  0.47000000000E+01 0.  1.
<mgrwt>
<rscale>  2 0.18386592E+03</rscale>
<asrwt>0</asrwt>
<pdfrwt beam="2">  1        2 0.11078414E+00 0.18386592E+03</pdfrwt>
<pdfrwt beam="1">  1       -2 0.10897863E-01 0.18386592E+03</pdfrwt>
<totfact> 0.23200805E+03</totfact>
</mgrwt>
</event>
<event>
12    1  0.5759937E-002  0.2376922E+03  0.7546771E-02  0.1121340E+00
          2   -1    0    0  503    0  0.00000000000E+00  0.00000000000E+00  0.90365222171E+03  0.90365222171E+03  0.00000000000E+00 0.  1.
         -2   -1    0    0    0  501 -0.00000000000E+00 -0.00000000000E+00 -0.71207039147E+02  0.71207039147E+02  0.00000000000E+00 0. -1.
          6    2    1    2  503    0  0.10040429947E+03 -0.12974539627E+03  0.58678247518E+03  0.63317583723E+03  0.17228777225E+03 0.  0.
         24    2    3    3    0    0 -0.53169406013E+01 -0.15561492961E+02  0.19766983827E+03  0.21407480099E+03  0.80524688980E+02 0.  0.
         -6    2    1    2    0  501 -0.10040429947E+03  0.12974539627E+03  0.24566270738E+03  0.34168342363E+03  0.17170470284E+03 0.  0.
        -24    2    5    5    0    0 -0.62285963906E+02  0.13352892289E+03  0.10971332012E+03  0.20036234071E+03  0.79990877074E+02 0.  0.
          2    1    4    4  502    0 -0.35833522533E+02 -0.74596570293E+01  0.44184600291E+02  0.57375663160E+02  0.00000000000E+00 0. -1.
         -1    1    4    4    0  502  0.30516581932E+02 -0.81018359318E+01  0.15348523798E+03  0.15669913783E+03  0.00000000000E+00 0.  1.
          5    1    3    3  503    0  0.10572124007E+03 -0.11418390331E+03  0.38911263690E+03  0.41910103624E+03  0.47000000000E+01 0. -1.
         11    1    6    6    0    0  0.16237318198E+02  0.48710519199E+02  0.25341848990E+02  0.57258837686E+02  0.00000000000E+00 0. -1.
        -12    1    6    6    0    0 -0.78523282104E+02  0.84818403691E+02  0.84371471130E+02  0.14310350302E+03  0.00000000000E+00 0.  1.
         -5    1    5    5    0  501 -0.38118335562E+02 -0.37835266194E+01  0.13594938726E+03  0.14132108292E+03  0.47000000000E+01 0.  1.
<mgrwt>
<rscale>  2 0.23769222E+03</rscale>
<asrwt>0</asrwt>
<pdfrwt beam="1">  1        2 0.13902341E+00 0.23769222E+03</pdfrwt>
<pdfrwt beam="2">  1       -2 0.10954930E-01 0.23769222E+03</pdfrwt>
<totfact> 0.17296369E+03</totfact>
</mgrwt>
</event>
<event>
12    1  0.5759937E-002  0.2251354E+03  0.7546771E-02  0.1130111E+00
         -2   -1    0    0    0  501 -0.00000000000E+00  0.00000000000E+00  0.74015160496E+02  0.74015160496E+02  0.00000000000E+00 0. -1.
          2   -1    0    0  503    0  0.00000000000E+00 -0.00000000000E+00 -0.81403425202E+03  0.81403425202E+03  0.00000000000E+00 0.  1.
          6    2    1    2  503    0  0.13309058751E+02  0.14367446261E+03 -0.19339655796E+03  0.29696235058E+03  0.17310380348E+03 0.  0.
         24    2    3    3    0    0  0.38353145745E+01  0.74592094166E+02 -0.19870193959E+03  0.22687410240E+03  0.80066893247E+02 0.  0.
         -6    2    1    2    0  501 -0.13309058751E+02 -0.14367446261E+03 -0.54662253356E+03  0.59108706193E+03  0.17253474531E+03 0.  0.
        -24    2    5    5    0    0 -0.25684137997E+02 -0.72850693516E+02 -0.14467470977E+03  0.18273269144E+03  0.80582668002E+02 0.  0.
          4    1    4    4  502    0 -0.35793398148E+01  0.78174431031E+02 -0.96055992815E+02  0.12389837407E+03  0.00000000000E+00 0. -1.
         -3    1    4    4    0  502  0.74146543894E+01 -0.35823368652E+01 -0.10264594677E+03  0.10297572833E+03  0.00000000000E+00 0.  1.
          5    1    3    3  503    0  0.94737441760E+01  0.69082368445E+02  0.53053816262E+01  0.70088248179E+02  0.47000000000E+01 0. -1.
         13    1    6    6    0    0  0.42345029368E+01 -0.78460624832E+02 -0.12052767214E+03  0.14387814433E+03  0.00000000000E+00 0. -1.
        -14    1    6    6    0    0 -0.29918640934E+02  0.56099313154E+01 -0.24147037632E+02  0.38854547110E+02  0.00000000000E+00 0.  1.
         -5    1    5    5    0  501  0.12375079246E+02 -0.70823769094E+02 -0.40194782378E+03  0.40835437049E+03  0.47000000000E+01 0.  1.
<mgrwt>
<rscale>  2 0.22513545E+03</rscale>
<asrwt>0</asrwt>
<pdfrwt beam="2">  1        2 0.12523604E+00 0.22513545E+03</pdfrwt>
<pdfrwt beam="1">  1       -2 0.11386948E-01 0.22513545E+03</pdfrwt>
<totfact> 0.18626063E+03</totfact>
</mgrwt>
</event>
<event>
12    1  0.5759937E-002  0.1975548E+03  0.7546771E-02  0.1151819E+00
          2   -1    0    0  503    0  0.00000000000E+00  0.00000000000E+00  0.31965526285E+04  0.31965526285E+04  0.00000000000E+00 0. -1.
         -2   -1    0    0    0  501 -0.00000000000E+00 -0.00000000000E+00 -0.14097963677E+02  0.14097963677E+02  0.00000000000E+00 0.  1.
          6    2    1    2  503    0 -0.50316071563E+02 -0.76190154307E+02  0.21704506992E+04  0.21793161739E+04  0.17385655417E+03 0.  0.
         24    2    3    3    0    0 -0.75317804977E+02 -0.24296886990E+02  0.18652931654E+04  0.18687341263E+04  0.81151286660E+02 0.  0.
         -6    2    1    2    0  501  0.50316071563E+02  0.76190154307E+02  0.10120039656E+04  0.10313344183E+04  0.17652764442E+03 0.  0.
        -24    2    5    5    0    0  0.57401428201E+02  0.69296059914E+02  0.10131223346E+04  0.10203311658E+04  0.81005896153E+02 0.  0.
          2    1    4    4  502    0 -0.78862014105E+02 -0.45836064913E+02  0.14475566525E+04  0.14504276695E+04  0.00000000000E+00 0. -1.
         -1    1    4    4    0  502  0.35442091277E+01  0.21539177923E+02  0.41773651290E+03  0.41830645681E+03  0.00000000000E+00 0.  1.
          5    1    3    3  503    0  0.25001733415E+02 -0.51893267317E+02  0.30515753375E+03  0.31058204756E+03  0.47000000000E+01 0. -1.
         13    1    6    6    0    0  0.17007651298E+02  0.58657649611E+02  0.84092514066E+03  0.84314000751E+03  0.00000000000E+00 0. -1.
        -14    1    6    6    0    0  0.40393776903E+02  0.10638410303E+02  0.17219719390E+03  0.17719115829E+03  0.00000000000E+00 0.  1.
         -5    1    5    5    0  501 -0.70853566385E+01  0.68940943928E+01 -0.11183689547E+01  0.11003252488E+02  0.47000000000E+01 0.  1.
<mgrwt>
<rscale>  2 0.19755479E+03</rscale>
<asrwt>0</asrwt>
<pdfrwt beam="1">  1        2 0.49177675E+00 0.19755479E+03</pdfrwt>
<pdfrwt beam="2">  1       -2 0.21689200E-02 0.19755479E+03</pdfrwt>
<totfact> 0.11040810E+03</totfact>
</mgrwt>
</event>
<event>
12    1  0.5759937E-002  0.1776018E+03  0.7546771E-02  0.1170144E+00
          1   -1    0    0  503    0  0.00000000000E+00  0.00000000000E+00  0.23985931061E+04  0.23985931061E+04  0.00000000000E+00 0.  1.
         -1   -1    0    0    0  501 -0.00000000000E+00 -0.00000000000E+00 -0.13655903639E+02  0.13655903639E+02  0.00000000000E+00 0. -1.
          6    2    1    2  503    0  0.39612602300E+00  0.41296603010E+02  0.14238435362E+04  0.14348641169E+04  0.17262401883E+03 0.  0.
         24    2    3    3    0    0 -0.61936030826E+02  0.27570632673E+02  0.60561488807E+03  0.61413644540E+03  0.76144397168E+02 0.  0.
         -6    2    1    2    0  501 -0.39612602300E+00 -0.41296603010E+02  0.96109366619E+03  0.97738489283E+03  0.17284278176E+03 0.  0.
        -24    2    5    5    0    0 -0.15176806504E+02 -0.77003465661E+01  0.21541070824E+03  0.23078436997E+03  0.81055668548E+02 0.  0.
          2    1    4    4  502    0 -0.61487089125E+02  0.49975165274E+02  0.45127886034E+03  0.45818204795E+03  0.00000000000E+00 0. -1.
         -1    1    4    4    0  502 -0.44894170100E+00 -0.22404532601E+02  0.15433602773E+03  0.15595439745E+03  0.00000000000E+00 0.  1.
          5    1    3    3  503    0  0.62332156849E+02  0.13725970337E+02  0.81822864818E+03  0.82072767148E+03  0.47000000000E+01 0. -1.
         11    1    6    6    0    0  0.16505227411E+02  0.68377792593E+01  0.65401332152E+01  0.19025012472E+02  0.00000000000E+00 0. -1.
        -12    1    6    6    0    0 -0.31682033915E+02 -0.14538125825E+02  0.20887057502E+03  0.21175935749E+03  0.00000000000E+00 0.  1.
         -5    1    5    5    0  501  0.14780680481E+02 -0.33596256444E+02  0.74568295795E+03  0.74660052286E+03  0.47000000000E+01 0.  1.
<mgrwt>
<rscale>  2 0.17760175E+03</rscale>
<asrwt>0</asrwt>
<pdfrwt beam="1">  1        1 0.36901399E+00 0.17760175E+03</pdfrwt>
<pdfrwt beam="2">  1       -1 0.21009102E-02 0.17760175E+03</pdfrwt>
<totfact> 0.11915816E+03</totfact>
</mgrwt>
</event>
<event>
12    1  0.5759937E-002  0.1876295E+03  0.7546771E-02  0.1160617E+00
          2   -1    0    0  503    0  0.00000000000E+00  0.00000000000E+00  0.15707260601E+04  0.15707260601E+04  0.00000000000E+00 0.  1.
         -2   -1    0    0    0  501 -0.00000000000E+00 -0.00000000000E+00 -0.81473027725E+02  0.81473027725E+02  0.00000000000E+00 0. -1.
          6    2    1    2  503    0  0.20019953911E+02 -0.85732906607E+02  0.14542462347E+04  0.14670862873E+04  0.17250835760E+03 0.  0.
         24    2    3    3    0    0  0.18960849861E+02 -0.69990683026E+02  0.45201823439E+03  0.46472308272E+03  0.79930281218E+02 0.  0.
         -6    2    1    2    0  501 -0.20019953911E+02  0.85732906607E+02  0.35006797679E+02  0.18511280052E+03  0.15902937843E+03 0.  0.
        -24    2    5    5    0    0  0.18979739975E+02  0.10519004885E+02 -0.94395809494E+01  0.89323042672E+02  0.86131412797E+02 0.  0.
          4    1    4    4  502    0  0.38383063921E+02 -0.48449535370E+02  0.16422717728E+03  0.17547416571E+03  0.00000000000E+00 0. -1.
         -3    1    4    4    0  502 -0.19422214060E+02 -0.21541147655E+02  0.28779105710E+03  0.28924891701E+03  0.00000000000E+00 0.  1.
          5    1    3    3  503    0  0.10591040500E+01 -0.15742223581E+02  0.10022280003E+04  0.10023632046E+04  0.47000000000E+01 0. -1.
         13    1    6    6    0    0  0.80174005119E+01  0.46190726992E+02  0.89370897628E+01  0.47725606800E+02  0.00000000000E+00 0. -1.
        -14    1    6    6    0    0  0.10962339463E+02 -0.35671722107E+02 -0.18376670712E+02  0.41597435871E+02  0.00000000000E+00 0.  1.
         -5    1    5    5    0  501 -0.38999693886E+02  0.75213901722E+02  0.44446378629E+02  0.95789757849E+02  0.47000000000E+01 0.  1.
<mgrwt>
<rscale>  2 0.18762951E+03</rscale>
<asrwt>0</asrwt>
<pdfrwt beam="1">  1        2 0.24165014E+00 0.18762951E+03</pdfrwt>
<pdfrwt beam="2">  1       -2 0.12534313E-01 0.18762951E+03</pdfrwt>
<totfact> 0.58507708E+02</totfact>
</mgrwt>
</event>
<event>
12    1  0.5759937E-002  0.2386968E+03  0.7546771E-02  0.1120664E+00
          2   -1    0    0  503    0  0.00000000000E+00  0.00000000000E+00  0.15717850885E+04  0.15717850885E+04  0.00000000000E+00 0. -1.
         -2   -1    0    0    0  501 -0.00000000000E+00 -0.00000000000E+00 -0.36537585142E+02  0.36537585142E+02  0.00000000000E+00 0.  1.
          6    2    1    2  503    0 -0.14919274110E+03 -0.77737602112E+02  0.70557444864E+03  0.74574755106E+03  0.17321229334E+03 0.  0.
         24    2    3    3    0    0 -0.16432683782E+03 -0.51364925637E+02  0.46206550954E+03  0.50030254222E+03  0.84595705712E+02 0.  0.
         -6    2    1    2    0  501  0.14919274110E+03  0.77737602112E+02  0.82967305473E+03  0.86257512259E+03  0.16545952854E+03 0.  0.
        -24    2    5    5    0    0  0.14829953337E+03  0.11279490347E+02  0.59473493422E+03  0.61837133697E+03  0.80953628156E+02 0.  0.
          2    1    4    4  502    0 -0.90165941599E+02 -0.68115889238E+02  0.31667138248E+03  0.33622973675E+03  0.00000000000E+00 0. -1.
         -1    1    4    4    0  502 -0.74160896225E+02  0.16750963601E+02  0.14539412706E+03  0.16407280547E+03  0.00000000000E+00 0.  1.
          5    1    3    3  503    0  0.15134096721E+02 -0.26372676475E+02  0.24350893910E+03  0.24544500885E+03  0.47000000000E+01 0. -1.
         13    1    6    6    0    0  0.27770339683E+02 -0.14455643672E+02  0.25608937272E+03  0.25799597714E+03  0.00000000000E+00 0. -1.
        -14    1    6    6    0    0  0.12052919368E+03  0.25735134019E+02  0.33864556150E+03  0.36037535983E+03  0.00000000000E+00 0.  1.
         -5    1    5    5    0  501  0.89320773716E+00  0.66458111765E+02  0.23493812051E+03  0.24420378562E+03  0.47000000000E+01 0.  1.
<mgrwt>
<rscale>  2 0.23869680E+03</rscale>
<asrwt>0</asrwt>
<pdfrwt beam="1">  1        2 0.24181304E+00 0.23869680E+03</pdfrwt>
<pdfrwt beam="2">  1       -2 0.56211682E-02 0.23869680E+03</pdfrwt>
<totfact> 0.20460586E+03</totfact>
</mgrwt>
</event>
<event>
12    1  0.5759937E-002  0.1988452E+03  0.7546771E-02  0.1150717E+00
          2   -1    0    0  503    0  0.00000000000E+00  0.00000000000E+00  0.73007019341E+03  0.73007019341E+03  0.00000000000E+00 0. -1.
         -2   -1    0    0    0  501 -0.00000000000E+00 -0.00000000000E+00 -0.55114893818E+02  0.55114893818E+02  0.00000000000E+00 0.  1.
          6    2    1    2  503    0  0.96735409230E+02 -0.13056806702E+02  0.28486202969E+03  0.34708804386E+03  0.17261377301E+03 0.  0.
         24    2    3    3    0    0  0.10417713586E+02 -0.33228759185E+02  0.65398901959E+02  0.11035231212E+03  0.81779809367E+02 0.  0.
         -6    2    1    2    0  501 -0.96735409230E+02  0.13056806702E+02  0.39009326990E+03  0.43809704337E+03  0.17386213096E+03 0.  0.
        -24    2    5    5    0    0 -0.85806975164E+00  0.51280191567E+02  0.18760722571E+03  0.21077309067E+03  0.81230722526E+02 0.  0.
          2    1    4    4  502    0  0.37074446526E+02  0.96258478458E+01  0.30984302411E+02  0.49266606619E+02  0.00000000000E+00 0. -1.
         -1    1    4    4    0  502 -0.26656732939E+02 -0.42854607031E+02  0.34414599548E+02  0.61085705504E+02  0.00000000000E+00 0.  1.
          5    1    3    3  503    0  0.86317695644E+02  0.20171952483E+02  0.21946312773E+03  0.23673573173E+03  0.47000000000E+01 0. -1.
         13    1    6    6    0    0  0.96609429001E+01  0.71872132747E+02  0.15031621761E+03  0.16689488476E+03  0.00000000000E+00 0. -1.
        -14    1    6    6    0    0 -0.10519012652E+02 -0.20591941180E+02  0.37291008099E+02  0.43878205908E+02  0.00000000000E+00 0.  1.
         -5    1    5    5    0  501 -0.95877339479E+02 -0.38223384864E+02  0.20248604420E+03  0.22732395270E+03  0.47000000000E+01 0.  1.
<mgrwt>
<rscale>  2 0.19884518E+03</rscale>
<asrwt>0</asrwt>
<pdfrwt beam="1">  1        2 0.11231848E+00 0.19884518E+03</pdfrwt>
<pdfrwt beam="2">  1       -2 0.84792150E-02 0.19884518E+03</pdfrwt>
<totfact> 0.33977353E+03</totfact>
</mgrwt>
</event>
<event>
12    1  0.5759937E-002  0.2242555E+03  0.7546771E-02  0.1130750E+00
          1   -1    0    0  503    0  0.00000000000E+00  0.00000000000E+00  0.30924550297E+04  0.30924550297E+04  0.00000000000E+00 0. -1.
         -1   -1    0    0    0  501 -0.00000000000E+00 -0.00000000000E+00 -0.18265682982E+02  0.18265682982E+02  0.00000000000E+00 0.  1.
          6    2    1    2  503    0 -0.13732992403E+03  0.35443543781E+02  0.20551333286E+04  0.20673850150E+04  0.17433315608E+03 0.  0.
         24    2    3    3    0    0 -0.15625781493E+03 -0.78155396926E+01  0.15098366568E+04  0.15200275782E+04  0.79997006228E+02 0.  0.
         -6    2    1    2    0  501  0.13732992403E+03 -0.35443543781E+02  0.10190560181E+04  0.10433356976E+04  0.17308511506E+03 0.  0.
        -24    2    5    5    0    0  0.19537960833E+02  0.26770935597E+02  0.48519071647E+03  0.49308135794E+03  0.81368171283E+02 0.  0.
          2    1    4    4  502    0 -0.15231844413E+03 -0.19783255298E+02  0.14751227869E+04  0.14830979475E+04  0.00000000000E+00 0. -1.
         -1    1    4    4    0  502 -0.39393708036E+01  0.11967715605E+02  0.34713869918E+02  0.36929630703E+02  0.00000000000E+00 0.  1.
          5    1    3    3  503    0  0.18927890901E+02  0.43259083474E+02  0.54529667180E+03  0.54735743682E+03  0.47000000000E+01 0. -1.
         13    1    6    6    0    0 -0.12988280775E+01 -0.13578312160E+02  0.35382613239E+03  0.35408895702E+03  0.00000000000E+00 0. -1.
        -14    1    6    6    0    0  0.20836788910E+02  0.40349247756E+02  0.13136458407E+03  0.13899240092E+03  0.00000000000E+00 0.  1.
         -5    1    5    5    0  501  0.11779196320E+03 -0.62214479378E+02  0.53386530166E+03  0.55025433970E+03  0.47000000000E+01 0.  1.
<mgrwt>
<rscale>  2 0.22425552E+03</rscale>
<asrwt>0</asrwt>
<pdfrwt beam="1">  1        1 0.47576190E+00 0.22425552E+03</pdfrwt>
<pdfrwt beam="2">  1       -1 0.28101075E-02 0.22425552E+03</pdfrwt>
<totfact> 0.26182750E+02</totfact>
</mgrwt>
</event>
<event>
12    1  0.5759937E-002  0.1978907E+03  0.7546771E-02  0.1151531E+00
         -2   -1    0    0    0  501 -0.00000000000E+00  0.00000000000E+00  0.57485146272E+03  0.57485146272E+03  0.00000000000E+00 0. -1.
          2   -1    0    0  503    0  0.00000000000E+00 -0.00000000000E+00 -0.72098465359E+02  0.72098465359E+02  0.00000000000E+00 0.  1.
          6    2    1    2  503    0 -0.94747738686E+02  0.25994727924E+02  0.17608906390E+03  0.26530597293E+03  0.17241531540E+03 0.  0.
         24    2    3    3    0    0 -0.79549354874E+02  0.37006306701E+02  0.20115635353E+03  0.23364045941E+03  0.80164949388E+02 0.  0.
         -6    2    1    2    0  501  0.94747738686E+02 -0.25994727924E+02  0.32666393345E+03  0.38164395514E+03  0.17114299053E+03 0.  0.
        -24    2    5    5    0    0  0.55577281355E+01 -0.13441866070E+02  0.24237518688E+03  0.25819714424E+03  0.87797847193E+02 0.  0.
          4    1    4    4  502    0 -0.88174962203E+02  0.12034228571E+02  0.17570018586E+03  0.19695228338E+03  0.00000000000E+00 0. -1.
         -3    1    4    4    0  502  0.86256073293E+01  0.24972078129E+02  0.25456167669E+02  0.36688176028E+02  0.00000000000E+00 0.  1.
          5    1    3    3  503    0 -0.15198383812E+02 -0.11011578777E+02 -0.25067289627E+02  0.31665513527E+02  0.47000000000E+01 0. -1.
         13    1    6    6    0    0  0.32215421859E+02 -0.24623287439E+02  0.21358004370E+03  0.21739497409E+03  0.00000000000E+00 0. -1.
        -14    1    6    6    0    0 -0.26657693724E+02  0.11181421369E+02  0.28795143181E+02  0.40802170155E+02  0.00000000000E+00 0.  1.
         -5    1    5    5    0  501  0.89190010550E+02 -0.12552861853E+02  0.84288746570E+02  0.12344681090E+03  0.47000000000E+01 0.  1.
<mgrwt>
<rscale>  2 0.19789071E+03</rscale>
<asrwt>0</asrwt>
<pdfrwt beam="2">  1        2 0.11092072E-01 0.19789071E+03</pdfrwt>
<pdfrwt beam="1">  1       -2 0.88438683E-01 0.19789071E+03</pdfrwt>
<totfact> 0.63641609E+02</totfact>
</mgrwt>
</event>
<event>
12    1  0.5759937E-002  0.1899062E+03  0.7546771E-02  0.1158546E+00
         -1   -1    0    0    0  501 -0.00000000000E+00  0.00000000000E+00  0.10052697703E+03  0.10052697703E+03  0.00000000000E+00 0. -1.
          1   -1    0    0  503    0  0.00000000000E+00 -0.00000000000E+00 -0.79418606059E+03  0.79418606059E+03  0.00000000000E+00 0.  1.
          6    2    1    2  503    0 -0.59847931877E+02 -0.19849974476E+02 -0.67923072139E+03  0.70566212209E+03  0.18063460695E+03 0.  0.
         24    2    3    3    0    0 -0.69039066854E+02 -0.62124080712E+02 -0.62060847618E+03  0.63265366604E+03  0.80436225016E+02 0.  0.
         -6    2    1    2    0  501  0.59847931877E+02  0.19849974476E+02 -0.14428362174E+02  0.18905091553E+03  0.17764085845E+03 0.  0.
        -24    2    5    5    0    0  0.79155855467E+02  0.17715091546E+01  0.47016735932E+02  0.12198962339E+03  0.80013168033E+02 0.  0.
          4    1    4    4  502    0 -0.28336731420E+02 -0.46157225470E+02 -0.14081019636E+03  0.15086739611E+03  0.00000000000E+00 0. -1.
         -3    1    4    4    0  502 -0.40702335434E+02 -0.15966855243E+02 -0.47979827982E+03  0.48178626993E+03  0.00000000000E+00 0.  1.
          5    1    3    3  503    0  0.91911349769E+01  0.42274106236E+02 -0.58622245215E+02  0.73008456046E+02  0.47000000000E+01 0. -1.
         13    1    6    6    0    0  0.14657142355E+02 -0.25955438292E+02  0.42136967833E+02  0.51614345459E+02  0.00000000000E+00 0. -1.
        -14    1    6    6    0    0  0.64498713112E+02  0.27726947446E+02  0.48797680982E+01  0.70375277935E+02  0.00000000000E+00 0.  1.
         -5    1    5    5    0  501 -0.19307923590E+02  0.18078465322E+02 -0.61445098105E+02  0.67061292135E+02  0.47000000000E+01 0.  1.
<mgrwt>
<rscale>  2 0.18990623E+03</rscale>
<asrwt>0</asrwt>
<pdfrwt beam="2">  1        1 0.12218247E+00 0.18990623E+03</pdfrwt>
<pdfrwt beam="1">  1       -1 0.15465689E-01 0.18990623E+03</pdfrwt>
<totfact> 0.71830003E+02</totfact>
</mgrwt>
</event>
<event>
12    1  0.5759937E-002  0.1839128E+03  0.7546771E-02  0.1164069E+00
         -1   -1    0    0    0  501 -0.00000000000E+00  0.00000000000E+00  0.92181875710E+03  0.92181875710E+03  0.00000000000E+00 0.  1.
          1   -1    0    0  503    0  0.00000000000E+00 -0.00000000000E+00 -0.49154081819E+02  0.49154081819E+02  0.00000000000E+00 0. -1.
          6    2    1    2  503    0  0.59264013284E+02 -0.39278938687E+02  0.67649645890E+03  0.70043488546E+03  0.16705242164E+03 0.  0.
         24    2    3    3    0    0  0.42131966982E+02  0.97848620253E+01  0.18094131408E+03  0.20214003790E+03  0.79056875820E+02 0.  0.
         -6    2    1    2    0  501 -0.59264013284E+02  0.39278938687E+02  0.19616821639E+03  0.27053795346E+03  0.17220266214E+03 0.  0.
        -24    2    5    5    0    0 -0.33954340012E+02 -0.41520333976E+02  0.13594294296E+03  0.16652701373E+03  0.79836878836E+02 0.  0.
          2    1    4    4  502    0  0.60247075420E+02 -0.12342269104E+02  0.12147542738E+03  0.13615550360E+03  0.00000000000E+00 0. -1.
         -1    1    4    4    0  502 -0.18115108438E+02  0.22127131129E+02  0.59465886705E+02  0.65984534305E+02  0.00000000000E+00 0.  1.
          5    1    3    3  503    0  0.17132046302E+02 -0.49063800712E+02  0.49555514482E+03  0.49829484756E+03  0.47000000000E+01 0. -1.
         11    1    6    6    0    0  0.16371066604E+02 -0.86426119377E+01  0.69929036390E+00  0.18525538315E+02  0.00000000000E+00 0. -1.
        -12    1    6    6    0    0 -0.50325406615E+02 -0.32877722039E+02  0.13524365260E+03  0.14800147542E+03  0.00000000000E+00 0.  1.
         -5    1    5    5    0  501 -0.25309673272E+02  0.80799272663E+02  0.60225273422E+02  0.10401093973E+03  0.47000000000E+01 0.  1.
<mgrwt>
<rscale>  2 0.18391278E+03</rscale>
<asrwt>0</asrwt>
<pdfrwt beam="2">  1        1 0.75621671E-02 0.18391278E+03</pdfrwt>
<pdfrwt beam="1">  1       -1 0.14181826E+00 0.18391278E+03</pdfrwt>
<totfact> 0.41108821E+02</totfact>
</mgrwt>
</event>
<event>
12    1  0.5759937E-002  0.1773873E+03  0.7546771E-02  0.1170356E+00
         -1   -1    0    0    0  501 -0.00000000000E+00  0.00000000000E+00  0.61932302602E+02  0.61932302602E+02  0.00000000000E+00 0. -1.
          1   -1    0    0  503    0  0.00000000000E+00 -0.00000000000E+00 -0.11402410206E+04  0.11402410206E+04  0.00000000000E+00 0.  1.
          6    2    1    2  503    0  0.32226047785E+02  0.22378949165E+02 -0.90232224819E+02  0.19812064187E+03  0.17196103866E+03 0.  0.
         24    2    3    3    0    0  0.73337973243E+02  0.56740734693E+02 -0.64500013480E+02  0.13849548426E+03  0.80142236857E+02 0.  0.
         -6    2    1    2    0  501 -0.32226047785E+02 -0.22378949165E+02 -0.98807649315E+03  0.10040526813E+04  0.17403245386E+03 0.  0.
        -24    2    5    5    0    0  0.44799508354E+02 -0.36249183883E+02 -0.48434663551E+03  0.49425744870E+03  0.79860897711E+02 0.  0.
          2    1    4    4  502    0  0.58349693703E+02  0.76563205671E+02 -0.59435610954E+02  0.11313356296E+03  0.00000000000E+00 0. -1.
         -1    1    4    4    0  502  0.14988279539E+02 -0.19822470978E+02 -0.50644025268E+01  0.25361921303E+02  0.00000000000E+00 0.  1.
          5    1    3    3  503    0 -0.41111925458E+02 -0.34361785528E+02 -0.25732211338E+02  0.59625157608E+02  0.47000000000E+01 0. -1.
         13    1    6    6    0    0  0.14514834893E+01  0.95940434890E+01 -0.52657520635E+01  0.11039955597E+02  0.00000000000E+00 0. -1.
        -14    1    6    6    0    0  0.43348024865E+02 -0.45843227372E+02 -0.47908088345E+03  0.48321749310E+03  0.00000000000E+00 0.  1.
         -5    1    5    5    0  501 -0.77025556139E+02  0.13870234718E+02 -0.50372985764E+03  0.50979523260E+03  0.47000000000E+01 0.  1.
<mgrwt>
<rscale>  2 0.17738727E+03</rscale>
<asrwt>0</asrwt>
<pdfrwt beam="2">  1        1 0.17542169E+00 0.17738727E+03</pdfrwt>
<pdfrwt beam="1">  1       -1 0.95280471E-02 0.17738727E+03</pdfrwt>
<totfact> 0.83612343E+02</totfact>
</mgrwt>
</event>
<event>
12    1  0.5759937E-002  0.3063447E+03  0.7546771E-02  0.1082111E+00
         -2   -1    0    0    0  501 -0.00000000000E+00  0.00000000000E+00  0.46650896969E+03  0.46650896969E+03  0.00000000000E+00 0.  1.
          2   -1    0    0  503    0  0.00000000000E+00 -0.00000000000E+00 -0.20315987297E+03  0.20315987297E+03  0.00000000000E+00 0. -1.
          6    2    1    2  503    0 -0.16742918555E+03 -0.19116341977E+03  0.16512998795E+03  0.34867356746E+03  0.17242203598E+03 0.  0.
         24    2    3    3    0    0 -0.57612783994E+02 -0.59815152710E+02  0.64876926348E+01  0.11521805312E+03  0.79599147207E+02 0.  0.
         -6    2    1    2    0  501  0.16742918555E+03  0.19116341977E+03  0.98219108775E+02  0.32099527520E+03  0.16974978097E+03 0.  0.
        -24    2    5    5    0    0  0.75909196523E+02  0.17161721615E+03  0.31666934224E+02  0.20606379820E+03  0.79024168514E+02 0.  0.
          4    1    4    4  502    0 -0.57437012398E+02 -0.74142340944E+02 -0.88800228838E+01  0.94206963226E+02  0.00000000000E+00 0. -1.
         -3    1    4    4    0  502 -0.17577159640E+00  0.14327188234E+02  0.15367715519E+02  0.21011089896E+02  0.00000000000E+00 0.  1.
          5    1    3    3  503    0 -0.10981640156E+03 -0.13134826706E+03  0.15864229532E+03  0.23345551434E+03  0.47000000000E+01 0. -1.
         11    1    6    6    0    0  0.39157227594E+02  0.22292163668E+02 -0.11181298602E+02  0.46424675252E+02  0.00000000000E+00 0. -1.
        -12    1    6    6    0    0  0.36751968929E+02  0.14932505249E+03  0.42848232826E+02  0.15963912295E+03  0.00000000000E+00 0.  1.
         -5    1    5    5    0  501  0.91519989027E+02  0.19546203620E+02  0.66552174551E+02  0.11493147700E+03  0.47000000000E+01 0.  1.
<mgrwt>
<rscale>  2 0.30634465E+03</rscale>
<asrwt>0</asrwt>
<pdfrwt beam="2">  1        2 0.31255365E-01 0.30634465E+03</pdfrwt>
<pdfrwt beam="1">  1       -2 0.71770610E-01 0.30634465E+03</pdfrwt>
<totfact> 0.30410781E+02</totfact>
</mgrwt>
</event>
<event>
12    1  0.5759937E-002  0.2151702E+03  0.7546771E-02  0.1137536E+00
         -2   -1    0    0    0  501 -0.00000000000E+00  0.00000000000E+00  0.16205684560E+03  0.16205684560E+03  0.00000000000E+00 0. -1.
          2   -1    0    0  503    0  0.00000000000E+00 -0.00000000000E+00 -0.31583718057E+03  0.31583718057E+03  0.00000000000E+00 0.  1.
          6    2    1    2  503    0 -0.90960083470E-01 -0.12846865078E+03 -0.15096468300E+03  0.26350201386E+03  0.17360522252E+03 0.  0.
         24    2    3    3    0    0 -0.50447734277E+02 -0.93377065119E+02 -0.15160063249E+03  0.20194132410E+03  0.80828809373E+02 0.  0.
         -6    2    1    2    0  501  0.90960083470E-01  0.12846865078E+03 -0.28156519672E+01  0.21439201231E+03  0.17161528061E+03 0.  0.
        -24    2    5    5    0    0 -0.22460982146E+02  0.15007640282E+03  0.23765880133E+02  0.17311062552E+03  0.79843905264E+02 0.  0.
          2    1    4    4  502    0 -0.20677411536E+02  0.11408976173E+02 -0.36427876651E+02  0.43413250080E+02  0.00000000000E+00 0. -1.
         -1    1    4    4    0  502 -0.29770322741E+02 -0.10478604129E+03 -0.11517275584E+03  0.15852807402E+03  0.00000000000E+00 0.  1.
          5    1    3    3  503    0  0.50356774194E+02 -0.35091585664E+02  0.63594948644E+00  0.61560689757E+02  0.47000000000E+01 0. -1.
         13    1    6    6    0    0  0.15835136714E+02  0.12357282626E+03  0.12606694957E+02  0.12521950209E+03  0.00000000000E+00 0. -1.
        -14    1    6    6    0    0 -0.38296118861E+02  0.26503576559E+02  0.11159185176E+02  0.47891123437E+02  0.00000000000E+00 0.  1.
         -5    1    5    5    0  501  0.22551942230E+02 -0.21607752038E+02 -0.26581532100E+02  0.41281386789E+02  0.47000000000E+01 0.  1.
<mgrwt>
<rscale>  2 0.21517021E+03</rscale>
<asrwt>0</asrwt>
<pdfrwt beam="2">  1        2 0.48590335E-01 0.21517021E+03</pdfrwt>
<pdfrwt beam="1">  1       -2 0.24931823E-01 0.21517021E+03</pdfrwt>
<totfact> 0.14687874E+03</totfact>
</mgrwt>
</event>
<event>
12    1  0.5759937E-002  0.1741391E+03  0.7546771E-02  0.1173599E+00
          2   -1    0    0  503    0  0.00000000000E+00  0.00000000000E+00  0.25859145489E+03  0.25859145489E+03  0.00000000000E+00 0.  1.
         -2   -1    0    0    0  501 -0.00000000000E+00 -0.00000000000E+00 -0.21590583157E+03  0.21590583157E+03  0.00000000000E+00 0. -1.
          6    2    1    2  503    0  0.11630199477E+02  0.17782840842E+02  0.18169857977E+03  0.25163640374E+03  0.17278603771E+03 0.  0.
         24    2    3    3    0    0 -0.53344183392E+02  0.52740347472E+02  0.12391703514E+03  0.15780413531E+03  0.62606448297E+02 0.  0.
         -6    2    1    2    0  501 -0.11630199477E+02 -0.17782840842E+02 -0.13901295644E+03  0.22286088272E+03  0.17288979155E+03 0.  0.
        -24    2    5    5    0    0 -0.95274180018E+01  0.21736970474E+02 -0.15780912823E+03  0.17879702849E+03  0.80631190389E+02 0.  0.
          2    1    4    4  502    0 -0.14672154761E+02  0.28894343707E+02  0.10264283665E+03  0.10763692275E+03  0.00000000000E+00 0. -1.
         -1    1    4    4    0  502 -0.38672028631E+02  0.23846003766E+02  0.21274198487E+02  0.50167212552E+02  0.00000000000E+00 0.  1.
          5    1    3    3  503    0  0.64974382869E+02 -0.34957506631E+02  0.57781544631E+02  0.93832268432E+02  0.47000000000E+01 0. -1.
         13    1    6    6    0    0 -0.25014328604E+02 -0.15479768346E+02 -0.20922187919E+02  0.36098169079E+02  0.00000000000E+00 0. -1.
        -14    1    6    6    0    0  0.15486910602E+02  0.37216738820E+02 -0.13688694031E+03  0.14269885941E+03  0.00000000000E+00 0.  1.
         -5    1    5    5    0  501 -0.21027814749E+01 -0.39519811315E+02  0.18796171787E+02  0.44063854236E+02  0.47000000000E+01 0.  1.
<mgrwt>
<rscale>  2 0.17413912E+03</rscale>
<asrwt>0</asrwt>
<pdfrwt beam="1">  1        2 0.39783301E-01 0.17413912E+03</pdfrwt>
<pdfrwt beam="2">  1       -2 0.33216282E-01 0.17413912E+03</pdfrwt>
<totfact> 0.10812578E+03</totfact>
</mgrwt>
</event>
<event>
12    1  0.5759937E-002  0.1818850E+03  0.7546771E-02  0.1165991E+00
         -2   -1    0    0    0  501 -0.00000000000E+00  0.00000000000E+00  0.16193426677E+03  0.16193426677E+03  0.00000000000E+00 0. -1.
          2   -1    0    0  503    0  0.00000000000E+00 -0.00000000000E+00 -0.25775357899E+03  0.25775357899E+03  0.00000000000E+00 0.  1.
          6    2    1    2  503    0 -0.56142976941E+02 -0.68760674472E+01 -0.14343130998E+03  0.23146543536E+03  0.17263948830E+03 0.  0.
         24    2    3    3    0    0  0.27628115904E+02 -0.26997987397E+02 -0.10256428893E+03  0.13599454415E+03  0.80516324824E+02 0.  0.
         -6    2    1    2    0  501  0.56142976941E+02  0.68760674472E+01  0.47611997753E+02  0.18822241040E+03  0.17309378754E+03 0.  0.
        -24    2    5    5    0    0  0.80397061036E+02  0.23590709918E+02 -0.16287215779E+02  0.11770404855E+03  0.81047890966E+02 0.  0.
          2    1    4    4  502    0  0.45099863796E+02 -0.38947427386E+02 -0.45030052178E+02  0.74690062348E+02  0.00000000000E+00 0. -1.
         -1    1    4    4    0  502 -0.17471747893E+02  0.11949439988E+02 -0.57534236754E+02  0.61304481804E+02  0.00000000000E+00 0.  1.
          5    1    3    3  503    0 -0.83771092844E+02  0.20121919950E+02 -0.40867021043E+02  0.95470891207E+02  0.47000000000E+01 0. -1.
         11    1    6    6    0    0  0.56764643289E+02 -0.10582118774E+02  0.21428365133E+02  0.61590427809E+02  0.00000000000E+00 0. -1.
        -12    1    6    6    0    0  0.23632417748E+02  0.34172828692E+02 -0.37715580912E+02  0.56113620743E+02  0.00000000000E+00 0.  1.
         -5    1    5    5    0  501 -0.24254084096E+02 -0.16714642471E+02  0.63899213532E+02  0.70518361852E+02  0.47000000000E+01 0.  1.
<mgrwt>
<rscale>  2 0.18188498E+03</rscale>
<asrwt>0</asrwt>
<pdfrwt beam="2">  1        2 0.39654397E-01 0.18188498E+03</pdfrwt>
<pdfrwt beam="1">  1       -2 0.24912964E-01 0.18188498E+03</pdfrwt>
<totfact> 0.18211501E+03</totfact>
</mgrwt>
</event>
<event>
12    1  0.5759937E-002  0.2400474E+03  0.7546771E-02  0.1119761E+00
          2   -1    0    0  503    0  0.00000000000E+00  0.00000000000E+00  0.23608202231E+03  0.23608202231E+03  0.00000000000E+00 0. -1.
         -2   -1    0    0    0  501 -0.00000000000E+00 -0.00000000000E+00 -0.24892117486E+03  0.24892117486E+03  0.00000000000E+00 0.  1.
          6    2    1    2  503    0 -0.13349690703E+03 -0.99289988914E+02 -0.40228674857E+02  0.24303411948E+03  0.17253205751E+03 0.  0.
         24    2    3    3    0    0 -0.38031390377E+02 -0.40419940956E+02  0.39176821539E+02  0.10553259122E+03  0.80759805493E+02 0.  0.
         -6    2    1    2    0  501  0.13349690703E+03  0.99289988914E+02  0.27389522304E+02  0.24196907769E+03  0.17354804101E+03 0.  0.
        -24    2    5    5    0    0  0.72419675175E+02  0.17692046824E+02  0.71611192345E+02  0.13076521757E+03  0.80085962459E+02 0.  0.
          2    1    4    4  502    0 -0.51396083585E+02 -0.15296189000E+02  0.51657949668E+02  0.74458542624E+02  0.00000000000E+00 0. -1.
         -1    1    4    4    0  502  0.13364693209E+02 -0.25123751956E+02 -0.12481128129E+02  0.31074048598E+02  0.00000000000E+00 0.  1.
          5    1    3    3  503    0 -0.95465516653E+02 -0.58870047958E+02 -0.79405496396E+02  0.13750152826E+03  0.47000000000E+01 0. -1.
         13    1    6    6    0    0  0.15788430570E+02 -0.27342312584E+02  0.42099184955E+02  0.52623359558E+02  0.00000000000E+00 0. -1.
        -14    1    6    6    0    0  0.56631244605E+02  0.45034359408E+02  0.29512007389E+02  0.78141858008E+02  0.00000000000E+00 0.  1.
         -5    1    5    5    0  501  0.61077231855E+02  0.81597942090E+02 -0.44221670041E+02  0.11120386012E+03  0.47000000000E+01 0.  1.
<mgrwt>
<rscale>  2 0.24004744E+03</rscale>
<asrwt>0</asrwt>
<pdfrwt beam="1">  1        2 0.36320311E-01 0.24004744E+03</pdfrwt>
<pdfrwt beam="2">  1       -2 0.38295565E-01 0.24004744E+03</pdfrwt>
<totfact> 0.91958843E+02</totfact>
</mgrwt>
</event>
<event>
12    1  0.5759937E-002  0.1843398E+03  0.7546771E-02  0.1163668E+00
         -2   -1    0    0    0  501 -0.00000000000E+00  0.00000000000E+00  0.36651975912E+02  0.36651975912E+02  0.00000000000E+00 0.  1.
          2   -1    0    0  503    0  0.00000000000E+00 -0.00000000000E+00 -0.13243042351E+04  0.13243042351E+04  0.00000000000E+00 0. -1.
          6    2    1    2  503    0 -0.54016854890E+02  0.18602654835E+02 -0.26566856919E+03  0.32206997953E+03  0.17287395316E+03 0.  0.
         24    2    3    3    0    0 -0.67945790866E+02  0.65784116710E+02 -0.22904334297E+03  0.26055898216E+03  0.80535394185E+02 0.  0.
         -6    2    1    2    0  501  0.54016854890E+02 -0.18602654835E+02 -0.10219836900E+04  0.10388862315E+04  0.17767965545E+03 0.  0.
        -24    2    5    5    0    0 -0.36547806044E+02  0.40572516736E+01 -0.43842866071E+03  0.44789216096E+03  0.83877851118E+02 0.  0.
          2    1    4    4  502    0  0.14081309917E+01 -0.59838194146E+01 -0.85550727622E+02  0.85771300120E+02  0.00000000000E+00 0. -1.
         -1    1    4    4    0  502 -0.69353921857E+02  0.71767936125E+02 -0.14349261535E+03  0.17478768204E+03  0.00000000000E+00 0.  1.
          5    1    3    3  503    0  0.13928935976E+02 -0.47181461875E+02 -0.36625226217E+02  0.61510997371E+02  0.47000000000E+01 0. -1.
         11    1    6    6    0    0 -0.44484344180E+02 -0.20798173523E+02 -0.14071523777E+03  0.14903757593E+03  0.00000000000E+00 0. -1.
        -12    1    6    6    0    0  0.79365381357E+01  0.24855425197E+02 -0.29771342294E+03  0.29885458503E+03  0.00000000000E+00 0.  1.
         -5    1    5    5    0  501  0.90564660934E+02 -0.22659906509E+02 -0.58355502933E+03  0.59099407056E+03  0.47000000000E+01 0.  1.
<mgrwt>
<rscale>  2 0.18433983E+03</rscale>
<asrwt>0</asrwt>
<pdfrwt beam="2">  1        2 0.20373914E+00 0.18433983E+03</pdfrwt>
<pdfrwt beam="1">  1       -2 0.56387649E-02 0.18433983E+03</pdfrwt>
<totfact> 0.27614861E+03</totfact>
</mgrwt>
</event>
<event>
12    1  0.5759937E-002  0.2088602E+03  0.7546771E-02  0.1142472E+00
         -2   -1    0    0    0  501 -0.00000000000E+00  0.00000000000E+00  0.22151579861E+02  0.22151579861E+02  0.00000000000E+00 0. -1.
          2   -1    0    0  503    0  0.00000000000E+00 -0.00000000000E+00 -0.20508854305E+04  0.20508854305E+04  0.00000000000E+00 0.  1.
          6    2    1    2  503    0  0.11238674338E+03 -0.29704844115E+02 -0.12266700872E+04  0.12445275230E+04  0.17497455507E+03 0.  0.
         24    2    3    3    0    0  0.11094756700E+03  0.38075128714E+02 -0.84802504975E+03  0.85983238357E+03  0.80038520636E+02 0.  0.
         -6    2    1    2    0  501 -0.11238674338E+03  0.29704844115E+02 -0.80206376345E+03  0.82850948733E+03  0.17207129948E+03 0.  0.
        -24    2    5    5    0    0 -0.84907266772E+02  0.51556740501E+02 -0.29915747639E+03  0.32435727760E+03  0.76453295623E+02 0.  0.
          2    1    4    4  502    0  0.61697333402E+02  0.60238849959E+02 -0.58490086019E+03  0.59122271289E+03  0.00000000000E+00 0. -1.
         -1    1    4    4    0  502  0.49250233598E+02 -0.22163721246E+02 -0.26312418957E+03  0.26860967068E+03  0.00000000000E+00 0.  1.
          5    1    3    3  503    0  0.14391763843E+01 -0.67779972829E+02 -0.37864503742E+03  0.38469513944E+03  0.47000000000E+01 0. -1.
         13    1    6    6    0    0 -0.92932766363E+02  0.57773984178E+02 -0.29228589977E+03  0.31209834910E+03  0.00000000000E+00 0. -1.
        -14    1    6    6    0    0  0.80254995910E+01 -0.62172436774E+01 -0.68715766266E+01  0.12258928500E+02  0.00000000000E+00 0.  1.
         -5    1    5    5    0  501 -0.27479476612E+02 -0.21851896386E+02 -0.50290628706E+03  0.50415220973E+03  0.47000000000E+01 0.  1.
<mgrwt>
<rscale>  2 0.20886015E+03</rscale>
<asrwt>0</asrwt>
<pdfrwt beam="2">  1        2 0.31552072E+00 0.20886015E+03</pdfrwt>
<pdfrwt beam="1">  1       -2 0.34079366E-02 0.20886015E+03</pdfrwt>
<totfact> 0.24500346E+03</totfact>
</mgrwt>
</event>
<event>
12    1  0.5759937E-002  0.1771955E+03  0.7546771E-02  0.1170545E+00
          2   -1    0    0  503    0  0.00000000000E+00  0.00000000000E+00  0.26191928998E+03  0.26191928998E+03  0.00000000000E+00 0.  1.
         -2   -1    0    0    0  501 -0.00000000000E+00 -0.00000000000E+00 -0.12259616512E+03  0.12259616512E+03  0.00000000000E+00 0. -1.
          6    2    1    2  503    0 -0.90187020022E+01  0.42044647142E+02  0.40993912620E+02  0.18178009381E+03  0.17179759106E+03 0.  0.
         24    2    3    3    0    0  0.34309351428E+02  0.65269809827E+02 -0.72644680538E+01  0.11273163473E+03  0.84960986945E+02 0.  0.
         -6    2    1    2    0  501  0.90187020022E+01 -0.42044647142E+02  0.98329212247E+02  0.20273536129E+03  0.17199971918E+03 0.  0.
        -24    2    5    5    0    0  0.12647412377E+02 -0.52861436959E+02  0.20322680595E+01  0.10565105803E+03  0.90574430118E+02 0.  0.
          4    1    4    4  502    0  0.36650095864E+01  0.45994259765E+02 -0.42122188474E+02  0.62475459090E+02  0.00000000000E+00 0. -1.
         -3    1    4    4    0  502  0.30644341842E+02  0.19275550062E+02  0.34857720421E+02  0.50256175641E+02  0.00000000000E+00 0.  1.
          5    1    3    3  503    0 -0.43328053430E+02 -0.23225162685E+02  0.48258380674E+02  0.69048459078E+02  0.47000000000E+01 0. -1.
         11    1    6    6    0    0  0.41518711642E+02 -0.35119126051E+02 -0.27285984546E+02  0.60841444622E+02  0.00000000000E+00 0. -1.
        -12    1    6    6    0    0 -0.28871299264E+02 -0.17742310908E+02  0.29318252606E+02  0.44809613404E+02  0.00000000000E+00 0.  1.
         -5    1    5    5    0  501 -0.36287103750E+01  0.10816789817E+02  0.96296944188E+02  0.97084303267E+02  0.47000000000E+01 0.  1.
<mgrwt>
<rscale>  2 0.17719545E+03</rscale>
<asrwt>0</asrwt>
<pdfrwt beam="1">  1        2 0.40295275E-01 0.17719545E+03</pdfrwt>
<pdfrwt beam="2">  1       -2 0.18860949E-01 0.17719545E+03</pdfrwt>
<totfact> 0.28879152E+03</totfact>
</mgrwt>
</event>
<event>
12    1  0.5759937E-002  0.1751357E+03  0.7546771E-02  0.1172595E+00
         -2   -1    0    0    0  501 -0.00000000000E+00  0.00000000000E+00  0.32863197054E+02  0.32863197054E+02  0.00000000000E+00 0. -1.
          2   -1    0    0  503    0  0.00000000000E+00 -0.00000000000E+00 -0.94802447479E+03  0.94802447479E+03  0.00000000000E+00 0.  1.
          6    2    1    2  503    0 -0.39630846703E+00 -0.30970129661E+02 -0.39921516721E+03  0.43635134737E+03  0.17340831188E+03 0.  0.
         24    2    3    3    0    0  0.56762338253E+02 -0.38953537023E+02 -0.16943667529E+03  0.19938913300E+03  0.79422278584E+02 0.  0.
         -6    2    1    2    0  501  0.39630846703E+00  0.30970129661E+02 -0.51594611053E+03  0.54453632448E+03  0.17134793175E+03 0.  0.
        -24    2    5    5    0    0 -0.31076674101E+02 -0.10039878305E+02 -0.15316184566E+03  0.17805729067E+03  0.84730684910E+02 0.  0.
          4    1    4    4  502    0 -0.10960122712E+01 -0.56367111627E+01  0.79768328340E+01  0.98287139388E+01  0.00000000000E+00 0. -1.
         -3    1    4    4    0  502  0.57858350524E+02 -0.33316825860E+02 -0.17741350812E+03  0.18956041906E+03  0.00000000000E+00 0.  1.
          5    1    3    3  503    0 -0.57158646720E+02  0.79834073621E+01 -0.22977849193E+03  0.23696221437E+03  0.47000000000E+01 0. -1.
         11    1    6    6    0    0 -0.42566051087E+02  0.25643108957E+02 -0.61782633051E+02  0.79287650292E+02  0.00000000000E+00 0. -1.
        -12    1    6    6    0    0  0.11489376985E+02 -0.35682987262E+02 -0.91379212613E+02  0.98769640382E+02  0.00000000000E+00 0.  1.
         -5    1    5    5    0  501  0.31472982569E+02  0.41010007966E+02 -0.36278426486E+03  0.36647903380E+03  0.47000000000E+01 0.  1.
<mgrwt>
<rscale>  2 0.17513574E+03</rscale>
<asrwt>0</asrwt>
<pdfrwt beam="2">  1        2 0.14584994E+00 0.17513574E+03</pdfrwt>
<pdfrwt beam="1">  1       -2 0.50558757E-02 0.17513574E+03</pdfrwt>
<totfact> 0.53574341E+03</totfact>
</mgrwt>
</event>
<event>
12    1  0.5759937E-002  0.1900726E+03  0.7546771E-02  0.1158396E+00
          2   -1    0    0  503    0  0.00000000000E+00  0.00000000000E+00  0.96548141294E+03  0.96548141294E+03  0.00000000000E+00 0. -1.
         -2   -1    0    0    0  501 -0.00000000000E+00 -0.00000000000E+00 -0.71735818393E+02  0.71735818393E+02  0.00000000000E+00 0.  1.
          6    2    1    2  503    0  0.58878525286E+02 -0.35687373437E+02  0.80977408074E+03  0.83259903510E+03  0.18096083018E+03 0.  0.
         24    2    3    3    0    0  0.45965397032E+02 -0.39119231182E+02  0.21140492300E+03  0.23406226476E+03  0.80311707371E+02 0.  0.
         -6    2    1    2    0  501 -0.58878525286E+02  0.35687373437E+02  0.83971513810E+02  0.20461819623E+03  0.17342756913E+03 0.  0.
        -24    2    5    5    0    0 -0.10523124090E+03  0.15581706241E+02  0.73021180274E+02  0.15270661850E+03  0.81675056988E+02 0.  0.
          4    1    4    4  502    0  0.26027087267E+02 -0.63668462935E+02  0.14839246964E+03  0.16355857511E+03  0.00000000000E+00 0. -1.
         -3    1    4    4    0  502  0.19938309765E+02  0.24549231753E+02  0.63012453363E+02  0.70503689654E+02  0.00000000000E+00 0.  1.
          5    1    3    3  503    0  0.12913128254E+02  0.34318577451E+01  0.59836915773E+03  0.59853677034E+03  0.47000000000E+01 0. -1.
         11    1    6    6    0    0 -0.65245269466E+02  0.31155816185E+02  0.81517102054E+02  0.10896177310E+03  0.00000000000E+00 0. -1.
        -12    1    6    6    0    0 -0.39985971432E+02 -0.15574109945E+02 -0.84959217799E+01  0.43744845397E+02  0.00000000000E+00 0.  1.
         -5    1    5    5    0  501  0.46352715612E+02  0.20105667197E+02  0.10950333536E+02  0.51911577732E+02  0.47000000000E+01 0.  1.
<mgrwt>
<rscale>  2 0.19007259E+03</rscale>
<asrwt>0</asrwt>
<pdfrwt beam="1">  1        2 0.14853559E+00 0.19007259E+03</pdfrwt>
<pdfrwt beam="2">  1       -2 0.11036280E-01 0.19007259E+03</pdfrwt>
<totfact> 0.15607237E+03</totfact>
</mgrwt>
</event>
<event>
12    1  0.5759937E-002  0.2039775E+03  0.7546771E-02  0.1146426E+00
         -1   -1    0    0    0  501 -0.00000000000E+00  0.00000000000E+00  0.73485061691E+03  0.73485061691E+03  0.00000000000E+00 0. -1.
          1   -1    0    0  503    0  0.00000000000E+00 -0.00000000000E+00 -0.57525328807E+02  0.57525328807E+02  0.00000000000E+00 0.  1.
          6    2    1    2  503    0  0.79183815864E+02 -0.77407111364E+02  0.28695133641E+03  0.35133801113E+03  0.16980986724E+03 0.  0.
         24    2    3    3    0    0 -0.21613577108E+02 -0.84623497946E+01  0.14466917716E+03  0.16377522853E+03  0.73173742416E+02 0.  0.
         -6    2    1    2    0  501 -0.79183815864E+02  0.77407111364E+02  0.39037395169E+03  0.44103793459E+03  0.17280248840E+03 0.  0.
        -24    2    5    5    0    0 -0.19604777668E+02  0.74009437124E+02  0.11809474415E+03  0.16225618689E+03  0.80740061308E+02 0.  0.
          2    1    4    4  502    0 -0.31102315636E+02 -0.36029896605E+02  0.91263336048E+02  0.10292960698E+03  0.00000000000E+00 0. -1.
         -1    1    4    4    0  502  0.94887385272E+01  0.27567546810E+02  0.53405841111E+02  0.60845621541E+02  0.00000000000E+00 0.  1.
          5    1    3    3  503    0  0.10079739297E+03 -0.68944761569E+02  0.14228215925E+03  0.18756278261E+03  0.47000000000E+01 0. -1.
         13    1    6    6    0    0 -0.31871997607E+02  0.50863492046E+01  0.70690854846E+02  0.77710309088E+02  0.00000000000E+00 0. -1.
        -14    1    6    6    0    0  0.12267219939E+02  0.68923087919E+02  0.47403889300E+02  0.84545877807E+02  0.00000000000E+00 0.  1.
         -5    1    5    5    0  501 -0.59579038196E+02  0.33976742400E+01  0.27227920755E+03  0.27878174769E+03  0.47000000000E+01 0.  1.
<mgrwt>
<rscale>  2 0.20397751E+03</rscale>
<asrwt>0</asrwt>
<pdfrwt beam="2">  1        1 0.88500511E-02 0.20397751E+03</pdfrwt>
<pdfrwt beam="1">  1       -1 0.11305393E+00 0.20397751E+03</pdfrwt>
<totfact> 0.57593976E+02</totfact>
</mgrwt>
</event>
<event>
12    1  0.5759937E-002  0.2643609E+03  0.7546771E-02  0.1104551E+00
         -1   -1    0    0    0  501 -0.00000000000E+00  0.00000000000E+00  0.65933891289E+02  0.65933891289E+02  0.00000000000E+00 0.  1.
          1   -1    0    0  503    0  0.00000000000E+00 -0.00000000000E+00 -0.12664864878E+04  0.12664864878E+04  0.00000000000E+00 0. -1.
          6    2    1    2  503    0 -0.17248121466E+03 -0.99378691745E+02 -0.33312983937E+03  0.42589480249E+03  0.17545654483E+03 0.  0.
         24    2    3    3    0    0 -0.16204627571E+03 -0.13615287515E+03 -0.27702799540E+03  0.35784529541E+03  0.80697858259E+02 0.  0.
         -6    2    1    2    0  501  0.17248121466E+03  0.99378691745E+02 -0.86742275716E+03  0.90652557663E+03  0.17245430599E+03 0.  0.
        -24    2    5    5    0    0  0.27715347517E+02  0.13731350457E+01 -0.34797190905E+03  0.35842565960E+03  0.81329441095E+02 0.  0.
          2    1    4    4  502    0 -0.64513723883E+02 -0.99612270257E+02 -0.17931899023E+03  0.21503470700E+03  0.00000000000E+00 0. -1.
         -1    1    4    4    0  502 -0.97532551829E+02 -0.36540604896E+02 -0.97709005170E+02  0.14281058842E+03  0.00000000000E+00 0.  1.
          5    1    3    3  503    0 -0.10434938945E+02  0.36774183408E+02 -0.56101843972E+02  0.68049507075E+02  0.47000000000E+01 0. -1.
         13    1    6    6    0    0  0.35519711885E+02 -0.32402710458E+02 -0.15236406655E+03  0.15976981677E+03  0.00000000000E+00 0. -1.
        -14    1    6    6    0    0 -0.78043643681E+01  0.33775845504E+02 -0.19560784250E+03  0.19865584283E+03  0.00000000000E+00 0.  1.
         -5    1    5    5    0  501  0.14476586714E+03  0.98005556700E+02 -0.51945084811E+03  0.54809991702E+03  0.47000000000E+01 0.  1.
<mgrwt>
<rscale>  2 0.26436090E+03</rscale>
<asrwt>0</asrwt>
<pdfrwt beam="2">  1        1 0.19484407E+00 0.26436090E+03</pdfrwt>
<pdfrwt beam="1">  1       -1 0.10143676E-01 0.26436090E+03</pdfrwt>
<totfact> 0.61552399E+02</totfact>
</mgrwt>
</event>
<event>
12    1  0.5759937E-002  0.1996301E+03  0.7546771E-02  0.1150051E+00
         -1   -1    0    0    0  501 -0.00000000000E+00  0.00000000000E+00  0.51361899775E+03  0.51361899775E+03  0.00000000000E+00 0.  1.
          1   -1    0    0  503    0  0.00000000000E+00 -0.00000000000E+00 -0.78517658776E+02  0.78517658776E+02  0.00000000000E+00 0. -1.
          6    2    1    2  503    0 -0.18595236532E+02 -0.96237213728E+02  0.18472271911E+03  0.27152270070E+03  0.17318980891E+03 0.  0.
         24    2    3    3    0    0 -0.72992181681E+02 -0.10486740215E+03  0.10860188088E+03  0.17744836942E+03  0.58038992550E+02 0.  0.
         -6    2    1    2    0  501  0.18595236532E+02  0.96237213728E+02  0.25037861986E+03  0.32061395582E+03  0.17463238891E+03 0.  0.
        -24    2    5    5    0    0  0.45332763857E+02  0.42809289685E+00  0.16681567556E+03  0.19061726870E+03  0.80325779009E+02 0.  0.
          2    1    4    4  502    0 -0.46057191595E+02 -0.10255315824E+03  0.95001079964E+02  0.14718566627E+03  0.00000000000E+00 0. -1.
         -1    1    4    4    0  502 -0.26934990086E+02 -0.23142439152E+01  0.13600800920E+02  0.30262703143E+02  0.00000000000E+00 0.  1.
          5    1    3    3  503    0  0.54396945149E+02  0.86301884261E+01  0.76120838229E+02  0.94074331284E+02  0.47000000000E+01 0. -1.
         13    1    6    6    0    0  0.38166808568E+01 -0.53813585387E+01 -0.82721942488E+01  0.10580891748E+02  0.00000000000E+00 0. -1.
        -14    1    6    6    0    0  0.41516083000E+02  0.58094514356E+01  0.17508786981E+03  0.18003637695E+03  0.00000000000E+00 0.  1.
         -5    1    5    5    0  501 -0.26737527324E+02  0.95809120832E+02  0.83562944303E+02  0.12999668712E+03  0.47000000000E+01 0.  1.
<mgrwt>
<rscale>  2 0.19963012E+03</rscale>
<asrwt>0</asrwt>
<pdfrwt beam="2">  1        1 0.12079640E-01 0.19963012E+03</pdfrwt>
<pdfrwt beam="1">  1       -1 0.79018305E-01 0.19963012E+03</pdfrwt>
<totfact> 0.82934678E+02</totfact>
</mgrwt>
</event>
<event>
12    1  0.5759937E-002  0.1830487E+03  0.7546771E-02  0.1164885E+00
         -2   -1    0    0    0  501 -0.00000000000E+00  0.00000000000E+00  0.16027960585E+03  0.16027960585E+03  0.00000000000E+00 0.  1.
          2   -1    0    0  503    0  0.00000000000E+00 -0.00000000000E+00 -0.75175137189E+03  0.75175137189E+03  0.00000000000E+00 0. -1.
          6    2    1    2  503    0  0.59322981143E+02  0.70930040049E+01  0.91739567218E+02  0.20471162150E+03  0.17297737709E+03 0.  0.
         24    2    3    3    0    0  0.87291550025E+02 -0.11981942178E+02  0.16971811487E+02  0.12250212257E+03  0.83398717045E+02 0.  0.
         -6    2    1    2    0  501 -0.59322981143E+02 -0.70930040049E+01 -0.68321133326E+03  0.70731935624E+03  0.17307056081E+03 0.  0.
        -24    2    5    5    0    0 -0.46992893464E+02 -0.23336513979E+02 -0.18565096862E+03  0.20931906594E+03  0.81211232568E+02 0.  0.
          4    1    4    4  502    0  0.67009725579E+02 -0.17101402303E+02 -0.26657555737E+02  0.74117383662E+02  0.00000000000E+00 0. -1.
         -3    1    4    4    0  502  0.20281824446E+02  0.51194601252E+01  0.43629367224E+02  0.48384738908E+02  0.00000000000E+00 0.  1.
          5    1    3    3  503    0 -0.27968568882E+02  0.19074946183E+02  0.74767755731E+02  0.82209498929E+02  0.47000000000E+01 0. -1.
         11    1    6    6    0    0 -0.14414579493E+02  0.14088509818E+02 -0.14141746957E+03  0.14284665523E+03  0.00000000000E+00 0. -1.
        -12    1    6    6    0    0 -0.32578313971E+02 -0.37425023797E+02 -0.44233499053E+02  0.66472410712E+02  0.00000000000E+00 0.  1.
         -5    1    5    5    0  501 -0.12330087679E+02  0.16243509974E+02 -0.49756036464E+03  0.49800029030E+03  0.47000000000E+01 0.  1.
<mgrwt>
<rscale>  2 0.18304868E+03</rscale>
<asrwt>0</asrwt>
<pdfrwt beam="2">  1        2 0.11565406E+00 0.18304868E+03</pdfrwt>
<pdfrwt beam="1">  1       -2 0.24658400E-01 0.18304868E+03</pdfrwt>
<totfact> 0.56480854E+02</totfact>
</mgrwt>
</event>
<event>
12    1  0.5759937E-002  0.1938380E+03  0.7546771E-02  0.1155045E+00
          2   -1    0    0  503    0  0.00000000000E+00  0.00000000000E+00  0.19601687377E+04  0.19601687377E+04  0.00000000000E+00 0.  1.
         -2   -1    0    0    0  501 -0.00000000000E+00 -0.00000000000E+00 -0.19264574627E+02  0.19264574627E+02  0.00000000000E+00 0. -1.
          6    2    1    2  503    0 -0.60444583767E+02  0.66596918554E+02  0.10476341033E+04  0.10656980211E+04  0.17345420302E+03 0.  0.
         24    2    3    3    0    0 -0.43868780119E+02  0.11246060197E+03  0.74225293852E+03  0.75641177744E+03  0.81532174313E+02 0.  0.
         -6    2    1    2    0  501  0.60444583767E+02 -0.66596918554E+02  0.89327005977E+03  0.91373529120E+03  0.16997672032E+03 0.  0.
        -24    2    5    5    0    0  0.10308812057E+03 -0.28958531874E+02  0.67241691785E+03  0.68562715966E+03  0.80463243039E+02 0.  0.
          4    1    4    4  502    0 -0.47139747176E+02  0.45072522532E+02  0.20986156241E+03  0.21976251597E+03  0.00000000000E+00 0. -1.
         -3    1    4    4    0  502  0.32709670574E+01  0.67388079437E+02  0.53239137612E+03  0.53664926147E+03  0.00000000000E+00 0.  1.
          5    1    3    3  503    0 -0.16575803649E+02 -0.45863683416E+02  0.30538116481E+03  0.30928624370E+03  0.47000000000E+01 0. -1.
         11    1    6    6    0    0  0.58887644518E+02 -0.26465295683E+02  0.18007099369E+03  0.19129487531E+03  0.00000000000E+00 0. -1.
        -12    1    6    6    0    0  0.44200476051E+02 -0.24932361909E+01  0.49234592416E+03  0.49433228434E+03  0.00000000000E+00 0.  1.
         -5    1    5    5    0  501 -0.42643536802E+02 -0.37638386680E+02  0.22085314192E+03  0.22810813155E+03  0.47000000000E+01 0.  1.
<mgrwt>
<rscale>  2 0.19383801E+03</rscale>
<asrwt>0</asrwt>
<pdfrwt beam="1">  1        2 0.30156426E+00 0.19383801E+03</pdfrwt>
<pdfrwt beam="2">  1       -2 0.29637823E-02 0.19383801E+03</pdfrwt>
<totfact> 0.33632261E+03</totfact>
</mgrwt>
</event>
<event>
12    1  0.5759937E-002  0.1821674E+03  0.7546771E-02  0.1165722E+00
          2   -1    0    0  503    0  0.00000000000E+00  0.00000000000E+00  0.89447316731E+03  0.89447316731E+03  0.00000000000E+00 0.  1.
         -2   -1    0    0    0  501 -0.00000000000E+00 -0.00000000000E+00 -0.44165531478E+02  0.44165531478E+02  0.00000000000E+00 0. -1.
          6    2    1    2  503    0 -0.17560123317E+02 -0.56779118737E+02  0.61213144561E+03  0.63855584082E+03  0.17180346007E+03 0.  0.
         24    2    3    3    0    0  0.35937871301E+02 -0.73196903830E+02  0.50663665736E+03  0.51904509050E+03  0.77960156918E+02 0.  0.
         -6    2    1    2    0  501  0.17560123317E+02  0.56779118737E+02  0.23817619022E+03  0.30008285796E+03  0.17259663322E+03 0.  0.
        -24    2    5    5    0    0 -0.19668074197E+02  0.95230618089E+02  0.19514362824E+03  0.23124719945E+03  0.77061844285E+02 0.  0.
          4    1    4    4  502    0  0.49640343962E+02 -0.16290605447E+02  0.19044069956E+03  0.19747710658E+03  0.00000000000E+00 0. -1.
         -3    1    4    4    0  502 -0.13702472661E+02 -0.56906298383E+02  0.31619595780E+03  0.32156798392E+03  0.00000000000E+00 0.  1.
          5    1    3    3  503    0 -0.53497994618E+02  0.16417785094E+02  0.10549478824E+03  0.11951075032E+03  0.47000000000E+01 0. -1.
         13    1    6    6    0    0 -0.41919292245E+02  0.24436283544E+02  0.60992141671E+02  0.77938439563E+02  0.00000000000E+00 0. -1.
        -14    1    6    6    0    0  0.22251218049E+02  0.70794334545E+02  0.13415148657E+03  0.15330875988E+03  0.00000000000E+00 0.  1.
         -5    1    5    5    0  501  0.37228197514E+02 -0.38451499352E+02  0.43032561980E+02  0.68835658515E+02  0.47000000000E+01 0.  1.
<mgrwt>
<rscale>  2 0.18216739E+03</rscale>
<asrwt>0</asrwt>
<pdfrwt beam="1">  1        2 0.13761124E+00 0.18216739E+03</pdfrwt>
<pdfrwt beam="2">  1       -2 0.67946978E-02 0.18216739E+03</pdfrwt>
<totfact> 0.36941784E+03</totfact>
</mgrwt>
</event>
<event>
12    1  0.5759937E-002  0.1927577E+03  0.7546771E-02  0.1155997E+00
         -1   -1    0    0    0  501 -0.00000000000E+00  0.00000000000E+00  0.50194590417E+02  0.50194590417E+02  0.00000000000E+00 0.  1.
          1   -1    0    0  503    0  0.00000000000E+00 -0.00000000000E+00 -0.80029822927E+03  0.80029822927E+03  0.00000000000E+00 0. -1.
          6    2    1    2  503    0 -0.79840292206E+02  0.34427684288E+01 -0.48450134882E+03  0.52007416917E+03  0.17131625584E+03 0.  0.
         24    2    3    3    0    0  0.11714770661E+01 -0.95879359978E+01 -0.11137170758E+03  0.13800019048E+03  0.80914117735E+02 0.  0.
         -6    2    1    2    0  501  0.79840292206E+02 -0.34427684288E+01 -0.26560229003E+03  0.33041865051E+03  0.17957055222E+03 0.  0.
        -24    2    5    5    0    0  0.71517587635E+01  0.22074145900E+02 -0.23180547734E+03  0.24616278805E+03  0.79523099334E+02 0.  0.
          4    1    4    4  502    0  0.18690260979E+01  0.35820384324E+02 -0.44312571743E+02  0.57010500841E+02  0.00000000000E+00 0. -1.
         -3    1    4    4    0  502 -0.69754903178E+00 -0.45408320322E+02 -0.67059135839E+02  0.80989689644E+02  0.00000000000E+00 0.  1.
          5    1    3    3  503    0 -0.81011769272E+02  0.13030704427E+02 -0.37312964124E+03  0.38207397868E+03  0.47000000000E+01 0. -1.
         11    1    6    6    0    0  0.17253456307E+02 -0.23778687016E+02 -0.13997887956E+03  0.14302864899E+03  0.00000000000E+00 0. -1.
        -12    1    6    6    0    0 -0.10101697543E+02  0.45852832916E+02 -0.91826597780E+02  0.10313413906E+03  0.00000000000E+00 0.  1.
         -5    1    5    5    0  501  0.72688533443E+02 -0.25516914329E+02 -0.33796812694E+02  0.84255862462E+02  0.47000000000E+01 0.  1.
<mgrwt>
<rscale>  2 0.19275771E+03</rscale>
<asrwt>0</asrwt>
<pdfrwt beam="2">  1        1 0.12312279E+00 0.19275771E+03</pdfrwt>
<pdfrwt beam="1">  1       -1 0.77222454E-02 0.19275771E+03</pdfrwt>
<totfact> 0.20814203E+03</totfact>
</mgrwt>
</event>
<event>
12    1  0.5759937E-002  0.1818876E+03  0.7546771E-02  0.1165989E+00
          2   -1    0    0  503    0  0.00000000000E+00  0.00000000000E+00  0.80366001857E+03  0.80366001857E+03  0.00000000000E+00 0.  1.
         -2   -1    0    0    0  501 -0.00000000000E+00 -0.00000000000E+00 -0.41327608267E+02  0.41327608267E+02  0.00000000000E+00 0. -1.
          6    2    1    2  503    0  0.30948211128E+02  0.49789500209E+02  0.40576618331E+03  0.44431963426E+03  0.17128034264E+03 0.  0.
         24    2    3    3    0    0 -0.21488142593E+02  0.40676232053E+02  0.36413183483E+03  0.37658388432E+03  0.84303811670E+02 0.  0.
         -6    2    1    2    0  501 -0.30948211128E+02 -0.49789500209E+02  0.35656622700E+03  0.40066799258E+03  0.17308547003E+03 0.  0.
        -24    2    5    5    0    0 -0.74522410269E+02 -0.71524196345E+02  0.28926533540E+03  0.31746578193E+03  0.80254520968E+02 0.  0.
          4    1    4    4  502    0 -0.50603386232E+02  0.29113475449E+02  0.16546227349E+03  0.17545957112E+03  0.00000000000E+00 0. -1.
         -3    1    4    4    0  502  0.29115243639E+02  0.11562756603E+02  0.19866956135E+03  0.20112431320E+03  0.00000000000E+00 0.  1.
          5    1    3    3  503    0  0.52436353721E+02  0.91132681567E+01  0.41634348474E+02  0.67735749947E+02  0.47000000000E+01 0. -1.
         13    1    6    6    0    0 -0.42518775800E+02 -0.80873928654E+02  0.16288914763E+03  0.18676539574E+03  0.00000000000E+00 0. -1.
        -14    1    6    6    0    0 -0.32003634470E+02  0.93497323095E+01  0.12637618777E+03  0.13070038618E+03  0.00000000000E+00 0.  1.
         -5    1    5    5    0  501  0.43574199141E+02  0.21734696136E+02  0.67300891602E+02  0.83202210652E+02  0.47000000000E+01 0.  1.
<mgrwt>
<rscale>  2 0.18188759E+03</rscale>
<asrwt>0</asrwt>
<pdfrwt beam="1">  1        2 0.12363999E+00 0.18188759E+03</pdfrwt>
<pdfrwt beam="2">  1       -2 0.63580942E-02 0.18188759E+03</pdfrwt>
<totfact> 0.46960957E+03</totfact>
</mgrwt>
</event>
<event>
12    1  0.5759937E-002  0.1765921E+03  0.7546771E-02  0.1171143E+00
         -2   -1    0    0    0  501 -0.00000000000E+00  0.00000000000E+00  0.13892925097E+03  0.13892925097E+03  0.00000000000E+00 0.  1.
          2   -1    0    0  503    0  0.00000000000E+00 -0.00000000000E+00 -0.40372476077E+03  0.40372476077E+03  0.00000000000E+00 0. -1.
          6    2    1    2  503    0 -0.28633948514E+02  0.20385210176E+02  0.48640786115E+02  0.18260715142E+03  0.17246444814E+03 0.  0.
         24    2    3    3    0    0  0.21501087292E+02  0.57261614225E+02 -0.54659613862E+01  0.10000557083E+03  0.78930654653E+02 0.  0.
         -6    2    1    2    0  501  0.28633948514E+02 -0.20385210176E+02 -0.31343629591E+03  0.36004686032E+03  0.17365474432E+03 0.  0.
        -24    2    5    5    0    0  0.50392152826E+02 -0.16520550651E+02 -0.32170444162E+03  0.33598844637E+03  0.81130701195E+02 0.  0.
          4    1    4    4  502    0  0.33103575852E+02 -0.25812401048E+01 -0.18005729901E+02  0.37771892247E+02  0.00000000000E+00 0. -1.
         -3    1    4    4    0  502 -0.11602488559E+02  0.59842854329E+02  0.12539768515E+02  0.62233678579E+02  0.00000000000E+00 0.  1.
          5    1    3    3  503    0 -0.50135035807E+02 -0.36876404049E+02  0.54106747501E+02  0.82601580591E+02  0.47000000000E+01 0. -1.
         13    1    6    6    0    0  0.56293070073E+01  0.30775149494E+02 -0.12128199082E+03  0.12525222641E+03  0.00000000000E+00 0. -1.
        -14    1    6    6    0    0  0.44762845818E+02 -0.47295700146E+02 -0.20042245080E+03  0.21073621996E+03  0.00000000000E+00 0.  1.
         -5    1    5    5    0  501 -0.21758204311E+02 -0.38646595241E+01  0.82681457076E+01  0.24058413945E+02  0.47000000000E+01 0.  1.
<mgrwt>
<rscale>  2 0.17659207E+03</rscale>
<asrwt>0</asrwt>
<pdfrwt beam="2">  1        2 0.62111501E-01 0.17659207E+03</pdfrwt>
<pdfrwt beam="1">  1       -2 0.21373731E-01 0.17659207E+03</pdfrwt>
<totfact> 0.14679395E+03</totfact>
</mgrwt>
</event>
<event>
12    1  0.5759937E-002  0.2592687E+03  0.7546771E-02  0.1107583E+00
         -2   -1    0    0    0  501 -0.00000000000E+00  0.00000000000E+00  0.72341691885E+02  0.72341691885E+02  0.00000000000E+00 0. -1.
          2   -1    0    0  503    0  0.00000000000E+00 -0.00000000000E+00 -0.95254856300E+03  0.95254856300E+03  0.00000000000E+00 0.  1.
          6    2    1    2  503    0 -0.19651821311E+03 -0.65480215398E+01 -0.35909908117E+03  0.44263491460E+03  0.16825942132E+03 0.  0.
         24    2    3    3    0    0 -0.33890465764E+02 -0.24122874988E+02 -0.17107193686E+03  0.19337008219E+03  0.79974398025E+02 0.  0.
         -6    2    1    2    0  501  0.19651821311E+03  0.65480215398E+01 -0.52110778995E+03  0.58225534028E+03  0.16972232578E+03 0.  0.
        -24    2    5    5    0    0  0.70208795196E+02 -0.23254176364E+02 -0.12288153662E+03  0.16338963519E+03  0.78270487456E+02 0.  0.
          2    1    4    4  502    0  0.23045705431E+02  0.83149064564E+01 -0.51069252254E+02  0.56641952067E+02  0.00000000000E+00 0. -1.
         -1    1    4    4    0  502 -0.56936171195E+02 -0.32437781444E+02 -0.12000268460E+03  0.13672813012E+03  0.00000000000E+00 0.  1.
          5    1    3    3  503    0 -0.16262774735E+03  0.17574853448E+02 -0.18802714431E+03  0.24926483241E+03  0.47000000000E+01 0. -1.
         13    1    6    6    0    0  0.22376434303E+02  0.25969382013E+02 -0.19918065943E+02  0.39646474814E+02  0.00000000000E+00 0. -1.
        -14    1    6    6    0    0  0.47832360893E+02 -0.49223558377E+02 -0.10296347067E+03  0.12374316038E+03  0.00000000000E+00 0.  1.
         -5    1    5    5    0  501  0.12630941791E+03  0.29802197904E+02 -0.39822625333E+03  0.41886570509E+03  0.47000000000E+01 0.  1.
<mgrwt>
<rscale>  2 0.25926874E+03</rscale>
<asrwt>0</asrwt>
<pdfrwt beam="2">  1        2 0.14654592E+00 0.25926874E+03</pdfrwt>
<pdfrwt beam="1">  1       -2 0.11129492E-01 0.25926874E+03</pdfrwt>
<totfact> 0.15701959E+03</totfact>
</mgrwt>
</event>
<event>
12    1  0.5759937E-002  0.2253356E+03  0.7546771E-02  0.1129967E+00
         -2   -1    0    0    0  501 -0.00000000000E+00  0.00000000000E+00  0.35102658408E+03  0.35102658408E+03  0.00000000000E+00 0.  1.
          2   -1    0    0  503    0  0.00000000000E+00 -0.00000000000E+00 -0.16934457099E+03  0.16934457099E+03  0.00000000000E+00 0. -1.
          6    2    1    2  503    0  0.13470702360E+03 -0.63167514208E+02  0.19073452494E+03  0.29645673432E+03  0.17137916811E+03 0.  0.
         24    2    3    3    0    0  0.11326592941E+03 -0.91746712161E+02  0.89313427592E+02  0.18882393233E+03  0.80193261038E+02 0.  0.
         -6    2    1    2    0  501 -0.13470702360E+03  0.63167514208E+02 -0.90525118492E+01  0.22391442075E+03  0.16709160001E+03 0.  0.
        -24    2    5    5    0    0 -0.95590360560E+02  0.10675001349E+03 -0.10723912219E+01  0.16462428754E+03  0.81036557270E+02 0.  0.
          4    1    4    4  502    0  0.55211857133E+02 -0.21918299216E+01  0.10728215996E+02  0.56287191305E+02  0.00000000000E+00 0. -1.
         -3    1    4    4    0  502  0.58054072278E+02 -0.89554882240E+02  0.78585211596E+02  0.13253674103E+03  0.00000000000E+00 0.  1.
          5    1    3    3  503    0  0.21441094185E+02  0.28579197953E+02  0.10142109735E+03  0.10763280198E+03  0.47000000000E+01 0. -1.
         13    1    6    6    0    0 -0.33904448082E+02  0.89423466417E+01 -0.29185295131E+02  0.45620813398E+02  0.00000000000E+00 0. -1.
        -14    1    6    6    0    0 -0.61685912478E+02  0.97807666848E+02  0.28112903909E+02  0.11900347415E+03  0.00000000000E+00 0.  1.
         -5    1    5    5    0  501 -0.39116663036E+02 -0.43582499282E+02 -0.79801206272E+01  0.59290133209E+02  0.47000000000E+01 0.  1.
<mgrwt>
<rscale>  2 0.22533562E+03</rscale>
<asrwt>0</asrwt>
<pdfrwt beam="2">  1        2 0.26053011E-01 0.22533562E+03</pdfrwt>
<pdfrwt beam="1">  1       -2 0.54004090E-01 0.22533562E+03</pdfrwt>
<totfact> 0.67464097E+02</totfact>
</mgrwt>
</event>
<event>
12    1  0.5759937E-002  0.1919963E+03  0.7546771E-02  0.1156673E+00
         -2   -1    0    0    0  501 -0.00000000000E+00  0.00000000000E+00  0.40290494023E+02  0.40290494023E+02  0.00000000000E+00 0. -1.
          2   -1    0    0  503    0  0.00000000000E+00 -0.00000000000E+00 -0.98716765307E+03  0.98716765307E+03  0.00000000000E+00 0.  1.
          6    2    1    2  503    0  0.72799232207E+02 -0.43026264941E+02 -0.61415491535E+03  0.64369588684E+03  0.17322571117E+03 0.  0.
         24    2    3    3    0    0  0.99517963518E+02 -0.77497289423E+02 -0.34216826093E+03  0.36819457593E+03  0.50778657221E+02 0.  0.
         -6    2    1    2    0  501 -0.72799232207E+02  0.43026264941E+02 -0.33272224370E+03  0.38376226025E+03  0.17151790942E+03 0.  0.
        -24    2    5    5    0    0  0.15697416214E+02 -0.12458472603E+02 -0.82151343563E+02  0.11225152588E+03  0.73823704849E+02 0.  0.
          4    1    4    4  502    0  0.87081750308E+02 -0.64366706329E+02 -0.22573247926E+03  0.25036264960E+03  0.00000000000E+00 0. -1.
         -3    1    4    4    0  502  0.12436213210E+02 -0.13130583094E+02 -0.11643578167E+03  0.11783192634E+03  0.00000000000E+00 0.  1.
          5    1    3    3  503    0 -0.26718731311E+02  0.34471024483E+02 -0.27198665442E+03  0.27550131091E+03  0.47000000000E+01 0. -1.
         13    1    6    6    0    0  0.41371310727E+01 -0.70449086227E+01  0.13485129850E+02  0.15766905787E+02  0.00000000000E+00 0. -1.
        -14    1    6    6    0    0  0.11560285142E+02 -0.54135639799E+01 -0.95636473413E+02  0.96484620093E+02  0.00000000000E+00 0.  1.
         -5    1    5    5    0  501 -0.88496648421E+02  0.55484737543E+02 -0.25057090013E+03  0.27151073437E+03  0.47000000000E+01 0.  1.
<mgrwt>
<rscale>  2 0.19199631E+03</rscale>
<asrwt>0</asrwt>
<pdfrwt beam="2">  1        2 0.15187193E+00 0.19199631E+03</pdfrwt>
<pdfrwt beam="1">  1       -2 0.61985381E-02 0.19199631E+03</pdfrwt>
<totfact> 0.37277602E+03</totfact>
</mgrwt>
</event>
<event>
12    1  0.5759937E-002  0.2905212E+03  0.7546771E-02  0.1090077E+00
         -2   -1    0    0    0  501 -0.00000000000E+00  0.00000000000E+00  0.34774610534E+03  0.34774610534E+03  0.00000000000E+00 0. -1.
          2   -1    0    0  503    0  0.00000000000E+00 -0.00000000000E+00 -0.46886164737E+03  0.46886164737E+03  0.00000000000E+00 0.  1.
          6    2    1    2  503    0  0.20130674024E+03 -0.11984886331E+03  0.22300289872E+03  0.36629900504E+03  0.17192008188E+03 0.  0.
         24    2    3    3    0    0  0.17694015490E+03 -0.15345191903E+03  0.20211694071E+03  0.31959558892E+03  0.80217035993E+02 0.  0.
         -6    2    1    2    0  501 -0.20130674024E+03  0.11984886331E+03 -0.34411844075E+03  0.45030874768E+03  0.17167502226E+03 0.  0.
        -24    2    5    5    0    0 -0.22399519144E+03  0.10804102379E+03 -0.32871219039E+03  0.42008237769E+03  0.81060417771E+02 0.  0.
          4    1    4    4  502    0  0.35507882573E+02 -0.73286241174E+02  0.93929822549E+02  0.12431610690E+03  0.00000000000E+00 0. -1.
         -3    1    4    4    0  502  0.14143227233E+03 -0.80165677859E+02  0.10818711816E+03  0.19527948202E+03  0.00000000000E+00 0.  1.
          5    1    3    3  503    0  0.24366585339E+02  0.33603055728E+02  0.20885958012E+02  0.46703416122E+02  0.47000000000E+01 0. -1.
         11    1    6    6    0    0 -0.15575722706E+03  0.37751735154E+02 -0.17052778720E+03  0.23401972886E+03  0.00000000000E+00 0. -1.
        -12    1    6    6    0    0 -0.68237964385E+02  0.70289288633E+02 -0.15818440318E+03  0.18606264883E+03  0.00000000000E+00 0.  1.
         -5    1    5    5    0  501  0.22688451203E+02  0.11807839519E+02 -0.15406250365E+02  0.30226369984E+02  0.47000000000E+01 0.  1.
<mgrwt>
<rscale>  2 0.29052118E+03</rscale>
<asrwt>0</asrwt>
<pdfrwt beam="2">  1        2 0.72132561E-01 0.29052118E+03</pdfrwt>
<pdfrwt beam="1">  1       -2 0.53499401E-01 0.29052118E+03</pdfrwt>
<totfact> 0.22575491E+02</totfact>
</mgrwt>
</event>
<event>
12    1  0.5759937E-002  0.1969241E+03  0.7546771E-02  0.1152360E+00
          1   -1    0    0  503    0  0.00000000000E+00  0.00000000000E+00  0.72915947891E+03  0.72915947891E+03  0.00000000000E+00 0.  1.
         -1   -1    0    0    0  501 -0.00000000000E+00 -0.00000000000E+00 -0.53244750104E+02  0.53244750104E+02  0.00000000000E+00 0. -1.
          6    2    1    2  503    0 -0.87733702927E+02  0.27434312547E+02  0.34907427412E+03  0.40022626019E+03  0.17285359805E+03 0.  0.
         24    2    3    3    0    0 -0.11111581912E+03  0.44071531279E+02  0.34113081263E+03  0.37008145989E+03  0.79379030586E+02 0.  0.
         -6    2    1    2    0  501  0.87733702927E+02 -0.27434312547E+02  0.32684045469E+03  0.38217796883E+03  0.17545789496E+03 0.  0.
        -24    2    5    5    0    0  0.41902911105E+02 -0.56733133417E+02  0.89417233419E+02  0.13855785804E+03  0.78919807432E+02 0.  0.
          2    1    4    4  502    0 -0.11639041351E+03  0.42800639420E+02  0.25274362082E+03  0.28152790441E+03  0.00000000000E+00 0. -1.
         -1    1    4    4    0  502  0.52745943960E+01  0.12708918591E+01  0.88387191810E+02  0.88553555480E+02  0.00000000000E+00 0.  1.
          5    1    3    3  503    0  0.23382116192E+02 -0.16637218732E+02  0.79434614829E+01  0.30144800299E+02  0.47000000000E+01 0. -1.
         13    1    6    6    0    0  0.57969302180E+02 -0.41422150725E+02  0.91835962858E+02  0.11623286385E+03  0.00000000000E+00 0. -1.
        -14    1    6    6    0    0 -0.16066391075E+02 -0.15310982692E+02 -0.24187294385E+01  0.22324994183E+02  0.00000000000E+00 0.  1.
         -5    1    5    5    0  501  0.45830791822E+02  0.29298820870E+02  0.23742322128E+03  0.24362011080E+03  0.47000000000E+01 0.  1.
<mgrwt>
<rscale>  2 0.19692413E+03</rscale>
<asrwt>0</asrwt>
<pdfrwt beam="1">  1        1 0.11217837E+00 0.19692413E+03</pdfrwt>
<pdfrwt beam="2">  1       -1 0.81915006E-02 0.19692413E+03</pdfrwt>
<totfact> 0.21882284E+03</totfact>
</mgrwt>
</event>
<event>
12    1  0.5759937E-002  0.1815517E+03  0.7546771E-02  0.1166310E+00
          1   -1    0    0  503    0  0.00000000000E+00  0.00000000000E+00  0.11759670766E+04  0.11759670766E+04  0.00000000000E+00 0. -1.
         -1   -1    0    0    0  501 -0.00000000000E+00 -0.00000000000E+00 -0.33794764005E+02  0.33794764005E+02  0.00000000000E+00 0.  1.
          6    2    1    2  503    0 -0.52263605988E+02  0.14284473350E+02  0.31958147991E+03  0.36723638803E+03  0.17261144718E+03 0.  0.
         24    2    3    3    0    0 -0.29893353549E+02  0.74054421062E+02  0.15908640372E+03  0.19445434520E+03  0.78270931073E+02 0.  0.
         -6    2    1    2    0  501  0.52263605988E+02 -0.14284473350E+02  0.82259083264E+03  0.84252545253E+03  0.17394806563E+03 0.  0.
        -24    2    5    5    0    0  0.72741949514E+02 -0.59368709221E+02  0.44023177563E+03  0.45694473549E+03  0.78603054436E+02 0.  0.
          2    1    4    4  502    0  0.23225044175E+02  0.35330641716E+02  0.88016740846E+02  0.97645294767E+02  0.00000000000E+00 0. -1.
         -1    1    4    4    0  502 -0.53118397724E+02  0.38723779346E+02  0.71069662875E+02  0.96809050428E+02  0.00000000000E+00 0.  1.
          5    1    3    3  503    0 -0.22370252439E+02 -0.59769947712E+02  0.16049507619E+03  0.17278204283E+03  0.47000000000E+01 0. -1.
         11    1    6    6    0    0  0.31004469888E+02 -0.12648593591E+02  0.31640605636E+03  0.31817299787E+03  0.00000000000E+00 0. -1.
        -12    1    6    6    0    0  0.41737479626E+02 -0.46720115630E+02  0.12382571927E+03  0.13877173763E+03  0.00000000000E+00 0.  1.
         -5    1    5    5    0  501 -0.20478343525E+02  0.45084235870E+02  0.38235905701E+03  0.38558071704E+03  0.47000000000E+01 0.  1.
<mgrwt>
<rscale>  2 0.18155175E+03</rscale>
<asrwt>0</asrwt>
<pdfrwt beam="1">  1        1 0.18091798E+00 0.18155175E+03</pdfrwt>
<pdfrwt beam="2">  1       -1 0.51991954E-02 0.18155175E+03</pdfrwt>
<totfact> 0.19712037E+03</totfact>
</mgrwt>
</event>
<event>
12    1  0.5759937E-002  0.1771947E+03  0.7546771E-02  0.1170546E+00
         -2   -1    0    0    0  501 -0.00000000000E+00  0.00000000000E+00  0.10568691976E+04  0.10568691976E+04  0.00000000000E+00 0. -1.
          2   -1    0    0  503    0  0.00000000000E+00 -0.00000000000E+00 -0.42330856147E+02  0.42330856147E+02  0.00000000000E+00 0.  1.
          6    2    1    2  503    0 -0.36529344696E+02  0.31187022406E+02  0.20657468622E+03  0.27197238055E+03  0.17026112712E+03 0.  0.
         24    2    3    3    0    0  0.45081325595E+02  0.14429818961E+02  0.96053960882E+02  0.13348763013E+03  0.79699676304E+02 0.  0.
         -6    2    1    2    0  501  0.36529344696E+02 -0.31187022406E+02  0.80796365522E+03  0.82722767317E+03  0.17086056222E+03 0.  0.
        -24    2    5    5    0    0 -0.40963432371E+02 -0.28145844065E+02  0.33927507884E+03  0.35214299558E+03  0.80168066462E+02 0.  0.
          2    1    4    4  502    0  0.32143377934E+02  0.40494819439E+02  0.89957697922E+02  0.10375651576E+03  0.00000000000E+00 0. -1.
         -1    1    4    4    0  502  0.12937947661E+02 -0.26065000478E+02  0.60962629599E+01  0.29731114370E+02  0.00000000000E+00 0.  1.
          5    1    3    3  503    0 -0.81610670290E+02  0.16757203445E+02  0.11052072533E+03  0.13848475043E+03  0.47000000000E+01 0. -1.
         11    1    6    6    0    0  0.23798206988E+02 -0.39577244565E+00  0.91529282764E+02  0.94573362502E+02  0.00000000000E+00 0. -1.
        -12    1    6    6    0    0 -0.64761639359E+02 -0.27750071619E+02  0.24774579608E+03  0.25756963308E+03  0.00000000000E+00 0.  1.
         -5    1    5    5    0  501  0.77492777067E+02 -0.30411783410E+01  0.46868857637E+03  0.47508467760E+03  0.47000000000E+01 0.  1.
<mgrwt>
<rscale>  2 0.17719466E+03</rscale>
<asrwt>0</asrwt>
<pdfrwt beam="2">  1        2 0.65124402E-02 0.17719466E+03</pdfrwt>
<pdfrwt beam="1">  1       -2 0.16259524E+00 0.17719466E+03</pdfrwt>
<totfact> 0.28314840E+02</totfact>
</mgrwt>
</event>
<event>
12    1  0.5759937E-002  0.2016158E+03  0.7546771E-02  0.1148383E+00
         -2   -1    0    0    0  501 -0.00000000000E+00  0.00000000000E+00  0.32557321788E+02  0.32557321788E+02  0.00000000000E+00 0.  1.
          2   -1    0    0  503    0  0.00000000000E+00 -0.00000000000E+00 -0.15882982117E+04  0.15882982117E+04  0.00000000000E+00 0. -1.
          6    2    1    2  503    0 -0.45871586666E+00  0.10035865640E+03 -0.11578093004E+04  0.11755271019E+04  0.17683190046E+03 0.  0.
         24    2    3    3    0    0 -0.28377060061E+02  0.87170783436E+02 -0.11180684227E+04  0.11249822576E+04  0.84285698208E+02 0.  0.
         -6    2    1    2    0  501  0.45871586666E+00 -0.10035865640E+03 -0.39793158953E+03  0.44532843154E+03  0.17290399550E+03 0.  0.
        -24    2    5    5    0    0  0.39048637656E+02 -0.12411734246E+03 -0.27405938123E+03  0.31334331414E+03  0.78393732369E+02 0.  0.
          4    1    4    4  502    0 -0.30876855397E+02  0.52507289965E+02 -0.10013170488E+04  0.10031680955E+04  0.00000000000E+00 0. -1.
         -3    1    4    4    0  502  0.24997953353E+01  0.34663493470E+02 -0.11675137395E+03  0.12181416205E+03  0.00000000000E+00 0.  1.
          5    1    3    3  503    0  0.27918344195E+02  0.13187872965E+02 -0.39740877641E+02  0.50544844363E+02  0.47000000000E+01 0. -1.
         13    1    6    6    0    0  0.43310847280E+02 -0.29511061179E+02 -0.62574892417E+02  0.81623215969E+02  0.00000000000E+00 0. -1.
        -14    1    6    6    0    0 -0.42622096243E+01 -0.94606281279E+02 -0.21148448881E+03  0.23172009817E+03  0.00000000000E+00 0.  1.
         -5    1    5    5    0  501 -0.38589921789E+02  0.23758686057E+02 -0.12387220830E+03  0.13198511740E+03  0.47000000000E+01 0.  1.
<mgrwt>
<rscale>  2 0.20161578E+03</rscale>
<asrwt>0</asrwt>
<pdfrwt beam="2">  1        2 0.24435361E+00 0.20161578E+03</pdfrwt>
<pdfrwt beam="1">  1       -2 0.50088179E-02 0.20161578E+03</pdfrwt>
<totfact> 0.23922855E+03</totfact>
</mgrwt>
</event>
<event>
12    1  0.5759937E-002  0.2288581E+03  0.7546771E-02  0.1127446E+00
         -2   -1    0    0    0  501 -0.00000000000E+00  0.00000000000E+00  0.36783772684E+03  0.36783772684E+03  0.00000000000E+00 0. -1.
          2   -1    0    0  503    0  0.00000000000E+00 -0.00000000000E+00 -0.17096606872E+03  0.17096606872E+03  0.00000000000E+00 0.  1.
          6    2    1    2  503    0  0.61809291408E+02  0.13865677591E+03  0.20851245771E+03  0.30946679622E+03  0.17101509562E+03 0.  0.
         24    2    3    3    0    0 -0.31913735551E+02  0.53288995446E+02  0.85141293573E+02  0.13250861510E+03  0.80319920642E+02 0.  0.
         -6    2    1    2    0  501 -0.61809291408E+02 -0.13865677591E+03 -0.11640799598E+02  0.22933699933E+03  0.17150469684E+03 0.  0.
        -24    2    5    5    0    0 -0.12712627396E+02 -0.95660994015E+01 -0.42420873565E+02  0.87758794330E+02  0.75159525778E+02 0.  0.
          4    1    4    4  502    0 -0.33377106586E+01 -0.20719290577E+02  0.10034901615E+02  0.23262170253E+02  0.00000000000E+00 0. -1.
         -3    1    4    4    0  502 -0.28576024893E+02  0.74008286023E+02  0.75106391958E+02  0.10924644485E+03  0.00000000000E+00 0.  1.
          5    1    3    3  503    0  0.93723026960E+02  0.85367780465E+02  0.12337116414E+03  0.17695818112E+03  0.47000000000E+01 0. -1.
         11    1    6    6    0    0  0.86825159391E+01 -0.39204984128E+01  0.19663144159E+02  0.21849385096E+02  0.00000000000E+00 0. -1.
        -12    1    6    6    0    0 -0.21395143335E+02 -0.56456009887E+01 -0.62084017724E+02  0.65909409234E+02  0.00000000000E+00 0.  1.
         -5    1    5    5    0  501 -0.49096664012E+02 -0.12909067651E+03  0.30780073967E+02  0.14157820500E+03  0.47000000000E+01 0.  1.
<mgrwt>
<rscale>  2 0.22885811E+03</rscale>
<asrwt>0</asrwt>
<pdfrwt beam="2">  1        2 0.26302472E-01 0.22885811E+03</pdfrwt>
<pdfrwt beam="1">  1       -2 0.56590419E-01 0.22885811E+03</pdfrwt>
<totfact> 0.60692721E+02</totfact>
</mgrwt>
</event>
<event>
12    1  0.5759937E-002  0.1935211E+03  0.7546771E-02  0.1155323E+00
          2   -1    0    0  503    0  0.00000000000E+00  0.00000000000E+00  0.60726738330E+03  0.60726738330E+03  0.00000000000E+00 0. -1.
         -2   -1    0    0    0  501 -0.00000000000E+00 -0.00000000000E+00 -0.68084148520E+02  0.68084148520E+02  0.00000000000E+00 0.  1.
          6    2    1    2  503    0  0.84129732602E+02 -0.17314230108E+02  0.37376974295E+03  0.42109394127E+03  0.17389276051E+03 0.  0.
         24    2    3    3    0    0  0.72744988127E+02 -0.58113009674E+02  0.35271137883E+03  0.37355766544E+03  0.80442883219E+02 0.  0.
         -6    2    1    2    0  501 -0.84129732602E+02  0.17314230108E+02  0.16541349182E+03  0.25425759054E+03  0.17293844165E+03 0.  0.
        -24    2    5    5    0    0 -0.37150189521E+02  0.88997867984E+01 -0.64597480411E+01  0.75818859026E+02  0.65172296667E+02 0.  0.
          2    1    4    4  502    0 -0.67138048021E+01 -0.21179236754E+02  0.16397071531E+03  0.16546912318E+03  0.00000000000E+00 0. -1.
         -1    1    4    4    0  502  0.79458792929E+02 -0.36933772919E+02  0.18874066351E+03  0.20808854226E+03  0.00000000000E+00 0.  1.
          5    1    3    3  503    0  0.11384744475E+02  0.40798779566E+02  0.21058364126E+02  0.47536275837E+02  0.47000000000E+01 0. -1.
         11    1    6    6    0    0  0.15523896623E+02  0.15785733171E+02 -0.48888471480E+01  0.22673366855E+02  0.00000000000E+00 0. -1.
        -12    1    6    6    0    0 -0.52674086144E+02 -0.68859463723E+01 -0.15709008930E+01  0.53145492171E+02  0.00000000000E+00 0.  1.
         -5    1    5    5    0  501 -0.46979543081E+02  0.84144433095E+01  0.17187323986E+03  0.17843873152E+03  0.47000000000E+01 0.  1.
<mgrwt>
<rscale>  2 0.19352113E+03</rscale>
<asrwt>0</asrwt>
<pdfrwt beam="1">  1        2 0.93425748E-01 0.19352113E+03</pdfrwt>
<pdfrwt beam="2">  1       -2 0.10474485E-01 0.19352113E+03</pdfrwt>
<totfact> 0.30274616E+03</totfact>
</mgrwt>
</event>
<event>
12    1  0.5759937E-002  0.1849883E+03  0.7546771E-02  0.1163061E+00
          2   -1    0    0  503    0  0.00000000000E+00  0.00000000000E+00  0.15047321989E+04  0.15047321989E+04  0.00000000000E+00 0.  1.
         -2   -1    0    0    0  501 -0.00000000000E+00 -0.00000000000E+00 -0.35977493390E+02  0.35977493390E+02  0.00000000000E+00 0. -1.
          6    2    1    2  503    0  0.49211000353E+02  0.44119972211E+02  0.12000259458E+04  0.12141043284E+04  0.17210100266E+03 0.  0.
         24    2    3    3    0    0  0.42206645482E+02  0.90967412161E+02  0.10128183596E+04  0.10209398545E+04  0.80378393259E+02 0.  0.
         -6    2    1    2    0  501 -0.49211000353E+02 -0.44119972211E+02  0.26872875964E+03  0.32660536383E+03  0.17345784191E+03 0.  0.
        -24    2    5    5    0    0  0.33242488393E+01 -0.85303991620E+02  0.15121702374E+03  0.19137528605E+03  0.80436871056E+02 0.  0.
          2    1    4    4  502    0 -0.24189935166E+02  0.27809426299E+02  0.28176967285E+03  0.28417013512E+03  0.00000000000E+00 0. -1.
         -1    1    4    4    0  502  0.66396580648E+02  0.63157985862E+02  0.73104868671E+03  0.73676971941E+03  0.00000000000E+00 0.  1.
          5    1    3    3  503    0  0.70043548712E+01 -0.46847439950E+02  0.18720758628E+03  0.19316447390E+03  0.47000000000E+01 0. -1.
         11    1    6    6    0    0 -0.24397128808E+02 -0.19862567234E+02  0.95453971345E+01  0.32876375677E+02  0.00000000000E+00 0. -1.
        -12    1    6    6    0    0  0.27721377647E+02 -0.65441424386E+02  0.14167162661E+03  0.15849891038E+03  0.00000000000E+00 0.  1.
         -5    1    5    5    0  501 -0.52535249192E+02  0.41184019408E+02  0.11751173589E+03  0.13523007778E+03  0.47000000000E+01 0.  1.
<mgrwt>
<rscale>  2 0.18498833E+03</rscale>
<asrwt>0</asrwt>
<pdfrwt beam="1">  1        2 0.23149721E+00 0.18498833E+03</pdfrwt>
<pdfrwt beam="2">  1       -2 0.55350002E-02 0.18498833E+03</pdfrwt>
<totfact> 0.22747127E+03</totfact>
</mgrwt>
</event>
<event>
12    1  0.5759937E-002  0.2480459E+03  0.7546771E-02  0.1114546E+00
          2   -1    0    0  503    0  0.00000000000E+00  0.00000000000E+00  0.20564617165E+04  0.20564617165E+04  0.00000000000E+00 0.  1.
         -2   -1    0    0    0  501 -0.00000000000E+00 -0.00000000000E+00 -0.44238718942E+02  0.44238718942E+02  0.00000000000E+00 0. -1.
          6    2    1    2  503    0  0.29065770369E+02 -0.17548079858E+03  0.40827324725E+03  0.47767042341E+03  0.17275317452E+03 0.  0.
         24    2    3    3    0    0  0.12565068777E+02 -0.98196890135E+02  0.10544172037E+03  0.16466227763E+03  0.78709587047E+02 0.  0.
         -6    2    1    2    0  501 -0.29065770369E+02  0.17548079858E+03  0.16039497503E+04  0.16230300120E+04  0.17301239480E+03 0.  0.
        -24    2    5    5    0    0 -0.79426045812E+02  0.75228030052E+02  0.89531452856E+03  0.90555336262E+03  0.80442738943E+02 0.  0.
          2    1    4    4  502    0  0.19152960535E+02 -0.95183254469E+02  0.50867385476E+02  0.10960920917E+03  0.00000000000E+00 0. -1.
         -1    1    4    4    0  502 -0.65878917589E+01 -0.30136356657E+01  0.54574334898E+02  0.55053068464E+02  0.00000000000E+00 0.  1.
          5    1    3    3  503    0  0.16500701593E+02 -0.77283908446E+02  0.30283152687E+03  0.31300814578E+03  0.47000000000E+01 0. -1.
         11    1    6    6    0    0 -0.20098243842E+02 -0.16050948766E+02  0.12843545535E+03  0.13098564254E+03  0.00000000000E+00 0. -1.
        -12    1    6    6    0    0 -0.59327801970E+02  0.91278978817E+02  0.76687907321E+03  0.77456772008E+03  0.00000000000E+00 0.  1.
         -5    1    5    5    0  501  0.50360275443E+02  0.10025276853E+03  0.70863522177E+03  0.71747664943E+03  0.47000000000E+01 0.  1.
<mgrwt>
<rscale>  2 0.24804594E+03</rscale>
<asrwt>0</asrwt>
<pdfrwt beam="1">  1        2 0.31637865E+00 0.24804594E+03</pdfrwt>
<pdfrwt beam="2">  1       -2 0.68059584E-02 0.24804594E+03</pdfrwt>
<totfact> 0.84778038E+02</totfact>
</mgrwt>
</event>
<event>
12    1  0.5759937E-002  0.2862069E+03  0.7546771E-02  0.1092346E+00
         -2   -1    0    0    0  501 -0.00000000000E+00  0.00000000000E+00  0.70921141210E+03  0.70921141210E+03  0.00000000000E+00 0.  1.
          2   -1    0    0  503    0  0.00000000000E+00 -0.00000000000E+00 -0.12500133180E+03  0.12500133180E+03  0.00000000000E+00 0. -1.
          6    2    1    2  503    0  0.22455412508E+03 -0.39699055822E+02  0.40729412535E+03  0.49791869835E+03  0.17330307412E+03 0.  0.
         24    2    3    3    0    0  0.80280254062E+02  0.40259209543E+02  0.13993463819E+03  0.18373489955E+03  0.78173443061E+02 0.  0.
         -6    2    1    2    0  501 -0.22455412508E+03  0.39699055822E+02  0.17691595495E+03  0.33629404555E+03  0.17260897958E+03 0.  0.
        -24    2    5    5    0    0 -0.96719304060E+02 -0.44662712538E+02  0.98395968090E+02  0.16411353631E+03  0.76825155999E+02 0.  0.
          4    1    4    4  502    0  0.25237116253E+02  0.17912121448E+02 -0.81869355548E+00  0.30958462344E+02  0.00000000000E+00 0. -1.
         -3    1    4    4    0  502  0.55043137809E+02  0.22347088094E+02  0.14075333175E+03  0.15277643720E+03  0.00000000000E+00 0.  1.
          5    1    3    3  503    0  0.14427387102E+03 -0.79958265365E+02  0.26735948716E+03  0.31418379881E+03  0.47000000000E+01 0. -1.
         11    1    6    6    0    0 -0.93394372129E+02 -0.71635245867E+01  0.71761406157E+02  0.11799798407E+03  0.00000000000E+00 0. -1.
        -12    1    6    6    0    0 -0.33249319313E+01 -0.37499187951E+02  0.26634561934E+02  0.46115552244E+02  0.00000000000E+00 0.  1.
         -5    1    5    5    0  501 -0.12783482102E+03  0.84361768361E+02  0.78519986857E+02  0.17218050924E+03  0.47000000000E+01 0.  1.
<mgrwt>
<rscale>  2 0.28620690E+03</rscale>
<asrwt>0</asrwt>
<pdfrwt beam="2">  1        2 0.19230975E-01 0.28620690E+03</pdfrwt>
<pdfrwt beam="1">  1       -2 0.10910945E+00 0.28620690E+03</pdfrwt>
<totfact> 0.20355578E+02</totfact>
</mgrwt>
</event>
<event>
12    1  0.5759937E-002  0.2616985E+03  0.7546771E-02  0.1106127E+00
          1   -1    0    0  503    0  0.00000000000E+00  0.00000000000E+00  0.81966398936E+03  0.81966398936E+03  0.00000000000E+00 0. -1.
         -1   -1    0    0    0  501 -0.00000000000E+00 -0.00000000000E+00 -0.89843600965E+02  0.89843600965E+02  0.00000000000E+00 0.  1.
          6    2    1    2  503    0 -0.74036204792E+01  0.19696843719E+03  0.48567713088E+03  0.55185899848E+03  0.17266933689E+03 0.  0.
         24    2    3    3    0    0  0.43845512988E+02  0.17981064934E+03  0.42482864306E+03  0.47033911235E+03  0.80530776823E+02 0.  0.
         -6    2    1    2    0  501  0.74036204792E+01 -0.19696843719E+03  0.24414325752E+03  0.35764859185E+03  0.17162519108E+03 0.  0.
        -24    2    5    5    0    0 -0.42473431269E+02 -0.11431112534E+03  0.20959836594E+03  0.25500653892E+03  0.78903955223E+02 0.  0.
          4    1    4    4  502    0 -0.56582345023E+01  0.13472153443E+03  0.28824187718E+03  0.31822207217E+03  0.00000000000E+00 0. -1.
         -3    1    4    4    0  502  0.49503747490E+02  0.45089114913E+02  0.13658676588E+03  0.15211704018E+03  0.00000000000E+00 0.  1.
          5    1    3    3  503    0 -0.51249133467E+02  0.17157787846E+02  0.60848487812E+02  0.81519886125E+02  0.47000000000E+01 0. -1.
         13    1    6    6    0    0  0.11825198769E+02  0.58419001429E+01  0.23212769146E+02  0.26698235421E+02  0.00000000000E+00 0. -1.
        -14    1    6    6    0    0 -0.54298630039E+02 -0.12015302548E+03  0.18638559679E+03  0.22830830350E+03  0.00000000000E+00 0.  1.
         -5    1    5    5    0  501  0.49877051749E+02 -0.82657311853E+02  0.34544891580E+02  0.10264205292E+03  0.47000000000E+01 0.  1.
<mgrwt>
<rscale>  2 0.26169848E+03</rscale>
<asrwt>0</asrwt>
<pdfrwt beam="1">  1        1 0.12610215E+00 0.26169848E+03</pdfrwt>
<pdfrwt beam="2">  1       -1 0.13822093E-01 0.26169848E+03</pdfrwt>
<totfact> 0.81492520E+02</totfact>
</mgrwt>
</event>
<event>
12    1  0.5759937E-002  0.6289243E+03  0.7546771E-02  0.9847150E-01
          2   -1    0    0  503    0  0.00000000000E+00  0.00000000000E+00  0.10752082308E+04  0.10752082308E+04  0.00000000000E+00 0. -1.
         -2   -1    0    0    0  501 -0.00000000000E+00 -0.00000000000E+00 -0.43855097376E+03  0.43855097376E+03  0.00000000000E+00 0.  1.
          6    2    1    2  503    0 -0.60263657146E+03 -0.50018209712E+02  0.62225107849E+03  0.88486819770E+03  0.17355882016E+03 0.  0.
         24    2    3    3    0    0 -0.19893375245E+03 -0.33356446566E+02  0.14331741258E+03  0.25824779684E+03  0.73923970631E+02 0.  0.
         -6    2    1    2    0  501  0.60263657146E+03  0.50018209712E+02  0.14406178582E+02  0.62889100689E+03  0.17211537410E+03 0.  0.
        -24    2    5    5    0    0  0.59443707961E+03  0.56612669411E+02  0.36949327502E+02  0.60357298705E+03  0.79841480085E+02 0.  0.
          2    1    4    4  502    0 -0.12481872204E+03  0.69518768288E+01  0.11325317160E+03  0.16868409184E+03  0.00000000000E+00 0. -1.
         -1    1    4    4    0  502 -0.74115030409E+02 -0.40308323394E+02  0.30064240977E+02  0.89563704998E+02  0.00000000000E+00 0.  1.
          5    1    3    3  503    0 -0.40370281901E+03 -0.16661763147E+02  0.47893366592E+03  0.62662040086E+03  0.47000000000E+01 0. -1.
         13    1    6    6    0    0  0.42244065383E+03  0.67300754215E+02  0.50367990429E+02  0.43072315005E+03  0.00000000000E+00 0. -1.
        -14    1    6    6    0    0  0.17199642577E+03 -0.10688084804E+02 -0.13418662927E+02  0.17284983700E+03  0.00000000000E+00 0.  1.
         -5    1    5    5    0  501  0.81994918501E+01 -0.65944596986E+01 -0.22543148921E+02  0.25318019839E+02  0.47000000000E+01 0.  1.
<mgrwt>
<rscale>  2 0.62892429E+03</rscale>
<asrwt>0</asrwt>
<pdfrwt beam="1">  1        2 0.16541665E+00 0.62892429E+03</pdfrwt>
<pdfrwt beam="2">  1       -2 0.67469381E-01 0.62892429E+03</pdfrwt>
<totfact> 0.46770196E+01</totfact>
</mgrwt>
</event>
<event>
12    1  0.5759937E-002  0.2257669E+03  0.7546771E-02  0.1129655E+00
         -2   -1    0    0    0  501 -0.00000000000E+00  0.00000000000E+00  0.98015178612E+02  0.98015178612E+02  0.00000000000E+00 0.  1.
          2   -1    0    0  503    0  0.00000000000E+00 -0.00000000000E+00 -0.52034545953E+03  0.52034545953E+03  0.00000000000E+00 0. -1.
          6    2    1    2  503    0 -0.12410122909E+03  0.75812264738E+02 -0.20339929352E+03  0.30376920307E+03  0.17249881618E+03 0.  0.
         24    2    3    3    0    0 -0.46863173009E+02  0.38102708626E+02 -0.19256735786E+03  0.21701006084E+03  0.79769704802E+02 0.  0.
         -6    2    1    2    0  501  0.12410122909E+03 -0.75812264738E+02 -0.21893098740E+03  0.31459143507E+03  0.17288255907E+03 0.  0.
        -24    2    5    5    0    0  0.10949018885E+03 -0.11447234113E+03 -0.14120044534E+03  0.22643129004E+03  0.79003449323E+02 0.  0.
          4    1    4    4  502    0  0.13057548367E+02  0.67946312635E+01 -0.10675572730E+03  0.10776572691E+03  0.00000000000E+00 0. -1.
         -3    1    4    4    0  502 -0.59920721376E+02  0.31308077363E+02 -0.85811630559E+02  0.10924433394E+03  0.00000000000E+00 0.  1.
          5    1    3    3  503    0 -0.77238056083E+02  0.37709556112E+02 -0.10831935655E+02  0.86759142226E+02  0.47000000000E+01 0. -1.
         11    1    6    6    0    0  0.12385740893E+02 -0.60805059592E+02 -0.28508094834E+02  0.68288896026E+02  0.00000000000E+00 0. -1.
        -12    1    6    6    0    0  0.97104447954E+02 -0.53667281541E+02 -0.11269235051E+03  0.15814239401E+03  0.00000000000E+00 0.  1.
         -5    1    5    5    0  501  0.14611040244E+02  0.38660076395E+02 -0.77730542055E+02  0.88160145031E+02  0.47000000000E+01 0.  1.
<mgrwt>
<rscale>  2 0.22576688E+03</rscale>
<asrwt>0</asrwt>
<pdfrwt beam="2">  1        2 0.80053150E-01 0.22576688E+03</pdfrwt>
<pdfrwt beam="1">  1       -2 0.15079258E-01 0.22576688E+03</pdfrwt>
<totfact> 0.20081134E+03</totfact>
</mgrwt>
</event>
<event>
12    1  0.5759937E-002  0.1850509E+03  0.7546771E-02  0.1163002E+00
         -1   -1    0    0    0  501 -0.00000000000E+00  0.00000000000E+00  0.51091752900E+02  0.51091752900E+02  0.00000000000E+00 0.  1.
          1   -1    0    0  503    0  0.00000000000E+00 -0.00000000000E+00 -0.85994750632E+03  0.85994750632E+03  0.00000000000E+00 0. -1.
          6    2    1    2  503    0 -0.60930475850E+02 -0.31798854050E+02 -0.19558937566E+03  0.27129603892E+03  0.17499327661E+03 0.  0.
         24    2    3    3    0    0 -0.66343808190E+01 -0.43690790619E+02 -0.29424289903E+02  0.96017946121E+02  0.80004730780E+02 0.  0.
         -6    2    1    2    0  501  0.60930475850E+02  0.31798854050E+02 -0.61326637776E+03  0.63974322030E+03  0.16867734828E+03 0.  0.
        -24    2    5    5    0    0  0.21990150976E+01  0.75138006645E+02 -0.33715428357E+03  0.35410770922E+03  0.77901881180E+02 0.  0.
          4    1    4    4  502    0  0.15508382972E+02 -0.21374774525E+02 -0.51313857257E+02  0.57710509224E+02  0.00000000000E+00 0. -1.
         -3    1    4    4    0  502 -0.22142763791E+02 -0.22316016094E+02  0.21889567354E+02  0.38307436896E+02  0.00000000000E+00 0.  1.
          5    1    3    3  503    0 -0.54296095031E+02  0.11891936569E+02 -0.16616508576E+03  0.17527809280E+03  0.47000000000E+01 0. -1.
         13    1    6    6    0    0  0.20095071161E+02  0.78558515698E+02 -0.31576397520E+03  0.32600941751E+03  0.00000000000E+00 0. -1.
        -14    1    6    6    0    0 -0.17896056064E+02 -0.34205090531E+01 -0.21390308372E+02  0.28098291711E+02  0.00000000000E+00 0.  1.
         -5    1    5    5    0  501  0.58731460753E+02 -0.43339152595E+02 -0.27611209419E+03  0.28563551108E+03  0.47000000000E+01 0.  1.
<mgrwt>
<rscale>  2 0.18505092E+03</rscale>
<asrwt>0</asrwt>
<pdfrwt beam="2">  1        1 0.13229960E+00 0.18505092E+03</pdfrwt>
<pdfrwt beam="1">  1       -1 0.78602705E-02 0.18505092E+03</pdfrwt>
<totfact> 0.18113294E+03</totfact>
</mgrwt>
</event>
<event>
12    1  0.5759937E-002  0.1818645E+03  0.7546771E-02  0.1166011E+00
          2   -1    0    0  503    0  0.00000000000E+00  0.00000000000E+00  0.40200187452E+04  0.40200187452E+04  0.00000000000E+00 0.  1.
         -2   -1    0    0    0  501 -0.00000000000E+00 -0.00000000000E+00 -0.83342411527E+01  0.83342411527E+01  0.00000000000E+00 0. -1.
          6    2    1    2  503    0 -0.55101226543E+02  0.16132221748E+02  0.17843855488E+04  0.17936891694E+04  0.17318387905E+03 0.  0.
         24    2    3    3    0    0 -0.86976651488E+01  0.15120069031E+02  0.16347482704E+04  0.16369482365E+04  0.83026234041E+02 0.  0.
         -6    2    1    2    0  501  0.55101226543E+02 -0.16132221748E+02  0.22272989552E+04  0.22346638169E+04  0.17194576163E+03 0.  0.
        -24    2    5    5    0    0  0.89187451639E+02 -0.51303687826E+02  0.14271199938E+04  0.14329735007E+04  0.78454491024E+02 0.  0.
          2    1    4    4  502    0  0.94967999658E+01  0.34609407392E+02  0.33325285606E+03  0.33517975231E+03  0.00000000000E+00 0. -1.
         -1    1    4    4    0  502 -0.18194465115E+02 -0.19489338362E+02  0.13014954143E+04  0.13017684842E+04  0.00000000000E+00 0.  1.
          5    1    3    3  503    0 -0.46403561394E+02  0.10121527177E+01  0.14963727835E+03  0.15674093287E+03  0.47000000000E+01 0. -1.
         11    1    6    6    0    0  0.73245828707E+02 -0.38496917094E+02  0.60874770329E+03  0.61434577422E+03  0.00000000000E+00 0. -1.
        -12    1    6    6    0    0  0.15941622932E+02 -0.12806770733E+02  0.81837229046E+03  0.81862772645E+03  0.00000000000E+00 0.  1.
         -5    1    5    5    0  501 -0.34086225097E+02  0.35171466078E+02  0.80017896150E+03  0.80169031626E+03  0.47000000000E+01 0.  1.
<mgrwt>
<rscale>  2 0.18186452E+03</rscale>
<asrwt>0</asrwt>
<pdfrwt beam="1">  1        2 0.61846288E+00 0.18186452E+03</pdfrwt>
<pdfrwt beam="2">  1       -2 0.12821942E-02 0.18186452E+03</pdfrwt>
<totfact> 0.66031890E+02</totfact>
</mgrwt>
</event>
<event>
12    1  0.5759937E-002  0.1758508E+03  0.7546771E-02  0.1171880E+00
          1   -1    0    0  503    0  0.00000000000E+00  0.00000000000E+00  0.84408984436E+03  0.84408984436E+03  0.00000000000E+00 0. -1.
         -1   -1    0    0    0  501 -0.00000000000E+00 -0.00000000000E+00 -0.36771694440E+02  0.36771694440E+02  0.00000000000E+00 0.  1.
          6    2    1    2  503    0 -0.15689621116E+02  0.93021616691E+01  0.37953672470E+03  0.41876782177E+03  0.17602746585E+03 0.  0.
         24    2    3    3    0    0  0.18267743402E+02 -0.57682111092E+02  0.23803739749E+03  0.25850508436E+03  0.80635845914E+02 0.  0.
         -6    2    1    2    0  501  0.15689621116E+02 -0.93021616691E+01  0.42778142523E+03  0.46209371703E+03  0.17378423729E+03 0.  0.
        -24    2    5    5    0    0  0.62373976420E+02 -0.34283591057E+02  0.19416575111E+03  0.22250683501E+03  0.82116229650E+02 0.  0.
          2    1    4    4  502    0  0.26455391373E+02  0.12971271213E+02  0.62140552899E+02  0.68772014106E+02  0.00000000000E+00 0. -1.
         -1    1    4    4    0  502 -0.81876479715E+01 -0.70653382305E+02  0.17589684459E+03  0.18973307025E+03  0.00000000000E+00 0.  1.
          5    1    3    3  503    0 -0.33957364518E+02  0.66984272762E+02  0.14149932721E+03  0.16026273741E+03  0.47000000000E+01 0. -1.
         11    1    6    6    0    0  0.19567605315E+02  0.98590468912E+01  0.13636987086E+03  0.13811891131E+03  0.00000000000E+00 0. -1.
        -12    1    6    6    0    0  0.42806371105E+02 -0.44142637948E+02  0.57795880246E+02  0.84387923695E+02  0.00000000000E+00 0.  1.
         -5    1    5    5    0  501 -0.46684355304E+02  0.24981429388E+02  0.23361567412E+03  0.23958688202E+03  0.47000000000E+01 0.  1.
<mgrwt>
<rscale>  2 0.17585085E+03</rscale>
<asrwt>0</asrwt>
<pdfrwt beam="1">  1        1 0.12985996E+00 0.17585085E+03</pdfrwt>
<pdfrwt beam="2">  1       -1 0.56571844E-02 0.17585085E+03</pdfrwt>
<totfact> 0.30584320E+03</totfact>
</mgrwt>
</event>
<event>
12    1  0.5759937E-002  0.2789436E+03  0.7546771E-02  0.1096267E+00
         -2   -1    0    0    0  501 -0.00000000000E+00  0.00000000000E+00  0.17386702980E+03  0.17386702980E+03  0.00000000000E+00 0. -1.
          2   -1    0    0  503    0  0.00000000000E+00 -0.00000000000E+00 -0.45800670605E+03  0.45800670605E+03  0.00000000000E+00 0.  1.
          6    2    1    2  503    0 -0.50932500244E+02 -0.21329135050E+03 -0.94339583749E+02  0.29459518445E+03  0.17262400141E+03 0.  0.
         24    2    3    3    0    0  0.23974632255E+01 -0.10465388626E+03 -0.11190590308E+03  0.17221524650E+03  0.78593741749E+02 0.  0.
         -6    2    1    2    0  501  0.50932500244E+02  0.21329135050E+03 -0.18980009250E+03  0.33727855139E+03  0.17217847234E+03 0.  0.
        -24    2    5    5    0    0  0.88754164153E+02  0.16508105223E+03 -0.96884397728E+02  0.22587779980E+03  0.80654438563E+02 0.  0.
          4    1    4    4  502    0  0.27687736395E+02 -0.70524980342E+02 -0.33079086221E+02  0.82671697358E+02  0.00000000000E+00 0. -1.
         -3    1    4    4    0  502 -0.25290273169E+02 -0.34128905922E+02 -0.78826816858E+02  0.89543549139E+02  0.00000000000E+00 0.  1.
          5    1    3    3  503    0 -0.53329963470E+02 -0.10863746423E+03  0.17566319330E+02  0.12237993795E+03  0.47000000000E+01 0. -1.
         11    1    6    6    0    0 -0.10022876269E+02  0.10888651743E+02  0.58455541417E+01  0.15911985694E+02  0.00000000000E+00 0. -1.
        -12    1    6    6    0    0  0.98777040423E+02  0.15419240049E+03 -0.10272995187E+03  0.20996581411E+03  0.00000000000E+00 0.  1.
         -5    1    5    5    0  501 -0.37821663909E+02  0.48210298266E+02 -0.92915694775E+02  0.11140075159E+03  0.47000000000E+01 0.  1.
<mgrwt>
<rscale>  2 0.27894357E+03</rscale>
<asrwt>0</asrwt>
<pdfrwt beam="2">  1        2 0.70462570E-01 0.27894357E+03</pdfrwt>
<pdfrwt beam="1">  1       -2 0.26748774E-01 0.27894357E+03</pdfrwt>
<totfact> 0.86749379E+02</totfact>
</mgrwt>
</event>
<event>
12    1  0.5759937E-002  0.1837698E+03  0.7546771E-02  0.1164204E+00
         -2   -1    0    0    0  501 -0.00000000000E+00  0.00000000000E+00  0.43475070476E+02  0.43475070476E+02  0.00000000000E+00 0. -1.
          2   -1    0    0  503    0  0.00000000000E+00 -0.00000000000E+00 -0.90110162274E+03  0.90110162274E+03  0.00000000000E+00 0.  1.
          6    2    1    2  503    0  0.18444659453E+02  0.57376626267E+02 -0.60162524917E+03  0.62869532363E+03  0.17225732731E+03 0.  0.
         24    2    3    3    0    0 -0.10549799168E+02 -0.18737470933E+02 -0.16892044727E+03  0.18836638975E+03  0.80531907982E+02 0.  0.
         -6    2    1    2    0  501 -0.18444659453E+02 -0.57376626267E+02 -0.25600130309E+03  0.31588136959E+03  0.17496310971E+03 0.  0.
        -24    2    5    5    0    0 -0.53842008446E+02 -0.59188986775E+02 -0.25570601930E+03  0.28012617194E+03  0.81748430388E+02 0.  0.
          4    1    4    4  502    0 -0.44388399318E+02 -0.52879595656E+01 -0.71064779261E+02  0.83955317650E+02  0.00000000000E+00 0. -1.
         -3    1    4    4    0  502  0.33838600150E+02 -0.13449511368E+02 -0.97855668004E+02  0.10441107210E+03  0.00000000000E+00 0.  1.
          5    1    3    3  503    0  0.28994458621E+02  0.76114097200E+02 -0.43270480191E+03  0.44032893389E+03  0.47000000000E+01 0. -1.
         11    1    6    6    0    0 -0.52333181882E+02 -0.23771753808E+02 -0.67710630791E+02  0.88817721920E+02  0.00000000000E+00 0. -1.
        -12    1    6    6    0    0 -0.15088265644E+01 -0.35417232967E+02 -0.18799538851E+03  0.19130845002E+03  0.00000000000E+00 0.  1.
         -5    1    5    5    0  501  0.35397348993E+02  0.18123605085E+01 -0.29528379805E+00  0.35755197648E+02  0.47000000000E+01 0.  1.
<mgrwt>
<rscale>  2 0.18376984E+03</rscale>
<asrwt>0</asrwt>
<pdfrwt beam="2">  1        2 0.13863101E+00 0.18376984E+03</pdfrwt>
<pdfrwt beam="1">  1       -2 0.66884726E-02 0.18376984E+03</pdfrwt>
<totfact> 0.37489595E+03</totfact>
</mgrwt>
</event>
<event>
12    1  0.5759937E-002  0.3379315E+03  0.7546771E-02  0.1067680E+00
         -2   -1    0    0    0  501 -0.00000000000E+00  0.00000000000E+00  0.62862627254E+03  0.62862627254E+03  0.00000000000E+00 0. -1.
          2   -1    0    0  503    0  0.00000000000E+00 -0.00000000000E+00 -0.18635713289E+03  0.18635713289E+03  0.00000000000E+00 0.  1.
          6    2    1    2  503    0 -0.10834726611E+03 -0.26971062406E+03  0.15742680318E+03  0.37414858135E+03  0.17527410465E+03 0.  0.
         24    2    3    3    0    0 -0.11741490802E+03 -0.23930935088E+03  0.81505165495E+02  0.29173107950E+03  0.86073832866E+02 0.  0.
         -6    2    1    2    0  501  0.10834726611E+03  0.26971062406E+03  0.28484233647E+03  0.44083482407E+03  0.16946160235E+03 0.  0.
        -24    2    5    5    0    0  0.52803149575E+02  0.16926619420E+03  0.25378066222E+03  0.32183419392E+03  0.87939790505E+02 0.  0.
          4    1    4    4  502    0 -0.18023737509E+02 -0.10220090592E+03 -0.36324387661E-01  0.10377804009E+03  0.00000000000E+00 0. -1.
         -3    1    4    4    0  502 -0.99391170514E+02 -0.13710844495E+03  0.81541489882E+02  0.18795303942E+03  0.00000000000E+00 0.  1.
          5    1    3    3  503    0  0.90676419119E+01 -0.30401273181E+02  0.75921637688E+02  0.82417501844E+02  0.47000000000E+01 0. -1.
         11    1    6    6    0    0  0.65717641698E+02  0.17138791893E+03  0.22619944699E+03  0.29130536727E+03  0.00000000000E+00 0. -1.
        -12    1    6    6    0    0 -0.12914492123E+02 -0.21217247279E+01  0.27581215229E+02  0.30528826642E+02  0.00000000000E+00 0.  1.
         -5    1    5    5    0  501  0.55544116537E+02  0.10044442986E+03  0.31061674250E+02  0.11900063016E+03  0.47000000000E+01 0.  1.
<mgrwt>
<rscale>  2 0.33793147E+03</rscale>
<asrwt>0</asrwt>
<pdfrwt beam="2">  1        2 0.28670328E-01 0.33793147E+03</pdfrwt>
<pdfrwt beam="1">  1       -2 0.96711733E-01 0.33793147E+03</pdfrwt>
<totfact> 0.17141360E+02</totfact>
</mgrwt>
</event>
<event>
12    1  0.5759937E-002  0.1746526E+03  0.7546771E-02  0.1173081E+00
         -2   -1    0    0    0  501 -0.00000000000E+00  0.00000000000E+00  0.68868629134E+02  0.68868629134E+02  0.00000000000E+00 0.  1.
          2   -1    0    0  503    0  0.00000000000E+00 -0.00000000000E+00 -0.69969596752E+03  0.69969596752E+03  0.00000000000E+00 0. -1.
          6    2    1    2  503    0 -0.15372953341E+02  0.24384063203E+02 -0.54874087405E+03  0.57600723172E+03  0.17273353441E+03 0.  0.
         24    2    3    3    0    0 -0.55152526007E+02 -0.66868078844E+01 -0.48142996337E+03  0.49174180507E+03  0.83358735003E+02 0.  0.
         -6    2    1    2    0  501  0.15372953341E+02 -0.24384063203E+02 -0.82086464337E+02  0.19255736493E+03  0.17178253965E+03 0.  0.
        -24    2    5    5    0    0 -0.33388880478E+01 -0.44393628050E+02 -0.11617258907E+03  0.14857475937E+03  0.81218509501E+02 0.  0.
          4    1    4    4  502    0 -0.50730710818E+02 -0.96030308295E+01 -0.48335587803E+03  0.48610567580E+03  0.00000000000E+00 0. -1.
         -3    1    4    4    0  502 -0.44218151887E+01  0.29162229451E+01  0.19259146631E+01  0.56361292674E+01  0.00000000000E+00 0.  1.
          5    1    3    3  503    0  0.39779572666E+02  0.31070871087E+02 -0.67310910683E+02  0.84265426650E+02  0.47000000000E+01 0. -1.
         13    1    6    6    0    0  0.33028453578E+02 -0.27484569453E+02 -0.92526594278E+02  0.10201691503E+03  0.00000000000E+00 0. -1.
        -14    1    6    6    0    0 -0.36367341626E+02 -0.16909058597E+02 -0.23645994787E+02  0.46557844335E+02  0.00000000000E+00 0.  1.
         -5    1    5    5    0  501  0.18711841388E+02  0.20009564847E+02  0.34086124729E+02  0.43982605568E+02  0.47000000000E+01 0.  1.
<mgrwt>
<rscale>  2 0.17465259E+03</rscale>
<asrwt>0</asrwt>
<pdfrwt beam="2">  1        2 0.10764554E+00 0.17465259E+03</pdfrwt>
<pdfrwt beam="1">  1       -2 0.10595173E-01 0.17465259E+03</pdfrwt>
<totfact> 0.25090360E+03</totfact>
</mgrwt>
</event>
<event>
12    1  0.5759937E-002  0.1842380E+03  0.7546771E-02  0.1163763E+00
         -3   -1    0    0    0  501 -0.00000000000E+00  0.00000000000E+00  0.52046880719E+02  0.52046880719E+02  0.00000000000E+00 0.  1.
          3   -1    0    0  503    0  0.00000000000E+00 -0.00000000000E+00 -0.66369504722E+03  0.66369504722E+03  0.00000000000E+00 0. -1.
          6    2    1    2  503    0 -0.46339969159E+02 -0.39962232963E+02 -0.35279220546E+03  0.39795098857E+03  0.17366138391E+03 0.  0.
         24    2    3    3    0    0 -0.88206652430E+02 -0.53238086291E+01 -0.29633993674E+03  0.31945520363E+03  0.80159294846E+02 0.  0.
         -6    2    1    2    0  501  0.46339969159E+02  0.39962232963E+02 -0.25885596104E+03  0.31779093937E+03  0.17389738289E+03 0.  0.
        -24    2    5    5    0    0 -0.18054824290E+01 -0.32764529876E+02 -0.85832589935E+02  0.12397054960E+03  0.83214719187E+02 0.  0.
          4    1    4    4  502    0 -0.84044927053E+02 -0.30952003041E+02 -0.25840158305E+03  0.27348300564E+03  0.00000000000E+00 0. -1.
         -3    1    4    4    0  502 -0.41617253776E+01  0.25628194412E+02 -0.37938353690E+02  0.45972197986E+02  0.00000000000E+00 0.  1.
          5    1    3    3  503    0  0.41866683271E+02 -0.34638424334E+02 -0.56452268725E+02  0.78495784936E+02  0.47000000000E+01 0. -1.
         11    1    6    6    0    0 -0.80117194936E+01  0.18541857668E+02  0.37554142548E+01  0.20544859971E+02  0.00000000000E+00 0. -1.
        -12    1    6    6    0    0  0.62062370646E+01 -0.51306387544E+02 -0.89588004189E+02  0.10342568963E+03  0.00000000000E+00 0.  1.
         -5    1    5    5    0  501  0.48145451588E+02  0.72726762839E+02 -0.17302337111E+03  0.19382038977E+03  0.47000000000E+01 0.  1.
<mgrwt>
<rscale>  2 0.18423799E+03</rscale>
<asrwt>0</asrwt>
<pdfrwt beam="2">  1        3 0.10210693E+00 0.18423799E+03</pdfrwt>
<pdfrwt beam="1">  1       -3 0.80072124E-02 0.18423799E+03</pdfrwt>
<totfact> 0.22293373E+02</totfact>
</mgrwt>
</event>
<event>
12    1  0.5759937E-002  0.2028132E+03  0.7546771E-02  0.1147387E+00
          2   -1    0    0  503    0  0.00000000000E+00  0.00000000000E+00  0.43366998168E+03  0.43366998168E+03  0.00000000000E+00 0.  1.
         -2   -1    0    0    0  501 -0.00000000000E+00 -0.00000000000E+00 -0.22052228267E+03  0.22052228267E+03  0.00000000000E+00 0. -1.
          6    2    1    2  503    0  0.41225638527E+02 -0.97432061890E+02  0.35359037302E+03  0.40782268861E+03  0.17349534143E+03 0.  0.
         24    2    3    3    0    0  0.25626450404E+02 -0.12457812102E+03  0.34330482625E+03  0.37453416704E+03  0.79001363002E+02 0.  0.
         -6    2    1    2    0  501 -0.41225638527E+02  0.97432061890E+02 -0.14044267401E+03  0.24636957573E+03  0.17257248682E+03 0.  0.
        -24    2    5    5    0    0 -0.36525379830E+02  0.13490144123E+03 -0.94748539876E+02  0.18690453799E+03  0.80146854539E+02 0.  0.
          2    1    4    4  502    0 -0.11913662033E+02 -0.30038635971E+02  0.17436899168E+03  0.17733809589E+03  0.00000000000E+00 0. -1.
         -1    1    4    4    0  502  0.37540112437E+02 -0.94539485047E+02  0.16893583456E+03  0.19719607114E+03  0.00000000000E+00 0.  1.
          5    1    3    3  503    0  0.15599188123E+02  0.27146059128E+02  0.10285546773E+02  0.33288521575E+02  0.47000000000E+01 0. -1.
         13    1    6    6    0    0  0.45133927711E+01  0.53255086671E+02 -0.77136091806E+02  0.93842696198E+02  0.00000000000E+00 0. -1.
        -14    1    6    6    0    0 -0.41038772601E+02  0.81646354563E+02 -0.17612448071E+02  0.93061841788E+02  0.00000000000E+00 0.  1.
         -5    1    5    5    0  501 -0.47002586976E+01 -0.37469379345E+02 -0.45694134131E+02  0.59465037747E+02  0.47000000000E+01 0.  1.
<mgrwt>
<rscale>  2 0.20281321E+03</rscale>
<asrwt>0</asrwt>
<pdfrwt beam="1">  1        2 0.66718459E-01 0.20281321E+03</pdfrwt>
<pdfrwt beam="2">  1       -2 0.33926505E-01 0.20281321E+03</pdfrwt>
<totfact> 0.59739040E+02</totfact>
</mgrwt>
</event>
<event>
12    1  0.5759937E-002  0.1700216E+03  0.7546771E-02  0.1177825E+00
          4   -1    0    0  503    0  0.00000000000E+00  0.00000000000E+00  0.19556472370E+03  0.19556472370E+03  0.00000000000E+00 0. -1.
         -4   -1    0    0    0  501 -0.00000000000E+00 -0.00000000000E+00 -0.17423169913E+03  0.17423169913E+03  0.00000000000E+00 0.  1.
          6    2    1    2  503    0  0.21300334270E+02  0.12810190815E+02 -0.61417776167E+02  0.17785955674E+03  0.16505778826E+03 0.  0.
         24    2    3    3    0    0  0.25690795009E+02 -0.53895047675E+02 -0.51649640604E+02  0.11013680236E+03  0.76796723553E+02 0.  0.
         -6    2    1    2    0  501 -0.21300334270E+02 -0.12810190815E+02  0.82750800730E+02  0.19193686609E+03  0.17138920711E+03 0.  0.
        -24    2    5    5    0    0  0.27970838882E+02  0.43722129246E+02  0.35282005442E+02  0.10306095124E+03  0.81748072444E+02 0.  0.
          4    1    4    4  502    0  0.11918525819E+02 -0.71904942901E+02 -0.47742153324E+02  0.87130277604E+02  0.00000000000E+00 0. -1.
         -3    1    4    4    0  502  0.13772269190E+02  0.18009895226E+02 -0.39074872793E+01  0.23006524760E+02  0.00000000000E+00 0.  1.
          5    1    3    3  503    0 -0.43904607391E+01  0.66705238489E+02 -0.97681355630E+01  0.67722754373E+02  0.47000000000E+01 0. -1.
         13    1    6    6    0    0 -0.34273504472E+01 -0.21471058486E+02  0.19038159388E+02  0.28899906514E+02  0.00000000000E+00 0. -1.
        -14    1    6    6    0    0  0.31398189329E+02  0.65193187733E+02  0.16243846054E+02  0.74161044724E+02  0.00000000000E+00 0.  1.
         -5    1    5    5    0  501 -0.49271173153E+02 -0.56532320061E+02  0.47468795288E+02  0.88875914855E+02  0.47000000000E+01 0.  1.
<mgrwt>
<rscale>  2 0.17002164E+03</rscale>
<asrwt>0</asrwt>
<pdfrwt beam="1">  1        4 0.30086880E-01 0.17002164E+03</pdfrwt>
<pdfrwt beam="2">  1       -4 0.26804877E-01 0.17002164E+03</pdfrwt>
<totfact> 0.24103029E+02</totfact>
</mgrwt>
</event>
<event>
12    1  0.5759937E-002  0.1998678E+03  0.7546771E-02  0.1149851E+00
          1   -1    0    0  503    0  0.00000000000E+00  0.00000000000E+00  0.13058760113E+04  0.13058760113E+04  0.00000000000E+00 0. -1.
         -1   -1    0    0    0  501 -0.00000000000E+00 -0.00000000000E+00 -0.30768804776E+02  0.30768804776E+02  0.00000000000E+00 0.  1.
          6    2    1    2  503    0 -0.32314190377E+02 -0.94816313148E+02  0.58675874941E+03  0.61987622879E+03  0.17299239541E+03 0.  0.
         24    2    3    3    0    0 -0.12681941370E+02  0.58314391681E+01  0.11727135519E+03  0.13929751663E+03  0.73867381648E+02 0.  0.
         -6    2    1    2    0  501  0.32314190377E+02  0.94816313148E+02  0.68834845713E+03  0.71676858731E+03  0.17291405141E+03 0.  0.
        -24    2    5    5    0    0  0.15921061386E+02  0.54494144452E+02  0.17018805510E+03  0.19676194870E+03  0.80797267160E+02 0.  0.
          2    1    4    4  502    0 -0.33411666010E+02  0.25446628771E+02  0.92180438425E+02  0.10129710544E+03  0.00000000000E+00 0. -1.
         -1    1    4    4    0  502  0.20729724640E+02 -0.19615189603E+02  0.25090916762E+02  0.38000411192E+02  0.00000000000E+00 0.  1.
          5    1    3    3  503    0 -0.19632249008E+02 -0.10064775232E+03  0.46948739422E+03  0.48057871216E+03  0.47000000000E+01 0. -1.
         11    1    6    6    0    0  0.31039782860E+02 -0.97578852425E+01  0.62264277564E+02  0.70253289638E+02  0.00000000000E+00 0. -1.
        -12    1    6    6    0    0 -0.15118721474E+02  0.64252029694E+02  0.10792377754E+03  0.12650865906E+03  0.00000000000E+00 0.  1.
         -5    1    5    5    0  501  0.16393128991E+02  0.40322168696E+02  0.51816040203E+03  0.52000663861E+03  0.47000000000E+01 0.  1.
<mgrwt>
<rscale>  2 0.19986785E+03</rscale>
<asrwt>0</asrwt>
<pdfrwt beam="1">  1        1 0.20090396E+00 0.19986785E+03</pdfrwt>
<pdfrwt beam="2">  1       -1 0.47336633E-02 0.19986785E+03</pdfrwt>
<totfact> 0.18475408E+03</totfact>
</mgrwt>
</event>
<event>
12    1  0.5759937E-002  0.2274303E+03  0.7546771E-02  0.1128462E+00
          2   -1    0    0  503    0  0.00000000000E+00  0.00000000000E+00  0.21192207345E+04  0.21192207345E+04  0.00000000000E+00 0.  1.
         -2   -1    0    0    0  501 -0.00000000000E+00 -0.00000000000E+00 -0.24904710617E+02  0.24904710617E+02  0.00000000000E+00 0. -1.
          6    2    1    2  503    0 -0.13788037548E+03  0.19387573472E+02  0.92099111808E+03  0.94992502209E+03  0.18640287567E+03 0.  0.
         24    2    3    3    0    0 -0.74608550968E+02 -0.32414477628E+02  0.76680350542E+03  0.77533210650E+03  0.80840121271E+02 0.  0.
         -6    2    1    2    0  501  0.13788037548E+03 -0.19387573472E+02  0.11733249058E+04  0.11942004230E+04  0.17331024158E+03 0.  0.
        -24    2    5    5    0    0  0.13449121888E+03 -0.24305727927E+02  0.59080333914E+03  0.61162927694E+03  0.79769232835E+02 0.  0.
          2    1    4    4  502    0 -0.80948102277E+02 -0.34606150582E+02  0.45399945717E+03  0.46245614714E+03  0.00000000000E+00 0. -1.
         -1    1    4    4    0  502  0.63395513095E+01  0.21916729541E+01  0.31280404825E+03  0.31287595936E+03  0.00000000000E+00 0.  1.
          5    1    3    3  503    0 -0.63271824514E+02  0.51802051100E+02  0.15418761266E+03  0.17459291559E+03  0.47000000000E+01 0. -1.
         13    1    6    6    0    0  0.81198063796E+02 -0.29236242613E+02  0.48957388926E+03  0.49712219473E+03  0.00000000000E+00 0. -1.
        -14    1    6    6    0    0  0.53293155087E+02  0.49305146857E+01  0.10122944988E+03  0.11450708222E+03  0.00000000000E+00 0.  1.
         -5    1    5    5    0  501  0.33891565993E+01  0.49181544554E+01  0.58252156668E+03  0.58257114610E+03  0.47000000000E+01 0.  1.
<mgrwt>
<rscale>  2 0.22743029E+03</rscale>
<asrwt>0</asrwt>
<pdfrwt beam="1">  1        2 0.32603382E+00 0.22743029E+03</pdfrwt>
<pdfrwt beam="2">  1       -2 0.38314956E-02 0.22743029E+03</pdfrwt>
<totfact> 0.18907738E+03</totfact>
</mgrwt>
</event>
<event>
12    1  0.5759937E-002  0.2073152E+03  0.7546771E-02  0.1143710E+00
          2   -1    0    0  503    0  0.00000000000E+00  0.00000000000E+00  0.19931331468E+04  0.19931331468E+04  0.00000000000E+00 0. -1.
         -2   -1    0    0    0  501 -0.00000000000E+00 -0.00000000000E+00 -0.21809676545E+02  0.21809676545E+02  0.00000000000E+00 0.  1.
          6    2    1    2  503    0  0.11569357820E+03  0.61786919885E+01  0.10912105150E+04  0.11106736714E+04  0.17155884167E+03 0.  0.
         24    2    3    3    0    0  0.55129804708E+02  0.57832745895E+02  0.41332283968E+03  0.42811239048E+03  0.77849388022E+02 0.  0.
         -6    2    1    2    0  501 -0.11569357820E+03 -0.61786919885E+01  0.88011295530E+03  0.90426915192E+03  0.17228088916E+03 0.  0.
        -24    2    5    5    0    0 -0.66322493809E+02 -0.69422545708E+02  0.49177605339E+03  0.50770272825E+03  0.81854813805E+02 0.  0.
          4    1    4    4  502    0  0.72175869821E+02  0.40516280561E+02  0.36180171149E+03  0.37114876211E+03  0.00000000000E+00 0. -1.
         -3    1    4    4    0  502 -0.17046065113E+02  0.17316465334E+02  0.51521128189E+02  0.56963628373E+02  0.00000000000E+00 0.  1.
          5    1    3    3  503    0  0.60563773497E+02 -0.51654053907E+02  0.67788767530E+03  0.68256128096E+03  0.47000000000E+01 0. -1.
         11    1    6    6    0    0 -0.22154410179E+02  0.75753065553E+01  0.23201783321E+03  0.23319622229E+03  0.00000000000E+00 0. -1.
        -12    1    6    6    0    0 -0.44168083630E+02 -0.76997852263E+02  0.25975822018E+03  0.27450650596E+03  0.00000000000E+00 0.  1.
         -5    1    5    5    0  501 -0.49371084395E+02  0.63243853719E+02  0.38833690190E+03  0.39656642368E+03  0.47000000000E+01 0.  1.
<mgrwt>
<rscale>  2 0.20731515E+03</rscale>
<asrwt>0</asrwt>
<pdfrwt beam="1">  1        2 0.30663572E+00 0.20731515E+03</pdfrwt>
<pdfrwt beam="2">  1       -2 0.33553364E-02 0.20731515E+03</pdfrwt>
<totfact> 0.26878008E+03</totfact>
</mgrwt>
</event>
<event>
12    1  0.5759937E-002  0.1758138E+03  0.7546771E-02  0.1171917E+00
         -2   -1    0    0    0  501 -0.00000000000E+00  0.00000000000E+00  0.11730373026E+02  0.11730373026E+02  0.00000000000E+00 0. -1.
          2   -1    0    0  503    0  0.00000000000E+00 -0.00000000000E+00 -0.28090857437E+04  0.28090857437E+04  0.00000000000E+00 0.  1.
          6    2    1    2  503    0 -0.15485377213E+01  0.45410831901E+02 -0.10290883704E+04  0.10435725090E+04  0.16720097433E+03 0.  0.
         24    2    3    3    0    0  0.41103936649E+02  0.61100602185E+02 -0.90341576586E+03  0.90985229365E+03  0.79046398119E+02 0.  0.
         -6    2    1    2    0  501  0.15485377213E+01 -0.45410831901E+02 -0.17682670002E+04  0.17772436077E+04  0.17251700014E+03 0.  0.
        -24    2    5    5    0    0  0.64461473527E+02 -0.53190564268E+02 -0.11700301492E+04  0.11756391017E+04  0.78563538907E+02 0.  0.
          4    1    4    4  502    0  0.47112548535E+02  0.36899732590E+02 -0.29939965305E+03  0.30532169059E+03  0.00000000000E+00 0. -1.
         -3    1    4    4    0  502 -0.60086118864E+01  0.24200869595E+02 -0.60401611281E+03  0.60453060306E+03  0.00000000000E+00 0.  1.
          5    1    3    3  503    0 -0.42652474370E+02 -0.15689770284E+02 -0.12567260457E+03  0.13372021538E+03  0.47000000000E+01 0. -1.
         13    1    6    6    0    0 -0.25859880084E+01 -0.43681201526E+02 -0.33085606516E+03  0.33373712792E+03  0.00000000000E+00 0. -1.
        -14    1    6    6    0    0  0.67047461536E+02 -0.95093627418E+01 -0.83917408409E+03  0.84190197380E+03  0.00000000000E+00 0.  1.
         -5    1    5    5    0  501 -0.62912935806E+02  0.77797323669E+01 -0.59823685099E+03  0.60160450597E+03  0.47000000000E+01 0.  1.
<mgrwt>
<rscale>  2 0.17581381E+03</rscale>
<asrwt>0</asrwt>
<pdfrwt beam="2">  1        2 0.43216725E+00 0.17581381E+03</pdfrwt>
<pdfrwt beam="1">  1       -2 0.18046719E-02 0.17581381E+03</pdfrwt>
<totfact> 0.24475607E+03</totfact>
</mgrwt>
</event>
<event>
12    1  0.5759937E-002  0.2121770E+03  0.7546771E-02  0.1139854E+00
         -2   -1    0    0    0  501 -0.00000000000E+00  0.00000000000E+00  0.92916321850E+02  0.92916321850E+02  0.00000000000E+00 0.  1.
          2   -1    0    0  503    0  0.00000000000E+00 -0.00000000000E+00 -0.48840468510E+03  0.48840468510E+03  0.00000000000E+00 0. -1.
          6    2    1    2  503    0 -0.75609687996E+02  0.96464108241E+02 -0.17185758504E+03  0.27309868985E+03  0.17327929987E+03 0.  0.
         24    2    3    3    0    0 -0.11469114117E+03  0.10307623177E+03 -0.15192796121E+03  0.22848523822E+03  0.73106985101E+02 0.  0.
         -6    2    1    2    0  501  0.75609687996E+02 -0.96464108241E+02 -0.22363077821E+03  0.30822231710E+03  0.17311303446E+03 0.  0.
        -24    2    5    5    0    0  0.30322563614E+02 -0.12072269645E+03 -0.11581639194E+03  0.18870062609E+03  0.81860016747E+02 0.  0.
          2    1    4    4  502    0 -0.79316393567E+02  0.42823010234E+02 -0.12386333249E+03  0.15318950887E+03  0.00000000000E+00 0. -1.
         -1    1    4    4    0  502 -0.35374747603E+02  0.60253221533E+02 -0.28064628722E+02  0.75295729350E+02  0.00000000000E+00 0.  1.
          5    1    3    3  503    0  0.39081453174E+02 -0.66121235255E+01 -0.19929623831E+02  0.44613451624E+02  0.47000000000E+01 0. -1.
         13    1    6    6    0    0  0.24105994286E+01 -0.38034794582E+02 -0.89927406743E+02  0.97669826825E+02  0.00000000000E+00 0. -1.
        -14    1    6    6    0    0  0.27911964185E+02 -0.82687901866E+02 -0.25888985195E+02  0.91030799261E+02  0.00000000000E+00 0.  1.
         -5    1    5    5    0  501  0.45287124382E+02  0.24258588207E+02 -0.10781438627E+03  0.11952169102E+03  0.47000000000E+01 0.  1.
<mgrwt>
<rscale>  2 0.21217695E+03</rscale>
<asrwt>0</asrwt>
<pdfrwt beam="2">  1        2 0.75139181E-01 0.21217695E+03</pdfrwt>
<pdfrwt beam="1">  1       -2 0.14294819E-01 0.21217695E+03</pdfrwt>
<totfact> 0.23505228E+03</totfact>
</mgrwt>
</event>
<event>
12    1  0.5759937E-002  0.2107240E+03  0.7546771E-02  0.1140994E+00
         -2   -1    0    0    0  501 -0.00000000000E+00  0.00000000000E+00  0.22742470392E+02  0.22742470392E+02  0.00000000000E+00 0.  1.
          2   -1    0    0  503    0  0.00000000000E+00 -0.00000000000E+00 -0.19557039819E+04  0.19557039819E+04  0.00000000000E+00 0. -1.
          6    2    1    2  503    0 -0.51540823236E+02  0.10694465365E+03 -0.10055766036E+04  0.10273761167E+04  0.17384983151E+03 0.  0.
         24    2    3    3    0    0 -0.29332757212E+02  0.55960283600E+02 -0.25692748438E+03  0.27664966985E+03  0.80816728547E+02 0.  0.
         -6    2    1    2    0  501  0.51540823236E+02 -0.10694465365E+03 -0.92738490790E+03  0.95107033565E+03  0.17435137094E+03 0.  0.
        -24    2    5    5    0    0  0.26083400092E+02  0.14819807907E+02 -0.40579661262E+03  0.41483241805E+03  0.80716007029E+02 0.  0.
          2    1    4    4  502    0 -0.24760667627E+01  0.70981759347E+02 -0.16276504247E+03  0.17758659893E+03  0.00000000000E+00 0. -1.
         -1    1    4    4    0  502 -0.26856690449E+02 -0.15021475747E+02 -0.94162441902E+02  0.99063070921E+02  0.00000000000E+00 0.  1.
          5    1    3    3  503    0 -0.22208066024E+02  0.50984370053E+02 -0.74864911925E+03  0.75072644681E+03  0.47000000000E+01 0. -1.
         13    1    6    6    0    0  0.10438822828E+02 -0.17573717424E+02 -0.33305579431E+03  0.33368243390E+03  0.00000000000E+00 0. -1.
        -14    1    6    6    0    0  0.15644577264E+02  0.32393525332E+02 -0.72740818303E+02  0.81149984156E+02  0.00000000000E+00 0.  1.
         -5    1    5    5    0  501  0.25457423144E+02 -0.12176446156E+03 -0.52158829528E+03  0.53623791759E+03  0.47000000000E+01 0.  1.
<mgrwt>
<rscale>  2 0.21072402E+03</rscale>
<asrwt>0</asrwt>
<pdfrwt beam="2">  1        2 0.30087756E+00 0.21072402E+03</pdfrwt>
<pdfrwt beam="1">  1       -2 0.34988414E-02 0.21072402E+03</pdfrwt>
<totfact> 0.26405300E+03</totfact>
</mgrwt>
</event>
<event>
12    1  0.5759937E-002  0.2135754E+03  0.7546771E-02  0.1138765E+00
         -1   -1    0    0    0  501 -0.00000000000E+00  0.00000000000E+00  0.24292530106E+03  0.24292530106E+03  0.00000000000E+00 0. -1.
          1   -1    0    0  503    0  0.00000000000E+00 -0.00000000000E+00 -0.18897338222E+03  0.18897338222E+03  0.00000000000E+00 0.  1.
          6    2    1    2  503    0  0.71163216567E+02 -0.10574067863E+03  0.44118433289E+02  0.21754180985E+03  0.17068306409E+03 0.  0.
         24    2    3    3    0    0  0.27720526240E+02  0.79847071442E+01 -0.68994495375E+01  0.85459846357E+02  0.80147363103E+02 0.  0.
         -6    2    1    2    0  501 -0.71163216567E+02  0.10574067863E+03  0.98334855490E+01  0.21435687342E+03  0.17206649074E+03 0.  0.
        -24    2    5    5    0    0  0.14115076024E+02  0.61856039320E+02 -0.34039351023E+02  0.10878621204E+03  0.81549724347E+02 0.  0.
          4    1    4    4  502    0  0.44988504044E+02 -0.94809331795E+01  0.19016813080E+02  0.49754324132E+02  0.00000000000E+00 0. -1.
         -3    1    4    4    0  502 -0.17267977804E+02  0.17465640324E+02 -0.25916262617E+02  0.35705522226E+02  0.00000000000E+00 0.  1.
          5    1    3    3  503    0  0.43442690327E+02 -0.11372538578E+03  0.51017882827E+02  0.13208196350E+03  0.47000000000E+01 0. -1.
         13    1    6    6    0    0  0.90802353951E+01  0.34462924352E+02  0.24982236629E+02  0.43523051096E+02  0.00000000000E+00 0. -1.
        -14    1    6    6    0    0  0.50348406294E+01  0.27393114968E+02 -0.59021587652E+02  0.65263160947E+02  0.00000000000E+00 0.  1.
         -5    1    5    5    0  501 -0.85278292591E+02  0.43884639311E+02  0.43872836572E+02  0.10557066138E+03  0.47000000000E+01 0.  1.
<mgrwt>
<rscale>  2 0.21357545E+03</rscale>
<asrwt>0</asrwt>
<pdfrwt beam="2">  1        1 0.29072828E-01 0.21357545E+03</pdfrwt>
<pdfrwt beam="1">  1       -1 0.37373123E-01 0.21357545E+03</pdfrwt>
<totfact> 0.10953012E+03</totfact>
</mgrwt>
</event>
<event>
12    1  0.5759937E-002  0.2795098E+03  0.7546771E-02  0.1095957E+00
         -2   -1    0    0    0  501 -0.00000000000E+00  0.00000000000E+00  0.50470688359E+02  0.50470688359E+02  0.00000000000E+00 0.  1.
          2   -1    0    0  503    0  0.00000000000E+00 -0.00000000000E+00 -0.16536482340E+04  0.16536482340E+04  0.00000000000E+00 0. -1.
          6    2    1    2  503    0 -0.21926583960E+03  0.21018106893E+02 -0.10182429950E+04  0.10560310867E+04  0.17281085045E+03 0.  0.
         24    2    3    3    0    0 -0.20372512698E+03 -0.16702071593E+02 -0.95935953993E+03  0.98424197268E+03  0.81108861265E+02 0.  0.
         -6    2    1    2    0  501  0.21926583960E+03 -0.21018106893E+02 -0.58493455070E+03  0.64808783569E+03  0.17131883998E+03 0.  0.
        -24    2    5    5    0    0  0.31908844043E+02 -0.77436158228E+01 -0.15505023405E+03  0.17893810309E+03  0.83067031632E+02 0.  0.
          2    1    4    4  502    0 -0.10651971243E+03  0.27239852509E+01 -0.66888481963E+03  0.67731881058E+03  0.00000000000E+00 0. -1.
         -1    1    4    4    0  502 -0.97205414551E+02 -0.19426056844E+02 -0.29047472030E+03  0.30692316210E+03  0.00000000000E+00 0.  1.
          5    1    3    3  503    0 -0.15540712620E+02  0.37720178486E+02 -0.58883455047E+02  0.71789114022E+02  0.47000000000E+01 0. -1.
         13    1    6    6    0    0  0.19660028325E+02  0.11230492714E+02 -0.15470306707E+03  0.15635114211E+03  0.00000000000E+00 0. -1.
        -14    1    6    6    0    0  0.12248815719E+02 -0.18974108537E+02 -0.34716698456E+00  0.22586960977E+02  0.00000000000E+00 0.  1.
         -5    1    5    5    0  501  0.18735699556E+03 -0.13274491070E+02 -0.42988431664E+03  0.46914973260E+03  0.47000000000E+01 0.  1.
<mgrwt>
<rscale>  2 0.27950978E+03</rscale>
<asrwt>0</asrwt>
<pdfrwt beam="2">  1        2 0.25440743E+00 0.27950978E+03</pdfrwt>
<pdfrwt beam="1">  1       -2 0.77647210E-02 0.27950978E+03</pdfrwt>
<totfact> 0.11202146E+03</totfact>
</mgrwt>
</event>
<event>
12    1  0.5759937E-002  0.1961017E+03  0.7546771E-02  0.1153070E+00
         -3   -1    0    0    0  501 -0.00000000000E+00  0.00000000000E+00  0.26046946710E+03  0.26046946710E+03  0.00000000000E+00 0.  1.
          3   -1    0    0  503    0  0.00000000000E+00 -0.00000000000E+00 -0.21024625976E+03  0.21024625976E+03  0.00000000000E+00 0. -1.
          6    2    1    2  503    0 -0.91902344751E+02 -0.53636567329E+01  0.15355167901E+03  0.24914301448E+03  0.17326082579E+03 0.  0.
         24    2    3    3    0    0 -0.52597099491E+02 -0.61325301404E+02  0.13763323383E+03  0.17877189202E+03  0.80555787218E+02 0.  0.
         -6    2    1    2    0  501  0.91902344751E+02  0.53636567329E+01 -0.10332847167E+03  0.22157271238E+03  0.17304012260E+03 0.  0.
        -24    2    5    5    0    0  0.38127702675E+02  0.36438170920E+02 -0.12357525680E+03  0.15607950761E+03  0.79426107747E+02 0.  0.
          4    1    4    4  502    0 -0.61865966684E+02 -0.18846265587E+02  0.52968306494E+02  0.83595580345E+02  0.00000000000E+00 0. -1.
         -3    1    4    4    0  502  0.92688671931E+01 -0.42479035817E+02  0.84664927338E+02  0.95176311675E+02  0.00000000000E+00 0.  1.
          5    1    3    3  503    0 -0.39305245259E+02  0.55961644671E+02  0.15918445177E+02  0.70371122458E+02  0.47000000000E+01 0. -1.
         11    1    6    6    0    0  0.62732075782E+02  0.20851039896E+02 -0.89158078661E+02  0.11099208164E+03  0.00000000000E+00 0. -1.
        -12    1    6    6    0    0 -0.24604373107E+02  0.15587131024E+02 -0.34417178143E+02  0.45087425973E+02  0.00000000000E+00 0.  1.
         -5    1    5    5    0  501  0.53774642076E+02 -0.31074514187E+02  0.20246785136E+02  0.65493204767E+02  0.47000000000E+01 0.  1.
<mgrwt>
<rscale>  2 0.19610173E+03</rscale>
<asrwt>0</asrwt>
<pdfrwt beam="2">  1        3 0.32345579E-01 0.19610173E+03</pdfrwt>
<pdfrwt beam="1">  1       -3 0.40072226E-01 0.19610173E+03</pdfrwt>
<totfact> 0.14066626E+02</totfact>
</mgrwt>
</event>
<event>
12    1  0.5759937E-002  0.1894790E+03  0.7546771E-02  0.1158932E+00
         -1   -1    0    0    0  501 -0.00000000000E+00  0.00000000000E+00  0.80182127600E+02  0.80182127600E+02  0.00000000000E+00 0. -1.
          1   -1    0    0  503    0  0.00000000000E+00 -0.00000000000E+00 -0.72997943414E+03  0.72997943414E+03  0.00000000000E+00 0.  1.
          6    2    1    2  503    0 -0.40225429401E+02 -0.67020493234E+02 -0.73144858867E+02  0.20321208551E+03  0.17272854320E+03 0.  0.
         24    2    3    3    0    0  0.31961731267E+02 -0.56386806835E+02 -0.51942763122E+01  0.10339508735E+03  0.80389920582E+02 0.  0.
         -6    2    1    2    0  501  0.40225429401E+02  0.67020493234E+02 -0.57665244767E+03  0.60694947623E+03  0.17248127320E+03 0.  0.
        -24    2    5    5    0    0 -0.38022608380E+02  0.97689518628E+01 -0.28478015679E+03  0.29935880896E+03  0.83515313762E+02 0.  0.
          4    1    4    4  502    0  0.13847069827E+02 -0.24031343894E+02  0.37630522283E+02  0.46747224938E+02  0.00000000000E+00 0. -1.
         -3    1    4    4    0  502  0.18114661440E+02 -0.32355462941E+02 -0.42824798595E+02  0.56647862413E+02  0.00000000000E+00 0.  1.
          5    1    3    3  503    0 -0.72187160668E+02 -0.10633686399E+02 -0.67950582555E+02  0.99816998158E+02  0.47000000000E+01 0. -1.
         11    1    6    6    0    0 -0.52323506260E+01 -0.12747886167E+02 -0.21539918038E+01  0.13947249747E+02  0.00000000000E+00 0. -1.
        -12    1    6    6    0    0 -0.32790257754E+02  0.22516838030E+02 -0.28262616498E+03  0.28541155921E+03  0.00000000000E+00 0.  1.
         -5    1    5    5    0  501  0.78248037780E+02  0.57251541371E+02 -0.29187229089E+03  0.30759066727E+03  0.47000000000E+01 0.  1.
<mgrwt>
<rscale>  2 0.18947896E+03</rscale>
<asrwt>0</asrwt>
<pdfrwt beam="2">  1        1 0.11230453E+00 0.18947896E+03</pdfrwt>
<pdfrwt beam="1">  1       -1 0.12335712E-01 0.18947896E+03</pdfrwt>
<totfact> 0.11622030E+03</totfact>
</mgrwt>
</event>
<event>
12    1  0.5759937E-002  0.1787300E+03  0.7546771E-02  0.1169038E+00
          1   -1    0    0  503    0  0.00000000000E+00  0.00000000000E+00  0.87734370778E+03  0.87734370778E+03  0.00000000000E+00 0. -1.
         -1   -1    0    0    0  501 -0.00000000000E+00 -0.00000000000E+00 -0.57377403700E+02  0.57377403700E+02  0.00000000000E+00 0.  1.
          6    2    1    2  503    0  0.50367994074E+02  0.41911688346E+01  0.12926660751E+03  0.22157712389E+03  0.17271961467E+03 0.  0.
         24    2    3    3    0    0  0.10075179428E+03  0.13335440060E+01  0.83357791414E+02  0.15319289517E+03  0.79792476775E+02 0.  0.
         -6    2    1    2    0  501 -0.50367994074E+02 -0.41911688346E+01  0.69069969657E+03  0.71314398759E+03  0.17015808963E+03 0.  0.
        -24    2    5    5    0    0 -0.53794596670E+02  0.57501388439E+02  0.51523533055E+03  0.52705920322E+03  0.78254006636E+02 0.  0.
          4    1    4    4  502    0  0.33800254576E+02 -0.30177467849E+01  0.78975065073E+02  0.85957110866E+02  0.00000000000E+00 0. -1.
         -3    1    4    4    0  502  0.66951539706E+02  0.43512907909E+01  0.43827263408E+01  0.67235784302E+02  0.00000000000E+00 0.  1.
          5    1    3    3  503    0 -0.50383800208E+02  0.28576248286E+01  0.45908816097E+02  0.68384228726E+02  0.47000000000E+01 0. -1.
         13    1    6    6    0    0 -0.25947071403E+02 -0.16115444163E+02  0.18974757890E+03  0.19219027487E+03  0.00000000000E+00 0. -1.
        -14    1    6    6    0    0 -0.27847525267E+02  0.73616832603E+02  0.32548775164E+03  0.33486892835E+03  0.00000000000E+00 0.  1.
         -5    1    5    5    0  501  0.34266025958E+01 -0.61692557274E+02  0.17546436602E+03  0.18608478437E+03  0.47000000000E+01 0.  1.
<mgrwt>
<rscale>  2 0.17872997E+03</rscale>
<asrwt>0</asrwt>
<pdfrwt beam="1">  1        1 0.13497595E+00 0.17872997E+03</pdfrwt>
<pdfrwt beam="2">  1       -1 0.88272935E-02 0.17872997E+03</pdfrwt>
<totfact> 0.14701713E+03</totfact>
</mgrwt>
</event>
<event>
12    1  0.5759937E-002  0.2084822E+03  0.7546771E-02  0.1142774E+00
         -2   -1    0    0    0  501 -0.00000000000E+00  0.00000000000E+00  0.55121847278E+03  0.55121847278E+03  0.00000000000E+00 0.  1.
          2   -1    0    0  503    0  0.00000000000E+00 -0.00000000000E+00 -0.78876270687E+02  0.78876270687E+02  0.00000000000E+00 0. -1.
          6    2    1    2  503    0  0.70313298417E+02  0.93506672358E+02  0.24260866824E+03  0.32055815843E+03  0.17381343251E+03 0.  0.
         24    2    3    3    0    0  0.10440588232E+03  0.44355447918E+02  0.12113167334E+03  0.18507053010E+03  0.81915961833E+02 0.  0.
         -6    2    1    2    0  501 -0.70313298417E+02 -0.93506672358E+02  0.22973353386E+03  0.30953658504E+03  0.17131241400E+03 0.  0.
        -24    2    5    5    0    0  0.19311873369E+02 -0.26402483141E+02  0.14602133876E+03  0.16965997786E+03  0.79951467432E+02 0.  0.
          2    1    4    4  502    0  0.10272039571E+03  0.78208609155E+01  0.83659840547E+02  0.13270875812E+03  0.00000000000E+00 0. -1.
         -1    1    4    4    0  502  0.16854866073E+01  0.36534587003E+02  0.37471832790E+02  0.52361771983E+02  0.00000000000E+00 0.  1.
          5    1    3    3  503    0 -0.34092583899E+02  0.49151224440E+02  0.12147699490E+03  0.13548762833E+03  0.47000000000E+01 0. -1.
         11    1    6    6    0    0  0.23163770943E+02 -0.26784476630E+01  0.17317572529E+01  0.23382329853E+02  0.00000000000E+00 0. -1.
        -12    1    6    6    0    0 -0.38518975738E+01 -0.23724035479E+02  0.14428958151E+03  0.14627764801E+03  0.00000000000E+00 0.  1.
         -5    1    5    5    0  501 -0.89625171786E+02 -0.67104189216E+02  0.83712195093E+02  0.13987660718E+03  0.47000000000E+01 0.  1.
<mgrwt>
<rscale>  2 0.20848223E+03</rscale>
<asrwt>0</asrwt>
<pdfrwt beam="2">  1        2 0.12134811E-01 0.20848223E+03</pdfrwt>
<pdfrwt beam="1">  1       -2 0.84802840E-01 0.20848223E+03</pdfrwt>
<totfact> 0.62727265E+02</totfact>
</mgrwt>
</event>
<event>
12    1  0.5759937E-002  0.2167028E+03  0.7546771E-02  0.1136365E+00
          2   -1    0    0  503    0  0.00000000000E+00  0.00000000000E+00  0.19913154361E+04  0.19913154361E+04  0.00000000000E+00 0.  1.
         -2   -1    0    0    0  501 -0.00000000000E+00 -0.00000000000E+00 -0.31915394260E+02  0.31915394260E+02  0.00000000000E+00 0. -1.
          6    2    1    2  503    0 -0.36202697507E+02  0.12462921290E+03  0.45899710457E+03  0.50709521852E+03  0.17211665413E+03 0.  0.
         24    2    3    3    0    0 -0.29266888096E+02  0.12714264789E+03  0.46900650142E+03  0.49380233197E+03  0.82775848135E+02 0.  0.
         -6    2    1    2    0  501  0.36202697507E+02 -0.12462921290E+03  0.15004029373E+04  0.15161356118E+04  0.17497183573E+03 0.  0.
        -24    2    5    5    0    0  0.61266953122E+02 -0.64481811927E+02  0.52933648657E+03  0.54287404965E+03  0.81262378483E+02 0.  0.
          2    1    4    4  502    0  0.49127971310E+01  0.47453364700E+02  0.65192911001E+02  0.80784113796E+02  0.00000000000E+00 0. -1.
         -1    1    4    4    0  502 -0.34179685227E+02  0.79689283192E+02  0.40381359042E+03  0.41301821817E+03  0.00000000000E+00 0.  1.
          5    1    3    3  503    0 -0.69358094112E+01 -0.25134349877E+01 -0.10009396849E+02  0.13292886552E+02  0.47000000000E+01 0. -1.
         13    1    6    6    0    0  0.48843596680E+02  0.56848863279E+01  0.20868966694E+03  0.21440473865E+03  0.00000000000E+00 0. -1.
        -14    1    6    6    0    0  0.12423356442E+02 -0.70166698255E+02  0.32064681963E+03  0.32846931100E+03  0.00000000000E+00 0.  1.
         -5    1    5    5    0  501 -0.25064255615E+02 -0.60147400977E+02  0.97106645069E+03  0.97326156218E+03  0.47000000000E+01 0.  1.
<mgrwt>
<rscale>  2 0.21670280E+03</rscale>
<asrwt>0</asrwt>
<pdfrwt beam="1">  1        2 0.30635612E+00 0.21670280E+03</pdfrwt>
<pdfrwt beam="2">  1       -2 0.49100622E-02 0.21670280E+03</pdfrwt>
<totfact> 0.15186832E+03</totfact>
</mgrwt>
</event>
<event>
12    1  0.5759937E-002  0.1986223E+03  0.7546771E-02  0.1150907E+00
         -1   -1    0    0    0  501 -0.00000000000E+00  0.00000000000E+00  0.75288501183E+02  0.75288501183E+02  0.00000000000E+00 0. -1.
          1   -1    0    0  503    0  0.00000000000E+00 -0.00000000000E+00 -0.65407865996E+03  0.65407865996E+03  0.00000000000E+00 0.  1.
          6    2    1    2  503    0  0.30158784172E+02  0.91830209422E+02 -0.12618309502E+03  0.23489574729E+03  0.17294941168E+03 0.  0.
         24    2    3    3    0    0 -0.34290576417E+02  0.18206115026E+02 -0.19388204822E+02  0.89976921984E+02  0.78820287669E+02 0.  0.
         -6    2    1    2    0  501 -0.30158784172E+02 -0.91830209422E+02 -0.45260706376E+03  0.49447141385E+03  0.17408757947E+03 0.  0.
        -24    2    5    5    0    0 -0.53346760022E+02 -0.58435153512E+02 -0.14566128257E+03  0.18480915498E+03  0.81710896164E+02 0.  0.
          2    1    4    4  502    0 -0.46376587561E+02  0.41102205685E+02 -0.14057551923E+02  0.63543638171E+02  0.00000000000E+00 0. -1.
         -1    1    4    4    0  502  0.12086011143E+02 -0.22896090659E+02 -0.53306528986E+01  0.26433283813E+02  0.00000000000E+00 0.  1.
          5    1    3    3  503    0  0.64449360590E+02  0.73624094397E+02 -0.10679489019E+03  0.14491882530E+03  0.47000000000E+01 0. -1.
         13    1    6    6    0    0  0.11399660524E+02 -0.50605087919E+01  0.41114952678E+01  0.13132608371E+02  0.00000000000E+00 0. -1.
        -14    1    6    6    0    0 -0.64746420546E+02 -0.53374644720E+02 -0.14977277784E+03  0.17167654661E+03  0.00000000000E+00 0.  1.
         -5    1    5    5    0  501  0.23187975850E+02 -0.33395055910E+02 -0.30694578119E+03  0.30966225887E+03  0.47000000000E+01 0.  1.
<mgrwt>
<rscale>  2 0.19862235E+03</rscale>
<asrwt>0</asrwt>
<pdfrwt beam="2">  1        1 0.10062749E+00 0.19862235E+03</pdfrwt>
<pdfrwt beam="1">  1       -1 0.11582846E-01 0.19862235E+03</pdfrwt>
<totfact> 0.15023271E+03</totfact>
</mgrwt>
</event>
<event>
12    1  0.5759937E-002  0.2217840E+03  0.7546771E-02  0.1132560E+00
         -2   -1    0    0    0  501 -0.00000000000E+00  0.00000000000E+00  0.49869489110E+03  0.49869489110E+03  0.00000000000E+00 0. -1.
          2   -1    0    0  503    0  0.00000000000E+00 -0.00000000000E+00 -0.10001910810E+03  0.10001910810E+03  0.00000000000E+00 0.  1.
          6    2    1    2  503    0  0.14633451720E+03 -0.11318436298E+02  0.23823653764E+03  0.32883091551E+03  0.17271718271E+03 0.  0.
         24    2    3    3    0    0  0.15940833838E+03 -0.25902975022E+02  0.14047316855E+03  0.22901408374E+03  0.81441739946E+02 0.  0.
         -6    2    1    2    0  501 -0.14633451720E+03  0.11318436298E+02  0.16043924535E+03  0.26988308368E+03  0.15985690315E+03 0.  0.
        -24    2    5    5    0    0 -0.21111704808E+02 -0.71225946657E+01  0.14080324769E+02  0.76327282944E+02  0.71632137629E+02 0.  0.
          2    1    4    4  502    0  0.64772622558E+01 -0.25865957416E+02  0.31273830738E+02  0.41098116361E+02  0.00000000000E+00 0. -1.
         -1    1    4    4    0  502  0.15293107612E+03 -0.37017606361E-01  0.10919933782E+03  0.18791596737E+03  0.00000000000E+00 0.  1.
          5    1    3    3  503    0 -0.13073821183E+02  0.14584538725E+02  0.97763369090E+02  0.99816831777E+02  0.47000000000E+01 0. -1.
         13    1    6    6    0    0  0.15366708659E+02  0.13798173730E+02  0.25440510634E+02  0.32768047159E+02  0.00000000000E+00 0. -1.
        -14    1    6    6    0    0 -0.36478413467E+02 -0.20920768396E+02 -0.11360185864E+02  0.43559235786E+02  0.00000000000E+00 0.  1.
         -5    1    5    5    0  501 -0.12522281239E+03  0.18441030963E+02  0.14635892058E+03  0.19355580074E+03  0.47000000000E+01 0.  1.
<mgrwt>
<rscale>  2 0.22178404E+03</rscale>
<asrwt>0</asrwt>
<pdfrwt beam="2">  1        2 0.15387555E-01 0.22178404E+03</pdfrwt>
<pdfrwt beam="1">  1       -2 0.76722290E-01 0.22178404E+03</pdfrwt>
<totfact> 0.58935805E+02</totfact>
</mgrwt>
</event>
<event>
12    1  0.5759937E-002  0.1755652E+03  0.7546771E-02  0.1172165E+00
          2   -1    0    0  503    0  0.00000000000E+00  0.00000000000E+00  0.47714665105E+03  0.47714665105E+03  0.00000000000E+00 0.  1.
         -2   -1    0    0    0  501 -0.00000000000E+00 -0.00000000000E+00 -0.66787937044E+02  0.66787937044E+02  0.00000000000E+00 0. -1.
          6    2    1    2  503    0 -0.22906730261E+02  0.12408669144E+02  0.15667202806E+03  0.23578346913E+03  0.17426711272E+03 0.  0.
         24    2    3    3    0    0  0.36124861572E+02  0.38552229684E+01  0.15220606465E+03  0.17578409325E+03  0.80084286575E+02 0.  0.
         -6    2    1    2    0  501  0.22906730261E+02 -0.12408669144E+02  0.25368668594E+03  0.30815111897E+03  0.17297827648E+03 0.  0.
        -24    2    5    5    0    0 -0.13868724512E+02 -0.34859777101E+02  0.24913592632E+03  0.26457032348E+03  0.80753951617E+02 0.  0.
          4    1    4    4  502    0  0.78189614842E+00  0.99894690173E+01  0.13609065257E+03  0.13645902890E+03  0.00000000000E+00 0. -1.
         -3    1    4    4    0  502  0.35342965423E+02 -0.61342460489E+01  0.16115412085E+02  0.39325064351E+02  0.00000000000E+00 0.  1.
          5    1    3    3  503    0 -0.59031591833E+02  0.85534461759E+01  0.44659634052E+01  0.59999375871E+02  0.47000000000E+01 0. -1.
         13    1    6    6    0    0 -0.25808273356E+02 -0.34010463305E+02  0.52943870717E+02  0.68013469507E+02  0.00000000000E+00 0. -1.
        -14    1    6    6    0    0  0.11939548844E+02 -0.84931379601E+00  0.19619205560E+03  0.19655685397E+03  0.00000000000E+00 0.  1.
         -5    1    5    5    0  501  0.36775454773E+02  0.22451107957E+02  0.45507596231E+01  0.43580795489E+02  0.47000000000E+01 0.  1.
<mgrwt>
<rscale>  2 0.17556519E+03</rscale>
<asrwt>0</asrwt>
<pdfrwt beam="1">  1        2 0.73407175E-01 0.17556519E+03</pdfrwt>
<pdfrwt beam="2">  1       -2 0.10275068E-01 0.17556519E+03</pdfrwt>
<totfact> 0.40807032E+03</totfact>
</mgrwt>
</event>
<event>
12    1  0.5759937E-002  0.1978958E+03  0.7546771E-02  0.1151527E+00
          1   -1    0    0  503    0  0.00000000000E+00  0.00000000000E+00  0.16450029778E+04  0.16450029778E+04  0.00000000000E+00 0. -1.
         -1   -1    0    0    0  501 -0.00000000000E+00 -0.00000000000E+00 -0.70012034056E+02  0.70012034056E+02  0.00000000000E+00 0.  1.
          6    2    1    2  503    0 -0.86273580374E+02  0.47259341477E+02  0.14840750645E+04  0.14972073394E+04  0.17168122810E+03 0.  0.
         24    2    3    3    0    0 -0.33935019970E+02  0.18136332050E+02  0.12588207570E+04  0.12640784746E+04  0.10855496046E+03 0.  0.
         -6    2    1    2    0  501  0.86273580374E+02 -0.47259341477E+02  0.90915879285E+02  0.21780767249E+03  0.17174955331E+03 0.  0.
        -24    2    5    5    0    0 -0.12783460906E+01 -0.34771627352E+02  0.95145619234E+02  0.12914390575E+03  0.80092192477E+02 0.  0.
          2    1    4    4  502    0 -0.37640012645E+02  0.54298477953E+02  0.10531179676E+04  0.10551883950E+04  0.00000000000E+00 0. -1.
         -1    1    4    4    0  502  0.37049926744E+01 -0.36162145903E+02  0.20570278944E+03  0.20889007959E+03  0.00000000000E+00 0.  1.
          5    1    3    3  503    0 -0.52338560404E+02  0.29123009427E+02  0.22525430742E+03  0.23312886478E+03  0.47000000000E+01 0. -1.
         13    1    6    6    0    0 -0.64767184920E+01 -0.59478759729E+02  0.52568780036E+02  0.79643878458E+02  0.00000000000E+00 0. -1.
        -14    1    6    6    0    0  0.51983724014E+01  0.24707132377E+02  0.42576839198E+02  0.49500027293E+02  0.00000000000E+00 0.  1.
         -5    1    5    5    0  501  0.87551926465E+02 -0.12487714125E+02 -0.42297399494E+01  0.88663766736E+02  0.47000000000E+01 0.  1.
<mgrwt>
<rscale>  2 0.19789581E+03</rscale>
<asrwt>0</asrwt>
<pdfrwt beam="1">  1        1 0.25307735E+00 0.19789581E+03</pdfrwt>
<pdfrwt beam="2">  1       -1 0.10771083E-01 0.19789581E+03</pdfrwt>
<totfact> 0.31721865E+02</totfact>
</mgrwt>
</event>
<event>
12    1  0.5759937E-002  0.1927288E+03  0.7546771E-02  0.1156023E+00
          1   -1    0    0  503    0  0.00000000000E+00  0.00000000000E+00  0.43036753856E+03  0.43036753856E+03  0.00000000000E+00 0.  1.
         -1   -1    0    0    0  501 -0.00000000000E+00 -0.00000000000E+00 -0.10948467510E+03  0.10948467510E+03  0.00000000000E+00 0. -1.
          6    2    1    2  503    0 -0.60875672327E+02 -0.59931295693E+02  0.35670759617E+02  0.19512605516E+03  0.17176776946E+03 0.  0.
         24    2    3    3    0    0 -0.21091446336E+02  0.26926186285E-01  0.77311866108E+02  0.11185634423E+03  0.78037601638E+02 0.  0.
         -6    2    1    2    0  501  0.60875672327E+02  0.59931295693E+02  0.28521210384E+03  0.34472615850E+03  0.17376010041E+03 0.  0.
        -24    2    5    5    0    0  0.81784351338E+02  0.96564404881E+02  0.23579169223E+03  0.27958304966E+03  0.80966629644E+02 0.  0.
          4    1    4    4  502    0 -0.70710319637E+01 -0.16442381786E+02  0.86517798188E+02  0.88349764092E+02  0.00000000000E+00 0. -1.
         -3    1    4    4    0  502 -0.14020414373E+02  0.16469307972E+02 -0.92059320791E+01  0.23506580137E+02  0.00000000000E+00 0.  1.
          5    1    3    3  503    0 -0.39784225991E+02 -0.59958221879E+02 -0.41641106492E+02  0.83269710931E+02  0.47000000000E+01 0. -1.
         11    1    6    6    0    0  0.33627229953E+02  0.94702273707E+02  0.17724323211E+03  0.20375101121E+03  0.00000000000E+00 0. -1.
        -12    1    6    6    0    0  0.48157121385E+02  0.18621311748E+01  0.58548460119E+02  0.75832038447E+02  0.00000000000E+00 0.  1.
         -5    1    5    5    0  501 -0.20908679012E+02 -0.36633109188E+02  0.49420411606E+02  0.65143108846E+02  0.47000000000E+01 0.  1.
<mgrwt>
<rscale>  2 0.19272878E+03</rscale>
<asrwt>0</asrwt>
<pdfrwt beam="1">  1        1 0.66210390E-01 0.19272878E+03</pdfrwt>
<pdfrwt beam="2">  1       -1 0.16843796E-01 0.19272878E+03</pdfrwt>
<totfact> 0.14611199E+03</totfact>
</mgrwt>
</event>
<event>
12    1  0.5759937E-002  0.1729007E+03  0.7546771E-02  0.1174856E+00
          2   -1    0    0  503    0  0.00000000000E+00  0.00000000000E+00  0.99935197913E+03  0.99935197913E+03  0.00000000000E+00 0.  1.
         -2   -1    0    0    0  501 -0.00000000000E+00 -0.00000000000E+00 -0.32982278758E+02  0.32982278758E+02  0.00000000000E+00 0. -1.
          6    2    1    2  503    0 -0.15384814752E+01  0.14330073314E+02  0.64029071680E+03  0.66319100827E+03  0.17216966486E+03 0.  0.
         24    2    3    3    0    0 -0.62635910498E+02 -0.97988512159E+01  0.45682949925E+03  0.46826740996E+03  0.81005561994E+02 0.  0.
         -6    2    1    2    0  501  0.15384814752E+01 -0.14330073314E+02  0.32607898357E+03  0.36914324962E+03  0.17242829608E+03 0.  0.
        -24    2    5    5    0    0 -0.52597154323E+02 -0.50039462058E+02  0.23851405189E+03  0.26007659675E+03  0.74030229125E+02 0.  0.
          2    1    4    4  502    0 -0.18914066576E+02 -0.15071769699E+02  0.27241405789E+02  0.36427933591E+02  0.00000000000E+00 0. -1.
         -1    1    4    4    0  502 -0.43721843922E+02  0.52729184833E+01  0.42958809346E+03  0.43183947637E+03  0.00000000000E+00 0.  1.
          5    1    3    3  503    0  0.61097429023E+02  0.24128924530E+02  0.18346121755E+03  0.19492359831E+03  0.47000000000E+01 0. -1.
         13    1    6    6    0    0 -0.55674674533E+02 -0.32555375482E+02  0.91220551103E+02  0.11171710165E+03  0.00000000000E+00 0. -1.
        -14    1    6    6    0    0  0.30775202099E+01 -0.17484086576E+02  0.14729350079E+03  0.14835949510E+03  0.00000000000E+00 0.  1.
         -5    1    5    5    0  501  0.54135635799E+02  0.35709388743E+02  0.87564931682E+02  0.10906665287E+03  0.47000000000E+01 0.  1.
<mgrwt>
<rscale>  2 0.17290067E+03</rscale>
<asrwt>0</asrwt>
<pdfrwt beam="1">  1        2 0.15374644E+00 0.17290067E+03</pdfrwt>
<pdfrwt beam="2">  1       -2 0.50741975E-02 0.17290067E+03</pdfrwt>
<totfact> 0.49543710E+03</totfact>
</mgrwt>
</event>
<event>
12    1  0.5759937E-002  0.1768922E+03  0.7546771E-02  0.1170845E+00
          2   -1    0    0  503    0  0.00000000000E+00  0.00000000000E+00  0.13867800440E+03  0.13867800440E+03  0.00000000000E+00 0. -1.
         -2   -1    0    0    0  501 -0.00000000000E+00 -0.00000000000E+00 -0.24290624004E+03  0.24290624004E+03  0.00000000000E+00 0.  1.
          6    2    1    2  503    0 -0.21178452854E+02  0.32098557455E+02 -0.11349880352E+01  0.17649951588E+03  0.17225546915E+03 0.  0.
         24    2    3    3    0    0 -0.72671140752E+01  0.39121289923E+02  0.63611411737E+02  0.10973852127E+03  0.80080241476E+02 0.  0.
         -6    2    1    2    0  501  0.21178452854E+02 -0.32098557455E+02 -0.10309324761E+03  0.20508472856E+03  0.17306843713E+03 0.  0.
        -24    2    5    5    0    0  0.20371197547E+02  0.38558339664E+01  0.12474527780E+02  0.83959295092E+02  0.80397115893E+02 0.  0.
          2    1    4    4  502    0 -0.87939711544E+01 -0.21736510527E+02  0.35833652463E+02  0.42823597086E+02  0.00000000000E+00 0. -1.
         -1    1    4    4    0  502  0.15268570792E+01  0.60857800450E+02  0.27777759274E+02  0.66914924183E+02  0.00000000000E+00 0.  1.
          5    1    3    3  503    0 -0.13911338779E+02 -0.70227324686E+01 -0.64746399772E+02  0.66760994611E+02  0.47000000000E+01 0. -1.
         11    1    6    6    0    0 -0.28490902007E+02  0.65743575589E+01 -0.88902766374E+01  0.30561261315E+02  0.00000000000E+00 0. -1.
        -12    1    6    6    0    0  0.48862099554E+02 -0.27185235925E+01  0.21364804418E+02  0.53398033776E+02  0.00000000000E+00 0.  1.
         -5    1    5    5    0  501  0.80725530738E+00 -0.35954391421E+02 -0.11556777539E+03  0.12112543347E+03  0.47000000000E+01 0.  1.
<mgrwt>
<rscale>  2 0.17689218E+03</rscale>
<asrwt>0</asrwt>
<pdfrwt beam="1">  1        2 0.21335078E-01 0.17689218E+03</pdfrwt>
<pdfrwt beam="2">  1       -2 0.37370191E-01 0.17689218E+03</pdfrwt>
<totfact> 0.17213073E+03</totfact>
</mgrwt>
</event>
<event>
12    1  0.5759937E-002  0.2212137E+03  0.7546771E-02  0.1132981E+00
         -1   -1    0    0    0  501 -0.00000000000E+00  0.00000000000E+00  0.63389646892E+02  0.63389646892E+02  0.00000000000E+00 0. -1.
          1   -1    0    0  503    0  0.00000000000E+00 -0.00000000000E+00 -0.77664317621E+03  0.77664317621E+03  0.00000000000E+00 0.  1.
          6    2    1    2  503    0 -0.11978286284E+02  0.13653549059E+03 -0.38982141356E+03  0.44841702280E+03  0.17415990451E+03 0.  0.
         24    2    3    3    0    0 -0.59653206114E+02  0.12476874405E+03 -0.22581572789E+03  0.27715316428E+03  0.81825356810E+02 0.  0.
         -6    2    1    2    0  501  0.11978286284E+02 -0.13653549059E+03 -0.32343211576E+03  0.39161580030E+03  0.17311609401E+03 0.  0.
        -24    2    5    5    0    0  0.64610647863E+02 -0.62181498892E+02 -0.12698481859E+03  0.17502329781E+03  0.80417261855E+02 0.  0.
          4    1    4    4  502    0 -0.29098162173E+02  0.33389569540E+00 -0.22302696037E+02  0.36663671103E+02  0.00000000000E+00 0. -1.
         -3    1    4    4    0  502 -0.30555043941E+02  0.12443484835E+03 -0.20351303186E+03  0.24048949318E+03  0.00000000000E+00 0.  1.
          5    1    3    3  503    0  0.47674919830E+02  0.11766746539E+02 -0.16400568566E+03  0.17126385852E+03  0.47000000000E+01 0. -1.
         13    1    6    6    0    0  0.24449329930E+01 -0.57996274516E+02 -0.57776874997E+02  0.81900627834E+02  0.00000000000E+00 0. -1.
        -14    1    6    6    0    0  0.62165714870E+02 -0.41852243760E+01 -0.69207943588E+02  0.93122669979E+02  0.00000000000E+00 0.  1.
         -5    1    5    5    0  501 -0.52632361578E+02 -0.74353991695E+02 -0.19644729717E+03  0.21659250248E+03  0.47000000000E+01 0.  1.
<mgrwt>
<rscale>  2 0.22121372E+03</rscale>
<asrwt>0</asrwt>
<pdfrwt beam="2">  1        1 0.11948357E+00 0.22121372E+03</pdfrwt>
<pdfrwt beam="1">  1       -1 0.97522532E-02 0.22121372E+03</pdfrwt>
<totfact> 0.15266533E+03</totfact>
</mgrwt>
</event>
<event>
12    1  0.5759937E-002  0.2384608E+03  0.7546771E-02  0.1120822E+00
         -2   -1    0    0    0  501 -0.00000000000E+00  0.00000000000E+00  0.19653936174E+03  0.19653936174E+03  0.00000000000E+00 0. -1.
          2   -1    0    0  503    0  0.00000000000E+00 -0.00000000000E+00 -0.19255522035E+04  0.19255522035E+04  0.00000000000E+00 0.  1.
          6    2    1    2  503    0 -0.94575417009E+02 -0.13491119496E+03  0.11401976076E+03  0.26359262999E+03  0.17127471709E+03 0.  0.
         24    2    3    3    0    0 -0.30788422425E+02 -0.14870932673E+03  0.88446901319E+02  0.19334143599E+03  0.80595692861E+02 0.  0.
         -6    2    1    2    0  501  0.94575417009E+02  0.13491119496E+03 -0.18430326025E+04  0.18584989352E+04  0.17350382791E+03 0.  0.
        -24    2    5    5    0    0  0.16120630008E+02  0.56874759054E+02 -0.44611215744E+03  0.45719466464E+03  0.80723549377E+02 0.  0.
          4    1    4    4  502    0  0.23362196379E+01 -0.36989344067E+02  0.64483063601E+02  0.74375634371E+02  0.00000000000E+00 0. -1.
         -3    1    4    4    0  502 -0.33124642063E+02 -0.11171998266E+03  0.23963837718E+02  0.11896580162E+03  0.00000000000E+00 0.  1.
          5    1    3    3  503    0 -0.63786994584E+02  0.13798131765E+02  0.25572859443E+02  0.70251194000E+02  0.47000000000E+01 0. -1.
         11    1    6    6    0    0  0.91990404019E+01 -0.20292812632E+02 -0.11503903620E+03  0.11717679138E+03  0.00000000000E+00 0. -1.
        -12    1    6    6    0    0  0.69215896056E+01  0.77167571686E+02 -0.33107312125E+03  0.34001787326E+03  0.00000000000E+00 0.  1.
         -5    1    5    5    0  501  0.78454787002E+02  0.78036435908E+02 -0.13969204451E+04  0.14013042706E+04  0.47000000000E+01 0.  1.
<mgrwt>
<rscale>  2 0.23846078E+03</rscale>
<asrwt>0</asrwt>
<pdfrwt beam="2">  1        2 0.29623880E+00 0.23846078E+03</pdfrwt>
<pdfrwt beam="1">  1       -2 0.30236825E-01 0.23846078E+03</pdfrwt>
<totfact> 0.83719771E+01</totfact>
</mgrwt>
</event>
<event>
12    1  0.5759937E-002  0.1991312E+03  0.7546771E-02  0.1150474E+00
         -2   -1    0    0    0  501 -0.00000000000E+00  0.00000000000E+00  0.16486542526E+02  0.16486542526E+02  0.00000000000E+00 0. -1.
          2   -1    0    0  503    0  0.00000000000E+00 -0.00000000000E+00 -0.29900905235E+04  0.29900905235E+04  0.00000000000E+00 0.  1.
          6    2    1    2  503    0 -0.74218855033E+02  0.64721426301E+02 -0.82302004659E+03  0.84681041367E+03  0.17328755911E+03 0.  0.
         24    2    3    3    0    0 -0.84164133009E+02  0.10269738747E+03 -0.72579206688E+03  0.74185112528E+03  0.77062397143E+02 0.  0.
         -6    2    1    2    0  501  0.74218855033E+02 -0.64721426301E+02 -0.21505839344E+04  0.21597666523E+04  0.17286825139E+03 0.  0.
        -24    2    5    5    0    0  0.46699779302E+02 -0.70761366584E+02 -0.77026262963E+03  0.77914984282E+03  0.81129024276E+02 0.  0.
          4    1    4    4  502    0 -0.14373577819E+01  0.57951429641E+02 -0.32870865868E+03  0.33378109067E+03  0.00000000000E+00 0. -1.
         -3    1    4    4    0  502 -0.82726775227E+02  0.44745957829E+02 -0.39708340820E+03  0.40807003461E+03  0.00000000000E+00 0.  1.
          5    1    3    3  503    0  0.99452779758E+01 -0.37975961169E+02 -0.97227979712E+02  0.10495928839E+03  0.47000000000E+01 0. -1.
         11    1    6    6    0    0  0.68331399758E+02 -0.40538359978E+02 -0.56345054720E+03  0.56902465497E+03  0.00000000000E+00 0. -1.
        -12    1    6    6    0    0 -0.21631620457E+02 -0.30223006606E+02 -0.20681208243E+03  0.21012518785E+03  0.00000000000E+00 0.  1.
         -5    1    5    5    0  501  0.27519075731E+02  0.60399402832E+01 -0.13803213047E+04  0.13806168095E+04  0.47000000000E+01 0.  1.
<mgrwt>
<rscale>  2 0.19913121E+03</rscale>
<asrwt>0</asrwt>
<pdfrwt beam="2">  1        2 0.46001434E+00 0.19913121E+03</pdfrwt>
<pdfrwt beam="1">  1       -2 0.25363889E-02 0.19913121E+03</pdfrwt>
<totfact> 0.11645461E+03</totfact>
</mgrwt>
</event>
<event>
12    1  0.5759937E-002  0.1842650E+03  0.7546771E-02  0.1163738E+00
          2   -1    0    0  503    0  0.00000000000E+00  0.00000000000E+00  0.18398114398E+04  0.18398114398E+04  0.00000000000E+00 0.  1.
         -2   -1    0    0    0  501 -0.00000000000E+00 -0.00000000000E+00 -0.20916958721E+02  0.20916958721E+02  0.00000000000E+00 0. -1.
          6    2    1    2  503    0  0.62817851976E+02 -0.10479476264E+02  0.58985963797E+03  0.61794369549E+03  0.17281237321E+03 0.  0.
         24    2    3    3    0    0  0.76874013687E+02 -0.41141558409E+02  0.25110141396E+03  0.27747789207E+03  0.79622978369E+02 0.  0.
         -6    2    1    2    0  501 -0.62817851976E+02  0.10479476264E+02  0.12290348431E+04  0.12427847030E+04  0.17300656223E+03 0.  0.
        -24    2    5    5    0    0 -0.91868482843E+02  0.52222390490E+02  0.85880885524E+03  0.86905246984E+03  0.80824187436E+02 0.  0.
          2    1    4    4  502    0  0.53288904759E+02 -0.57005925698E+02  0.11865288794E+03  0.14201369917E+03  0.00000000000E+00 0. -1.
         -1    1    4    4    0  502  0.23585108927E+02  0.15864367290E+02  0.13244852602E+03  0.13546419289E+03  0.00000000000E+00 0.  1.
          5    1    3    3  503    0 -0.14056161710E+02  0.30662082144E+02  0.33875822401E+03  0.34046580342E+03  0.47000000000E+01 0. -1.
         11    1    6    6    0    0  0.17520803353E+01 -0.87905083784E+01  0.12408968580E+02  0.15307688404E+02  0.00000000000E+00 0. -1.
        -12    1    6    6    0    0 -0.93620563178E+02  0.61012898868E+02  0.84639988666E+03  0.85374478143E+03  0.00000000000E+00 0.  1.
         -5    1    5    5    0  501  0.29050630867E+02 -0.41742914225E+02  0.37022598787E+03  0.37373223320E+03  0.47000000000E+01 0.  1.
<mgrwt>
<rscale>  2 0.18426497E+03</rscale>
<asrwt>0</asrwt>
<pdfrwt beam="1">  1        2 0.28304779E+00 0.18426497E+03</pdfrwt>
<pdfrwt beam="2">  1       -2 0.32179951E-02 0.18426497E+03</pdfrwt>
<totfact> 0.34361088E+03</totfact>
</mgrwt>
</event>
<event>
12    1  0.5759937E-002  0.2333812E+03  0.7546771E-02  0.1124282E+00
          2   -1    0    0  503    0  0.00000000000E+00  0.00000000000E+00  0.23028068900E+04  0.23028068900E+04  0.00000000000E+00 0. -1.
         -2   -1    0    0    0  501 -0.00000000000E+00 -0.00000000000E+00 -0.23695180689E+02  0.23695180689E+02  0.00000000000E+00 0.  1.
          6    2    1    2  503    0 -0.15716274382E+03 -0.40574389925E+01  0.11895915472E+04  0.12122912882E+04  0.17264277381E+03 0.  0.
         24    2    3    3    0    0 -0.13287393950E+03  0.16474789935E+02  0.52881796671E+03  0.55073605003E+03  0.75728808159E+02 0.  0.
         -6    2    1    2    0  501  0.15716274382E+03  0.40574389925E+01  0.10895201621E+04  0.11142107825E+04  0.17232206293E+03 0.  0.
        -24    2    5    5    0    0  0.12017178247E+03 -0.33091560536E+01  0.10484785727E+04  0.10582724235E+04  0.78619318014E+02 0.  0.
          2    1    4    4  502    0 -0.13897332428E+03  0.18455260276E+02  0.52472047126E+03  0.54312591031E+03  0.00000000000E+00 0. -1.
         -1    1    4    4    0  502  0.60993847847E+01 -0.19804703414E+01  0.40974954484E+01  0.76101397145E+01  0.00000000000E+00 0.  1.
          5    1    3    3  503    0 -0.24288804327E+02 -0.20532228927E+02  0.66077358052E+03  0.66155523817E+03  0.47000000000E+01 0. -1.
         13    1    6    6    0    0  0.11404463682E+01 -0.19724969063E+02  0.25296489755E+03  0.25373532355E+03  0.00000000000E+00 0. -1.
        -14    1    6    6    0    0  0.11903133610E+03  0.16415813009E+02  0.79551367516E+03  0.80453709999E+03  0.00000000000E+00 0.  1.
         -5    1    5    5    0  501  0.36990961352E+02  0.73665950462E+01  0.41041589372E+02  0.55938358955E+02  0.47000000000E+01 0.  1.
<mgrwt>
<rscale>  2 0.23338118E+03</rscale>
<asrwt>0</asrwt>
<pdfrwt beam="1">  1        2 0.35427781E+00 0.23338118E+03</pdfrwt>
<pdfrwt beam="2">  1       -2 0.36454142E-02 0.23338118E+03</pdfrwt>
<totfact> 0.16278528E+03</totfact>
</mgrwt>
</event>
<event>
12    1  0.5759937E-002  0.1808367E+03  0.7546771E-02  0.1166996E+00
         -3   -1    0    0    0  501 -0.00000000000E+00  0.00000000000E+00  0.27560510042E+03  0.27560510042E+03  0.00000000000E+00 0. -1.
          3   -1    0    0  503    0  0.00000000000E+00 -0.00000000000E+00 -0.12617179800E+03  0.12617179800E+03  0.00000000000E+00 0.  1.
          6    2    1    2  503    0  0.74136300271E+01 -0.54039472232E+02  0.12363066607E+03  0.21880762078E+03  0.17209592340E+03 0.  0.
         24    2    3    3    0    0  0.62757836142E+02 -0.55319283461E+02  0.51997024844E+02  0.12815395223E+03  0.81981557434E+02 0.  0.
         -6    2    1    2    0  501 -0.74136300271E+01  0.54039472232E+02  0.25802636348E+02  0.18296927764E+03  0.17273318746E+03 0.  0.
        -24    2    5    5    0    0  0.34960967786E+01  0.78132144565E+02  0.70627478899E+02  0.13071188095E+03  0.77333694725E+02 0.  0.
          2    1    4    4  502    0  0.35648032221E+02 -0.59633383777E+01  0.61219351292E+02  0.71092563454E+02  0.00000000000E+00 0. -1.
         -1    1    4    4    0  502  0.27109803921E+02 -0.49355945083E+02 -0.92223264485E+01  0.57061388774E+02  0.00000000000E+00 0.  1.
          5    1    3    3  503    0 -0.55344206115E+02  0.12798112290E+01  0.71633641224E+02  0.90653668554E+02  0.47000000000E+01 0. -1.
         11    1    6    6    0    0  0.22107229107E+02  0.28440675934E+02  0.68750948024E+02  0.77616328698E+02  0.00000000000E+00 0. -1.
        -12    1    6    6    0    0 -0.18611132328E+02  0.49691468630E+02  0.18765308747E+01  0.53095552255E+02  0.00000000000E+00 0.  1.
         -5    1    5    5    0  501 -0.10909726806E+02 -0.24092672332E+02 -0.44824842550E+02  0.52257396689E+02  0.47000000000E+01 0.  1.
<mgrwt>
<rscale>  2 0.18083673E+03</rscale>
<asrwt>0</asrwt>
<pdfrwt beam="2">  1        3 0.19411046E-01 0.18083673E+03</pdfrwt>
<pdfrwt beam="1">  1       -3 0.42400785E-01 0.18083673E+03</pdfrwt>
<totfact> 0.31655224E+02</totfact>
</mgrwt>
</event>
<event>
12    1  0.5759937E-002  0.8445625E+03  0.7546771E-02  0.9497664E-01
         -2   -1    0    0    0  501 -0.00000000000E+00  0.00000000000E+00  0.25775290468E+03  0.25775290468E+03  0.00000000000E+00 0. -1.
          2   -1    0    0  503    0  0.00000000000E+00 -0.00000000000E+00 -0.30946175643E+04  0.30946175643E+04  0.00000000000E+00 0.  1.
          6    2    1    2  503    0 -0.44142042273E+03  0.69902538557E+03 -0.19633659807E+04  0.21372620727E+04  0.17203114255E+03 0.  0.
         24    2    3    3    0    0 -0.13676935063E+03  0.16698132171E+03 -0.48490861421E+03  0.53671796643E+03  0.79631616103E+02 0.  0.
         -6    2    1    2    0  501  0.44142042273E+03 -0.69902538557E+03 -0.87349867894E+03  0.12151083963E+04  0.17320506161E+03 0.  0.
        -24    2    5    5    0    0  0.21447836081E+03 -0.23692285948E+03 -0.35590365666E+03  0.48506172575E+03  0.80523638548E+02 0.  0.
          4    1    4    4  502    0 -0.10147923348E+03  0.10136285179E+03 -0.22923209235E+03  0.27040675790E+03  0.00000000000E+00 0. -1.
         -3    1    4    4    0  502 -0.35290117151E+02  0.65618469915E+02 -0.25567652186E+03  0.26631120853E+03  0.00000000000E+00 0.  1.
          5    1    3    3  503    0 -0.30465107210E+03  0.53204406386E+03 -0.14784573665E+04  0.16005441063E+04  0.47000000000E+01 0. -1.
         11    1    6    6    0    0  0.18099033794E+03 -0.23318758147E+03 -0.32840301266E+03  0.44156821591E+03  0.00000000000E+00 0. -1.
        -12    1    6    6    0    0  0.33488022869E+02 -0.37352780055E+01 -0.27500643995E+02  0.43493509833E+02  0.00000000000E+00 0.  1.
         -5    1    5    5    0  501  0.22694206193E+03 -0.46210252609E+03 -0.51759502228E+03  0.73004667055E+03  0.47000000000E+01 0.  1.
<mgrwt>
<rscale>  2 0.84456249E+03</rscale>
<asrwt>0</asrwt>
<pdfrwt beam="2">  1        2 0.47609501E+00 0.84456249E+03</pdfrwt>
<pdfrwt beam="1">  1       -2 0.39654293E-01 0.84456249E+03</pdfrwt>
<totfact> 0.95729782E+00</totfact>
</mgrwt>
</event>
<event>
12    1  0.5759937E-002  0.2215404E+03  0.7546771E-02  0.1132740E+00
         -1   -1    0    0    0  501 -0.00000000000E+00  0.00000000000E+00  0.41023445120E+03  0.41023445120E+03  0.00000000000E+00 0.  1.
          1   -1    0    0  503    0  0.00000000000E+00 -0.00000000000E+00 -0.12015460056E+03  0.12015460056E+03  0.00000000000E+00 0. -1.
          6    2    1    2  503    0 -0.10194351891E+03 -0.92890186272E+02  0.16243176838E+03  0.27473803552E+03  0.17342387675E+03 0.  0.
         24    2    3    3    0    0 -0.38342810412E+02 -0.24572642824E+02  0.11799980754E+02  0.97468855150E+02  0.85363647373E+02 0.  0.
         -6    2    1    2    0  501  0.10194351891E+03  0.92890186272E+02  0.12764808225E+03  0.25565101624E+03  0.17332726689E+03 0.  0.
        -24    2    5    5    0    0 -0.19078870361E+02  0.60557449361E+02  0.59737828131E+02  0.11308272665E+03  0.72026987926E+02 0.  0.
          2    1    4    4  502    0  0.14619105462E+02 -0.34682354819E+02 -0.10571108407E+02  0.39093890996E+02  0.00000000000E+00 0. -1.
         -1    1    4    4    0  502 -0.52961915874E+02  0.10109711995E+02  0.22371089160E+02  0.58374964154E+02  0.00000000000E+00 0.  1.
          5    1    3    3  503    0 -0.63600708501E+02 -0.68317543448E+02  0.15063178763E+03  0.17726918037E+03  0.47000000000E+01 0. -1.
         11    1    6    6    0    0  0.28245362614E+01  0.60808961931E+02  0.66502589204E+02  0.90157097486E+02  0.00000000000E+00 0. -1.
        -12    1    6    6    0    0 -0.21903406623E+02 -0.25151256948E+00 -0.67647610733E+01  0.22925629166E+02  0.00000000000E+00 0.  1.
         -5    1    5    5    0  501  0.12102238927E+03  0.32332736911E+02  0.67910254124E+02  0.14256828959E+03  0.47000000000E+01 0.  1.
<mgrwt>
<rscale>  2 0.22154042E+03</rscale>
<asrwt>0</asrwt>
<pdfrwt beam="2">  1        1 0.18485323E-01 0.22154042E+03</pdfrwt>
<pdfrwt beam="1">  1       -1 0.63112992E-01 0.22154042E+03</pdfrwt>
<totfact> 0.74511958E+02</totfact>
</mgrwt>
</event>
<event>
12    1  0.5759937E-002  0.2578311E+03  0.7546771E-02  0.1108453E+00
         -2   -1    0    0    0  501 -0.00000000000E+00  0.00000000000E+00  0.18641779891E+03  0.18641779891E+03  0.00000000000E+00 0. -1.
          2   -1    0    0  503    0  0.00000000000E+00 -0.00000000000E+00 -0.36167741753E+03  0.36167741753E+03  0.00000000000E+00 0.  1.
          6    2    1    2  503    0 -0.11653022425E+03 -0.15160446891E+03 -0.55183757212E+02  0.26372667467E+03  0.17304133528E+03 0.  0.
         24    2    3    3    0    0 -0.31619335539E+02 -0.97943399100E+01 -0.46150627312E+02  0.98125771458E+02  0.80019217372E+02 0.  0.
         -6    2    1    2    0  501  0.11653022425E+03  0.15160446891E+03 -0.12007586141E+03  0.28436854177E+03  0.17287002893E+03 0.  0.
        -24    2    5    5    0    0  0.20432159403E+02  0.11307878443E+03 -0.11127846261E+03  0.18035627972E+03  0.83313905010E+02 0.  0.
          2    1    4    4  502    0 -0.53327252756E+02  0.12423985113E+02 -0.35641694739E+02  0.65333618425E+02  0.00000000000E+00 0. -1.
         -1    1    4    4    0  502  0.21707917217E+02 -0.22218325024E+02 -0.10508932574E+02  0.32792153034E+02  0.00000000000E+00 0.  1.
          5    1    3    3  503    0 -0.84910888710E+02 -0.14181012900E+03 -0.90331298996E+01  0.16560090321E+03  0.47000000000E+01 0. -1.
         13    1    6    6    0    0 -0.87190295636E+01  0.11514160757E+02  0.11432919099E+02  0.18420342386E+02  0.00000000000E+00 0. -1.
        -14    1    6    6    0    0  0.29151188967E+02  0.10156462368E+03 -0.12271138171E+03  0.16193593734E+03  0.00000000000E+00 0.  1.
         -5    1    5    5    0  501  0.96098064846E+02  0.38525684472E+02 -0.87973988026E+01  0.10401226205E+03  0.47000000000E+01 0.  1.
<mgrwt>
<rscale>  2 0.25783110E+03</rscale>
<asrwt>0</asrwt>
<pdfrwt beam="2">  1        2 0.55642680E-01 0.25783110E+03</pdfrwt>
<pdfrwt beam="1">  1       -2 0.28679661E-01 0.25783110E+03</pdfrwt>
<totfact> 0.99082953E+02</totfact>
</mgrwt>
</event>
<event>
12    1  0.5759937E-002  0.1752355E+03  0.7546771E-02  0.1172495E+00
         -2   -1    0    0    0  501 -0.00000000000E+00  0.00000000000E+00  0.28121188775E+02  0.28121188775E+02  0.00000000000E+00 0.  1.
          2   -1    0    0  503    0  0.00000000000E+00 -0.00000000000E+00 -0.12262892251E+04  0.12262892251E+04  0.00000000000E+00 0. -1.
          6    2    1    2  503    0  0.27932431016E+02  0.58773446712E+01 -0.39175270534E+03  0.42919244896E+03  0.17297749051E+03 0.  0.
         24    2    3    3    0    0 -0.11843739391E+02 -0.37116198302E+02 -0.33803076162E+03  0.34957633435E+03  0.80130714408E+02 0.  0.
         -6    2    1    2    0  501 -0.27932431016E+02 -0.58773446712E+01 -0.80641533097E+03  0.82521796490E+03  0.17281273009E+03 0.  0.
        -24    2    5    5    0    0 -0.41904290460E+02 -0.13725685029E+02 -0.80296813582E+03  0.80816562028E+03  0.80184029992E+02 0.  0.
          4    1    4    4  502    0 -0.39122446143E+02 -0.41766343278E+02 -0.17240603672E+03  0.18165581390E+03  0.00000000000E+00 0. -1.
         -3    1    4    4    0  502  0.27278706751E+02  0.46501449761E+01 -0.16562472490E+03  0.16792052045E+03  0.00000000000E+00 0.  1.
          5    1    3    3  503    0  0.39776170408E+02  0.42993542973E+02 -0.53721943711E+02  0.79616114611E+02  0.47000000000E+01 0. -1.
         13    1    6    6    0    0 -0.46568606201E+02  0.19361136407E+02 -0.62893427573E+03  0.63095309800E+03  0.00000000000E+00 0. -1.
        -14    1    6    6    0    0  0.46643157414E+01 -0.33086821436E+02 -0.17403386009E+03  0.17721252228E+03  0.00000000000E+00 0.  1.
         -5    1    5    5    0  501  0.13971859443E+02  0.78483403575E+01 -0.34471951506E+01  0.17052344621E+02  0.47000000000E+01 0.  1.
<mgrwt>
<rscale>  2 0.17523549E+03</rscale>
<asrwt>0</asrwt>
<pdfrwt beam="2">  1        2 0.18865986E+00 0.17523549E+03</pdfrwt>
<pdfrwt beam="1">  1       -2 0.43263371E-02 0.17523549E+03</pdfrwt>
<totfact> 0.46608895E+03</totfact>
</mgrwt>
</event>
<event>
12    1  0.5759937E-002  0.1771649E+03  0.7546771E-02  0.1170575E+00
         -3   -1    0    0    0  501 -0.00000000000E+00  0.00000000000E+00  0.50538919406E+02  0.50538919406E+02  0.00000000000E+00 0. -1.
          3   -1    0    0  503    0  0.00000000000E+00 -0.00000000000E+00 -0.78760181106E+03  0.78760181106E+03  0.00000000000E+00 0.  1.
          6    2    1    2  503    0  0.24422354793E+02  0.30965720594E+02 -0.56131560101E+03  0.58862447105E+03  0.17276642241E+03 0.  0.
         24    2    3    3    0    0 -0.39631202893E+02  0.47915563711E+02 -0.42473605337E+03  0.43674880391E+03  0.80512540637E+02 0.  0.
         -6    2    1    2    0  501 -0.24422354793E+02 -0.30965720594E+02 -0.17574729065E+03  0.24951625942E+03  0.17267288809E+03 0.  0.
        -24    2    5    5    0    0 -0.27905648150E+02 -0.68761016697E+02 -0.54542113415E+02  0.12242022200E+03  0.80653989382E+02 0.  0.
          2    1    4    4  502    0 -0.37332049125E+02  0.20153701880E+02 -0.38963127297E+03  0.39193415578E+03  0.00000000000E+00 0. -1.
         -1    1    4    4    0  502 -0.22991537685E+01  0.27761861831E+02 -0.35104780398E+02  0.44814648131E+02  0.00000000000E+00 0.  1.
          5    1    3    3  503    0  0.64053557686E+02 -0.16949843116E+02 -0.13657954764E+03  0.15187566714E+03  0.47000000000E+01 0. -1.
         13    1    6    6    0    0  0.20505325451E+02  0.45743298310E+01 -0.52070401472E+01  0.21645002479E+02  0.00000000000E+00 0. -1.
        -14    1    6    6    0    0 -0.48410973601E+02 -0.73335346528E+02 -0.49335073268E+02  0.10077521952E+03  0.00000000000E+00 0.  1.
         -5    1    5    5    0  501  0.34832933574E+01  0.37795296103E+02 -0.12120517723E+03  0.12709603742E+03  0.47000000000E+01 0.  1.
<mgrwt>
<rscale>  2 0.17716491E+03</rscale>
<asrwt>0</asrwt>
<pdfrwt beam="2">  1        3 0.12116951E+00 0.17716491E+03</pdfrwt>
<pdfrwt beam="1">  1       -3 0.77752184E-02 0.17716491E+03</pdfrwt>
<totfact> 0.15627382E+02</totfact>
</mgrwt>
</event>
<event>
12    1  0.5759937E-002  0.1841428E+03  0.7546771E-02  0.1163853E+00
          1   -1    0    0  503    0  0.00000000000E+00  0.00000000000E+00  0.10857205448E+03  0.10857205448E+03  0.00000000000E+00 0.  1.
         -1   -1    0    0    0  501 -0.00000000000E+00 -0.00000000000E+00 -0.37516013983E+03  0.37516013983E+03  0.00000000000E+00 0. -1.
          6    2    1    2  503    0 -0.61326699147E+02 -0.64368109095E+01 -0.23217819915E+03  0.29622413334E+03  0.17331942894E+03 0.  0.
         24    2    3    3    0    0 -0.54755376124E+02 -0.69971261874E+02 -0.15587627472E+03  0.19660544825E+03  0.80387564709E+02 0.  0.
         -6    2    1    2    0  501  0.61326699147E+02  0.64368109095E+01 -0.34409886196E+02  0.18750806097E+03  0.17370329904E+03 0.  0.
        -24    2    5    5    0    0  0.51959350713E+02  0.12456103058E+02 -0.88736645075E+02  0.13185317956E+03  0.81585171148E+02 0.  0.
          2    1    4    4  502    0 -0.17060431252E+02 -0.62826262846E+02 -0.14127771854E+03  0.15555575005E+03  0.00000000000E+00 0. -1.
         -1    1    4    4    0  502 -0.37694944871E+02 -0.71449990278E+01 -0.14598556177E+02  0.41049698202E+02  0.00000000000E+00 0.  1.
          5    1    3    3  503    0 -0.65713230238E+01  0.63534450964E+02 -0.76301924433E+02  0.99618685083E+02  0.47000000000E+01 0. -1.
         11    1    6    6    0    0 -0.13257320708E+02 -0.18032847520E+02 -0.82155152595E+01  0.23841871425E+02  0.00000000000E+00 0. -1.
        -12    1    6    6    0    0  0.65216671421E+02  0.30488950578E+02 -0.80521129815E+02  0.10801130814E+03  0.00000000000E+00 0.  1.
         -5    1    5    5    0  501  0.93673484340E+01 -0.60192921484E+01  0.54326758878E+02  0.55654881411E+02  0.47000000000E+01 0.  1.
<mgrwt>
<rscale>  2 0.18414277E+03</rscale>
<asrwt>0</asrwt>
<pdfrwt beam="1">  1        1 0.16703393E-01 0.18414277E+03</pdfrwt>
<pdfrwt beam="2">  1       -1 0.57716945E-01 0.18414277E+03</pdfrwt>
<totfact> 0.10064419E+03</totfact>
</mgrwt>
</event>
<event>
12    1  0.5759937E-002  0.2526074E+03  0.7546771E-02  0.1111668E+00
         -1   -1    0    0    0  501 -0.00000000000E+00  0.00000000000E+00  0.40196182659E+03  0.40196182659E+03  0.00000000000E+00 0. -1.
          1   -1    0    0  503    0  0.00000000000E+00 -0.00000000000E+00 -0.15924997645E+03  0.15924997645E+03  0.00000000000E+00 0.  1.
          6    2    1    2  503    0  0.17969316619E+03  0.33535886525E+02  0.10608811583E+03  0.27486034558E+03  0.17572487470E+03 0.  0.
         24    2    3    3    0    0  0.36313755589E+02  0.56758588069E+02  0.23260382626E+02  0.10758968874E+03  0.80587030955E+02 0.  0.
         -6    2    1    2    0  501 -0.17969316619E+03 -0.33535886525E+02  0.13662373431E+03  0.28635145747E+03  0.17296480208E+03 0.  0.
        -24    2    5    5    0    0 -0.84760667401E+02 -0.26819750336E+02  0.14769827439E+03  0.19042429109E+03  0.80888569242E+02 0.  0.
          2    1    4    4  502    0  0.51348603537E+02  0.63332632210E+02  0.30959336947E+01  0.81592194438E+02  0.00000000000E+00 0. -1.
         -1    1    4    4    0  502 -0.15034847947E+02 -0.65740441403E+01  0.20164448932E+02  0.25997494300E+02  0.00000000000E+00 0.  1.
          5    1    3    3  503    0  0.14337941060E+03 -0.23222701544E+02  0.82827733206E+02  0.16727065684E+03  0.47000000000E+01 0. -1.
         13    1    6    6    0    0  0.32064132084E+01  0.14747223944E+02  0.51253939698E+02  0.53429655008E+02  0.00000000000E+00 0. -1.
        -14    1    6    6    0    0 -0.87967080609E+02 -0.41566974280E+02  0.96444334690E+02  0.13699463608E+03  0.00000000000E+00 0.  1.
         -5    1    5    5    0  501 -0.94932498788E+02 -0.67161361889E+01 -0.11074540076E+02  0.95927166378E+02  0.47000000000E+01 0.  1.
<mgrwt>
<rscale>  2 0.25260741E+03</rscale>
<asrwt>0</asrwt>
<pdfrwt beam="2">  1        1 0.24499997E-01 0.25260741E+03</pdfrwt>
<pdfrwt beam="1">  1       -1 0.61840281E-01 0.25260741E+03</pdfrwt>
<totfact> 0.53978805E+02</totfact>
</mgrwt>
</event>
<event>
12    1  0.5759937E-002  0.2256848E+03  0.7546771E-02  0.1129714E+00
         -2   -1    0    0    0  501 -0.00000000000E+00  0.00000000000E+00  0.74423822884E+02  0.74423822884E+02  0.00000000000E+00 0.  1.
          2   -1    0    0  503    0  0.00000000000E+00 -0.00000000000E+00 -0.85165376591E+03  0.85165376591E+03  0.00000000000E+00 0. -1.
          6    2    1    2  503    0 -0.10617414266E+02 -0.14812574888E+03 -0.18003404517E+03  0.28677595929E+03  0.16665601231E+03 0.  0.
         24    2    3    3    0    0  0.26876380646E+02 -0.15826087703E+02 -0.63476179952E+02  0.10645177636E+03  0.79560985291E+02 0.  0.
         -6    2    1    2    0  501  0.10617414266E+02  0.14812574888E+03 -0.59719589786E+03  0.63930162951E+03  0.17323298216E+03 0.  0.
        -24    2    5    5    0    0  0.45146114523E+02  0.91225673066E+02 -0.21023511361E+03  0.24663053519E+03  0.79167687918E+02 0.  0.
          2    1    4    4  502    0 -0.82409593308E+01  0.15346891113E+02 -0.56319996772E+02  0.58952374964E+02  0.00000000000E+00 0. -1.
         -1    1    4    4    0  502  0.35117339977E+02 -0.31172978816E+02 -0.71561831802E+01  0.47499401396E+02  0.00000000000E+00 0.  1.
          5    1    3    3  503    0 -0.37493794912E+02 -0.13229966118E+03 -0.11655786522E+03  0.18032418293E+03  0.47000000000E+01 0. -1.
         13    1    6    6    0    0  0.45806958312E+02  0.10133184497E+02 -0.91782644840E+02  0.10307770249E+03  0.00000000000E+00 0. -1.
        -14    1    6    6    0    0 -0.66084378876E+00  0.81092488569E+02 -0.11845246877E+03  0.14355283270E+03  0.00000000000E+00 0.  1.
         -5    1    5    5    0  501 -0.34528700257E+02  0.56900075812E+02 -0.38696078425E+03  0.39267109432E+03  0.47000000000E+01 0.  1.
<mgrwt>
<rscale>  2 0.22568485E+03</rscale>
<asrwt>0</asrwt>
<pdfrwt beam="2">  1        2 0.13102365E+00 0.22568485E+03</pdfrwt>
<pdfrwt beam="1">  1       -2 0.11449819E-01 0.22568485E+03</pdfrwt>
<totfact> 0.17416777E+03</totfact>
</mgrwt>
</event>
<event>
12    1  0.5759937E-002  0.1736021E+03  0.7546771E-02  0.1174143E+00
          1   -1    0    0  503    0  0.00000000000E+00  0.00000000000E+00  0.90223149036E+03  0.90223149036E+03  0.00000000000E+00 0.  1.
         -1   -1    0    0    0  501 -0.00000000000E+00 -0.00000000000E+00 -0.35579899702E+02  0.35579899702E+02  0.00000000000E+00 0. -1.
          6    2    1    2  503    0  0.12474593168E+02 -0.42515391060E+01  0.54987627432E+03  0.57670426103E+03  0.17334992522E+03 0.  0.
         24    2    3    3    0    0 -0.13706980326E+02  0.44205907600E+02  0.18032455303E+03  0.20304109233E+03  0.81035160120E+02 0.  0.
         -6    2    1    2    0  501 -0.12474593168E+02  0.42515391060E+01  0.31677531634E+03  0.36110712903E+03  0.17285273077E+03 0.  0.
        -24    2    5    5    0    0  0.46842194287E+02  0.39690320111E+02  0.22943802394E+03  0.24964286966E+03  0.76878103952E+02 0.  0.
          4    1    4    4  502    0 -0.42971205903E+02  0.76894905231E+01  0.62245884370E+02  0.76027645777E+02  0.00000000000E+00 0. -1.
         -3    1    4    4    0  502  0.29264225577E+02  0.36516417077E+02  0.11807866866E+03  0.12701344656E+03  0.00000000000E+00 0.  1.
          5    1    3    3  503    0  0.26181573494E+02 -0.48457446706E+02  0.36955172129E+03  0.37366316870E+03  0.47000000000E+01 0. -1.
         13    1    6    6    0    0 -0.10962929809E+02  0.42785590209E+01  0.15306864625E+01  0.11867388017E+02  0.00000000000E+00 0. -1.
        -14    1    6    6    0    0  0.57805124096E+02  0.35411761090E+02  0.22790733748E+03  0.23777548165E+03  0.00000000000E+00 0.  1.
         -5    1    5    5    0  501 -0.59316787455E+02 -0.35438781005E+02  0.87337292401E+02  0.11146425937E+03  0.47000000000E+01 0.  1.
<mgrwt>
<rscale>  2 0.17360213E+03</rscale>
<asrwt>0</asrwt>
<pdfrwt beam="1">  1        1 0.13880483E+00 0.17360213E+03</pdfrwt>
<pdfrwt beam="2">  1       -1 0.54738314E-02 0.17360213E+03</pdfrwt>
<totfact> 0.28902747E+03</totfact>
</mgrwt>
</event>
<event>
12    1  0.5759937E-002  0.1777981E+03  0.7546771E-02  0.1169951E+00
          2   -1    0    0  503    0  0.00000000000E+00  0.00000000000E+00  0.68119192164E+03  0.68119192164E+03  0.00000000000E+00 0.  1.
         -2   -1    0    0    0  501 -0.00000000000E+00 -0.00000000000E+00 -0.51796362379E+02  0.51796362379E+02  0.00000000000E+00 0. -1.
          6    2    1    2  503    0  0.28242346428E+02 -0.30978723716E+02  0.43219852916E+03  0.46717053810E+03  0.17232362462E+03 0.  0.
         24    2    3    3    0    0  0.56303015851E+02 -0.67665331710E+02  0.17051087708E+03  0.20139652577E+03  0.61138978421E+02 0.  0.
         -6    2    1    2    0  501 -0.28242346428E+02  0.30978723716E+02  0.19719703011E+03  0.26581774593E+03  0.17324864765E+03 0.  0.
        -24    2    5    5    0    0 -0.55312531241E+02 -0.36608657773E+02  0.10325022880E+03  0.14686842681E+03  0.80684912533E+02 0.  0.
          2    1    4    4  502    0  0.35797902910E+02 -0.16489523176E+02  0.27311496412E+02  0.47951142464E+02  0.00000000000E+00 0. -1.
         -1    1    4    4    0  502  0.20505112941E+02 -0.51175808534E+02  0.14319938067E+03  0.15344538331E+03  0.00000000000E+00 0.  1.
          5    1    3    3  503    0 -0.28060669423E+02  0.36686607994E+02  0.26168765208E+03  0.26577401232E+03  0.47000000000E+01 0. -1.
         13    1    6    6    0    0 -0.51333570931E+01 -0.51736761425E+02  0.49173192690E+02  0.71561489064E+02  0.00000000000E+00 0. -1.
        -14    1    6    6    0    0 -0.50179174148E+02  0.15128103652E+02  0.54077036110E+02  0.75306937746E+02  0.00000000000E+00 0.  1.
         -5    1    5    5    0  501  0.27070184813E+02  0.67587381489E+02  0.93946801307E+02  0.11894931912E+03  0.47000000000E+01 0.  1.
<mgrwt>
<rscale>  2 0.17779812E+03</rscale>
<asrwt>0</asrwt>
<pdfrwt beam="1">  1        2 0.10479875E+00 0.17779812E+03</pdfrwt>
<pdfrwt beam="2">  1       -2 0.79686716E-02 0.17779812E+03</pdfrwt>
<totfact> 0.40547382E+03</totfact>
</mgrwt>
</event>
<event>
12    1  0.5759937E-002  0.1996299E+03  0.7546771E-02  0.1150052E+00
         -1   -1    0    0    0  501 -0.00000000000E+00  0.00000000000E+00  0.69426059477E+03  0.69426059477E+03  0.00000000000E+00 0.  1.
          1   -1    0    0  503    0  0.00000000000E+00 -0.00000000000E+00 -0.12476379054E+03  0.12476379054E+03  0.00000000000E+00 0. -1.
          6    2    1    2  503    0  0.45498963221E+02  0.90132070751E+02  0.58551376085E+03  0.61854190183E+03  0.17197027168E+03 0.  0.
         24    2    3    3    0    0  0.12723723646E+02  0.71352044108E+02  0.55442127172E+03  0.56939173794E+03  0.10756857050E+03 0.  0.
         -6    2    1    2    0  501 -0.45498963221E+02 -0.90132070751E+02 -0.16016956623E+02  0.20048248348E+03  0.17246082875E+03 0.  0.
        -24    2    5    5    0    0  0.25875850214E+02 -0.17959109572E+02 -0.42393380690E+02  0.95501027669E+02  0.79568576200E+02 0.  0.
          2    1    4    4  502    0 -0.25310769542E+02 -0.12728009521E+02  0.24122462881E+03  0.24288260297E+03  0.00000000000E+00 0. -1.
         -1    1    4    4    0  502  0.38034493188E+02  0.84080053629E+02  0.31319664291E+03  0.32650913497E+03  0.00000000000E+00 0.  1.
          5    1    3    3  503    0  0.32775239575E+02  0.18780026643E+02  0.31092489134E+02  0.49150163890E+02  0.47000000000E+01 0. -1.
         13    1    6    6    0    0 -0.24066194267E+02 -0.13570651012E+02 -0.35362485750E+02  0.44875936467E+02  0.00000000000E+00 0. -1.
        -14    1    6    6    0    0  0.49942044481E+02 -0.43884585599E+01 -0.70308949402E+01  0.50625091202E+02  0.00000000000E+00 0.  1.
         -5    1    5    5    0  501 -0.71374813435E+02 -0.72172961179E+02  0.26376424067E+02  0.10498145581E+03  0.47000000000E+01 0.  1.
<mgrwt>
<rscale>  2 0.19962994E+03</rscale>
<asrwt>0</asrwt>
<pdfrwt beam="2">  1        1 0.19194430E-01 0.19962994E+03</pdfrwt>
<pdfrwt beam="1">  1       -1 0.10680932E+00 0.19962994E+03</pdfrwt>
<totfact> 0.23621142E+02</totfact>
</mgrwt>
</event>
<event>
12    1  0.5759937E-002  0.1725680E+03  0.7546771E-02  0.1175196E+00
          2   -1    0    0  503    0  0.00000000000E+00  0.00000000000E+00  0.23919207779E+03  0.23919207779E+03  0.00000000000E+00 0. -1.
         -2   -1    0    0    0  501 -0.00000000000E+00 -0.00000000000E+00 -0.13784446602E+03  0.13784446602E+03  0.00000000000E+00 0.  1.
          6    2    1    2  503    0  0.10766370048E+02 -0.43528999745E+01 -0.81229620072E+01  0.17220654862E+03  0.17162240650E+03 0.  0.
         24    2    3    3    0    0  0.64547187827E+02 -0.31278859868E+02 -0.17839587875E+02  0.11110101290E+03  0.82948644597E+02 0.  0.
         -6    2    1    2    0  501 -0.10766370048E+02  0.43528999745E+01  0.10947057377E+03  0.20482999520E+03  0.17273290928E+03 0.  0.
        -24    2    5    5    0    0 -0.23065153285E+02  0.46571878003E+02  0.11851998120E+03  0.15968928242E+03  0.93556078691E+02 0.  0.
          2    1    4    4  502    0  0.16345953390E+02 -0.31654907237E+02  0.27438549996E+02  0.44967736993E+02  0.00000000000E+00 0. -1.
         -1    1    4    4    0  502  0.48201234437E+02  0.37604736845E+00 -0.45278137871E+02  0.66133275905E+02  0.00000000000E+00 0.  1.
          5    1    3    3  503    0 -0.53780817779E+02  0.26925959894E+02  0.97166258676E+01  0.61105535718E+02  0.47000000000E+01 0. -1.
         11    1    6    6    0    0 -0.45857823666E+02  0.40496408387E+02  0.12138155110E+03  0.13592784862E+03  0.00000000000E+00 0. -1.
        -12    1    6    6    0    0  0.22792670381E+02  0.60754696162E+01 -0.28615698948E+01  0.23761433804E+02  0.00000000000E+00 0.  1.
         -5    1    5    5    0  501  0.12298783236E+02 -0.42218978028E+02 -0.90494074292E+01  0.45140712773E+02  0.47000000000E+01 0.  1.
<mgrwt>
<rscale>  2 0.17256797E+03</rscale>
<asrwt>0</asrwt>
<pdfrwt beam="1">  1        2 0.36798781E-01 0.17256797E+03</pdfrwt>
<pdfrwt beam="2">  1       -2 0.21206841E-01 0.17256797E+03</pdfrwt>
<totfact> 0.26049702E+03</totfact>
</mgrwt>
</event>
<event>
12    1  0.5759937E-002  0.4810710E+03  0.7546771E-02  0.1018841E+00
          2   -1    0    0  503    0  0.00000000000E+00  0.00000000000E+00  0.63770294703E+03  0.63770294703E+03  0.00000000000E+00 0.  1.
         -2   -1    0    0    0  501 -0.00000000000E+00 -0.00000000000E+00 -0.40681491681E+03  0.40681491681E+03  0.00000000000E+00 0. -1.
          6    2    1    2  503    0  0.63042157582E+01 -0.44903405256E+03 -0.56136489900E+02  0.48428347762E+03  0.17235967540E+03 0.  0.
         24    2    3    3    0    0  0.20820857107E+02 -0.10277246373E+03 -0.33059722166E+02  0.13691847077E+03  0.81596783125E+02 0.  0.
         -6    2    1    2    0  501 -0.63042157582E+01  0.44903405256E+03  0.28702452012E+03  0.56023438622E+03  0.17265042387E+03 0.  0.
        -24    2    5    5    0    0  0.51041930827E+02  0.28845031029E+03  0.22172771602E+03  0.37758312990E+03  0.87160654701E+02 0.  0.
          4    1    4    4  502    0  0.35685593025E+02 -0.31108663007E+02  0.14644966937E+02  0.49554873829E+02  0.00000000000E+00 0. -1.
         -3    1    4    4    0  502 -0.14864735918E+02 -0.71663800724E+02 -0.47704689104E+02  0.87363596942E+02  0.00000000000E+00 0.  1.
          5    1    3    3  503    0 -0.14516641349E+02 -0.34626158883E+03 -0.23076767733E+02  0.34736500685E+03  0.47000000000E+01 0. -1.
         11    1    6    6    0    0  0.20344104886E+02  0.26267509808E+03  0.20634241756E+03  0.33464799871E+03  0.00000000000E+00 0. -1.
        -12    1    6    6    0    0  0.30697825941E+02  0.25775212203E+02  0.15385298459E+02  0.42935131190E+02  0.00000000000E+00 0.  1.
         -5    1    5    5    0  501 -0.57346146585E+02  0.16058374227E+03  0.65296804098E+02  0.18265125632E+03  0.47000000000E+01 0.  1.
<mgrwt>
<rscale>  2 0.48107103E+03</rscale>
<asrwt>0</asrwt>
<pdfrwt beam="1">  1        2 0.98108146E-01 0.48107103E+03</pdfrwt>
<pdfrwt beam="2">  1       -2 0.62586910E-01 0.48107103E+03</pdfrwt>
<totfact> 0.11233092E+02</totfact>
</mgrwt>
</event>
<event>
12    1  0.5759937E-002  0.2192782E+03  0.7546771E-02  0.1134422E+00
          2   -1    0    0  503    0  0.00000000000E+00  0.00000000000E+00  0.28924913194E+03  0.28924913194E+03  0.00000000000E+00 0.  1.
         -2   -1    0    0    0  501 -0.00000000000E+00 -0.00000000000E+00 -0.29926205423E+03  0.29926205423E+03  0.00000000000E+00 0. -1.
          6    2    1    2  503    0 -0.87366505448E+02  0.99444412737E+02  0.19119152338E+03  0.28985129456E+03  0.17302449782E+03 0.  0.
         24    2    3    3    0    0 -0.47012060063E+02  0.11793950290E+03  0.19395002106E+03  0.24512715195E+03  0.79692219301E+02 0.  0.
         -6    2    1    2    0  501  0.87366505448E+02 -0.99444412737E+02 -0.20120444567E+03  0.29865989162E+03  0.17661371522E+03 0.  0.
        -24    2    5    5    0    0  0.65614982014E+02 -0.57675183540E+02 -0.21885613582E+03  0.24814781935E+03  0.77766184192E+02 0.  0.
          2    1    4    4  502    0 -0.25474491779E+02  0.20930337476E+02  0.11065806749E+03  0.11546530500E+03  0.00000000000E+00 0. -1.
         -1    1    4    4    0  502 -0.21537568284E+02  0.97009165427E+02  0.83291953570E+02  0.12966184695E+03  0.00000000000E+00 0.  1.
          5    1    3    3  503    0 -0.40354445384E+02 -0.18495090166E+02 -0.27584976823E+01  0.44724142608E+02  0.47000000000E+01 0. -1.
         13    1    6    6    0    0  0.37723238795E+02  0.10125421202E+02 -0.11153221545E+03  0.11817360950E+03  0.00000000000E+00 0. -1.
        -14    1    6    6    0    0  0.27891743218E+02 -0.67800604742E+02 -0.10732392036E+03  0.12997420985E+03  0.00000000000E+00 0.  1.
         -5    1    5    5    0  501  0.21751523434E+02 -0.41769229197E+02  0.17651690147E+02  0.50512072265E+02  0.47000000000E+01 0.  1.
<mgrwt>
<rscale>  2 0.21927823E+03</rscale>
<asrwt>0</asrwt>
<pdfrwt beam="1">  1        2 0.44499867E-01 0.21927823E+03</pdfrwt>
<pdfrwt beam="2">  1       -2 0.46040316E-01 0.21927823E+03</pdfrwt>
<totfact> 0.51715352E+02</totfact>
</mgrwt>
</event>
<event>
12    1  0.5759937E-002  0.1778166E+03  0.7546771E-02  0.1169933E+00
          2   -1    0    0  503    0  0.00000000000E+00  0.00000000000E+00  0.73223407035E+03  0.73223407035E+03  0.00000000000E+00 0.  1.
         -2   -1    0    0    0  501 -0.00000000000E+00 -0.00000000000E+00 -0.81864150983E+02  0.81864150983E+02  0.00000000000E+00 0. -1.
          6    2    1    2  503    0 -0.33877127831E+02 -0.26104394909E+02  0.60623767274E+03  0.63214694887E+03  0.17394409990E+03 0.  0.
         24    2    3    3    0    0 -0.57956867287E+01 -0.14923169153E+02  0.59380162720E+03  0.59912676758E+03  0.78078295315E+02 0.  0.
         -6    2    1    2    0  501  0.33877127831E+02  0.26104394909E+02  0.44132246626E+02  0.18195127246E+03  0.17125860894E+03 0.  0.
        -24    2    5    5    0    0  0.71615053199E+02  0.25430246028E+02 -0.15256820019E+02  0.11142640646E+03  0.80047862196E+02 0.  0.
          2    1    4    4  502    0 -0.35565025431E+02 -0.28010420331E+02  0.27887028473E+03  0.28252095566E+03  0.00000000000E+00 0. -1.
         -1    1    4    4    0  502  0.29769338702E+02  0.13087251178E+02  0.31493134247E+03  0.31660581192E+03  0.00000000000E+00 0.  1.
          5    1    3    3  503    0 -0.28081441102E+02 -0.11181225757E+02  0.12436045540E+02  0.33020181291E+02  0.47000000000E+01 0. -1.
         11    1    6    6    0    0  0.15195526397E+01  0.18470428872E+02 -0.33834409910E+02  0.38577624044E+02  0.00000000000E+00 0. -1.
        -12    1    6    6    0    0  0.70095500560E+02  0.69598171558E+01  0.18577589891E+02  0.72848782418E+02  0.00000000000E+00 0.  1.
         -5    1    5    5    0  501 -0.37737925368E+02  0.67414888143E+00  0.59389066645E+02  0.70524866003E+02  0.47000000000E+01 0.  1.
<mgrwt>
<rscale>  2 0.17781657E+03</rscale>
<asrwt>0</asrwt>
<pdfrwt beam="1">  1        2 0.11265139E+00 0.17781657E+03</pdfrwt>
<pdfrwt beam="2">  1       -2 0.12594485E-01 0.17781657E+03</pdfrwt>
<totfact> 0.18014246E+03</totfact>
</mgrwt>
</event>
<event>
12    1  0.5759937E-002  0.2118816E+03  0.7546771E-02  0.1140085E+00
          2   -1    0    0  503    0  0.00000000000E+00  0.00000000000E+00  0.52575371885E+03  0.52575371885E+03  0.00000000000E+00 0.  1.
         -2   -1    0    0    0  501 -0.00000000000E+00 -0.00000000000E+00 -0.10735031605E+03  0.10735031605E+03  0.00000000000E+00 0. -1.
          6    2    1    2  503    0  0.20635406133E+02 -0.12372901134E+03  0.35059633174E+03  0.40851014343E+03  0.16801208654E+03 0.  0.
         24    2    3    3    0    0 -0.52013367595E+02 -0.72825085578E+02  0.23067363593E+03  0.25927007859E+03  0.77471051643E+02 0.  0.
         -6    2    1    2    0  501 -0.20635406133E+02  0.12372901134E+03  0.67807071066E+02  0.22459389147E+03  0.17352212817E+03 0.  0.
        -24    2    5    5    0    0 -0.52982861761E+01  0.69505051559E+02  0.11075579348E+03  0.15358580869E+03  0.80391111530E+02 0.  0.
          4    1    4    4  502    0 -0.38189042603E+02 -0.82914988108E+02  0.22209856361E+03  0.24012719584E+03  0.00000000000E+00 0. -1.
         -3    1    4    4    0  502 -0.13824324992E+02  0.10089902530E+02  0.85750723195E+01  0.19142882746E+02  0.00000000000E+00 0.  1.
          5    1    3    3  503    0  0.72648773728E+02 -0.50903925763E+02  0.11992269581E+03  0.14924006484E+03  0.47000000000E+01 0. -1.
         13    1    6    6    0    0 -0.15351585609E+02 -0.14227698635E+02  0.13734129242E+02  0.25034474135E+02  0.00000000000E+00 0. -1.
        -14    1    6    6    0    0  0.10053299433E+02  0.83732750195E+02  0.97021664235E+02  0.12855133455E+03  0.00000000000E+00 0.  1.
         -5    1    5    5    0  501 -0.15337119957E+02  0.54223959782E+02 -0.42948722412E+02  0.71008082778E+02  0.47000000000E+01 0.  1.
<mgrwt>
<rscale>  2 0.21188163E+03</rscale>
<asrwt>0</asrwt>
<pdfrwt beam="1">  1        2 0.80885186E-01 0.21188163E+03</pdfrwt>
<pdfrwt beam="2">  1       -2 0.16515434E-01 0.21188163E+03</pdfrwt>
<totfact> 0.17043767E+03</totfact>
</mgrwt>
</event>
<event>
12    1  0.5759937E-002  0.2055607E+03  0.7546771E-02  0.1145130E+00
          1   -1    0    0  503    0  0.00000000000E+00  0.00000000000E+00  0.12147642427E+04  0.12147642427E+04  0.00000000000E+00 0.  1.
         -1   -1    0    0    0  501 -0.00000000000E+00 -0.00000000000E+00 -0.38580659754E+02  0.38580659754E+02  0.00000000000E+00 0. -1.
          6    2    1    2  503    0  0.10300914150E+03 -0.38108093707E+02  0.39246947163E+03  0.44321356512E+03  0.17419204375E+03 0.  0.
         24    2    3    3    0    0  0.40513728784E+02  0.29372862933E+02  0.29061106721E+03  0.30589429964E+03  0.81316682620E+02 0.  0.
         -6    2    1    2    0  501 -0.10300914150E+03  0.38108093707E+02  0.78371411135E+03  0.81013133737E+03  0.17332589369E+03 0.  0.
        -24    2    5    5    0    0 -0.13328342525E+03  0.75463111521E+00  0.55876199200E+03  0.58005013557E+03  0.80486987462E+02 0.  0.
          2    1    4    4  502    0  0.34616842385E+02  0.53461489093E+02  0.14769379762E+03  0.16084127098E+03  0.00000000000E+00 0. -1.
         -1    1    4    4    0  502  0.58968863990E+01 -0.24088626160E+02  0.14291726958E+03  0.14505302866E+03  0.00000000000E+00 0.  1.
          5    1    3    3  503    0  0.62495412715E+02 -0.67480956640E+02  0.10185840442E+03  0.13731926548E+03  0.47000000000E+01 0. -1.
         13    1    6    6    0    0 -0.11602929012E+03  0.21050362680E+01  0.54687956685E+03  0.55905678422E+03  0.00000000000E+00 0. -1.
        -14    1    6    6    0    0 -0.17254135136E+02 -0.13504051528E+01  0.11882425152E+02  0.20993351349E+02  0.00000000000E+00 0.  1.
         -5    1    5    5    0  501  0.30274283753E+02  0.37353462592E+02  0.22495211935E+03  0.23008120180E+03  0.47000000000E+01 0.  1.
<mgrwt>
<rscale>  2 0.20556072E+03</rscale>
<asrwt>0</asrwt>
<pdfrwt beam="1">  1        1 0.18688678E+00 0.20556072E+03</pdfrwt>
<pdfrwt beam="2">  1       -1 0.59354870E-02 0.20556072E+03</pdfrwt>
<totfact> 0.15198905E+03</totfact>
</mgrwt>
</event>
<event>
12    1  0.5759937E-002  0.1904774E+03  0.7546771E-02  0.1158031E+00
         -2   -1    0    0    0  501 -0.00000000000E+00  0.00000000000E+00  0.52966850863E+02  0.52966850863E+02  0.00000000000E+00 0. -1.
          2   -1    0    0  503    0  0.00000000000E+00 -0.00000000000E+00 -0.10072686703E+04  0.10072686703E+04  0.00000000000E+00 0.  1.
          6    2    1    2  503    0 -0.18489849559E+02 -0.85026463983E+02 -0.18323787102E+03  0.26679679116E+03  0.17330042205E+03 0.  0.
         24    2    3    3    0    0  0.24485601445E+02 -0.16045505448E+01 -0.34961261734E+02  0.91257200492E+02  0.80644079504E+02 0.  0.
         -6    2    1    2    0  501  0.18489849559E+02  0.85026463983E+02 -0.77106394838E+03  0.79343872996E+03  0.16563221789E+03 0.  0.
        -24    2    5    5    0    0  0.22102609226E+02  0.12255646935E+03 -0.57943682625E+03  0.59808111616E+03  0.80283076552E+02 0.  0.
          2    1    4    4  502    0  0.92515459755E+01 -0.32438655266E+01  0.26321535646E+02  0.28088022452E+02  0.00000000000E+00 0. -1.
         -1    1    4    4    0  502  0.15234055470E+02  0.16393149818E+01 -0.61282797380E+02  0.63169178041E+02  0.00000000000E+00 0.  1.
          5    1    3    3  503    0 -0.42975451004E+02 -0.83421913438E+02 -0.14827660929E+03  0.17553959067E+03  0.47000000000E+01 0. -1.
         13    1    6    6    0    0  0.38225054314E+02  0.10751745390E+03 -0.36272634698E+03  0.38025196971E+03  0.00000000000E+00 0. -1.
        -14    1    6    6    0    0 -0.16122445088E+02  0.15039015451E+02 -0.21671047926E+03  0.21782914645E+03  0.00000000000E+00 0.  1.
         -5    1    5    5    0  501 -0.36127596675E+01 -0.37530005365E+02 -0.19162712213E+03  0.19535761380E+03  0.47000000000E+01 0.  1.
<mgrwt>
<rscale>  2 0.19047741E+03</rscale>
<asrwt>0</asrwt>
<pdfrwt beam="2">  1        2 0.15496440E+00 0.19047741E+03</pdfrwt>
<pdfrwt beam="1">  1       -2 0.81487470E-02 0.19047741E+03</pdfrwt>
<totfact> 0.23747893E+03</totfact>
</mgrwt>
</event>
<event>
12    1  0.5759937E-002  0.1829948E+03  0.7546771E-02  0.1164936E+00
          2   -1    0    0  503    0  0.00000000000E+00  0.00000000000E+00  0.85186829549E+03  0.85186829549E+03  0.00000000000E+00 0. -1.
         -2   -1    0    0    0  501 -0.00000000000E+00 -0.00000000000E+00 -0.49570101596E+02  0.49570101596E+02  0.00000000000E+00 0.  1.
          6    2    1    2  503    0 -0.59312702178E+02  0.13681261856E+02  0.19357671931E+03  0.26538036987E+03  0.17102520542E+03 0.  0.
         24    2    3    3    0    0 -0.97976113941E+01  0.58093064691E+02  0.74011988107E+02  0.12847906457E+03  0.86938474187E+02 0.  0.
         -6    2    1    2    0  501  0.59312702178E+02 -0.13681261856E+02  0.60872147458E+03  0.63605802722E+03  0.17413445036E+03 0.  0.
        -24    2    5    5    0    0  0.68518179356E+02 -0.73394710815E+02  0.43098979259E+03  0.44827869507E+03  0.71554613129E+02 0.  0.
          2    1    4    4  502    0  0.33261198909E+02  0.43917971549E+02  0.59008817979E+02  0.80728781591E+02  0.00000000000E+00 0. -1.
         -1    1    4    4    0  502 -0.43058810303E+02  0.14175093143E+02  0.15003170128E+02  0.47750282976E+02  0.00000000000E+00 0.  1.
          5    1    3    3  503    0 -0.49515090784E+02 -0.44411802836E+02  0.11956473121E+03  0.13690130531E+03  0.47000000000E+01 0. -1.
         13    1    6    6    0    0  0.81752718532E+02 -0.68622554142E+02  0.40375229713E+03  0.41762241243E+03  0.00000000000E+00 0. -1.
        -14    1    6    6    0    0 -0.13234539177E+02 -0.47721566725E+01  0.27237495453E+02  0.30656282636E+02  0.00000000000E+00 0.  1.
         -5    1    5    5    0  501 -0.92054771779E+01  0.59713448959E+02  0.17773168200E+03  0.18777933215E+03  0.47000000000E+01 0.  1.
<mgrwt>
<rscale>  2 0.18299478E+03</rscale>
<asrwt>0</asrwt>
<pdfrwt beam="1">  1        2 0.13105665E+00 0.18299478E+03</pdfrwt>
<pdfrwt beam="2">  1       -2 0.76261701E-02 0.18299478E+03</pdfrwt>
<totfact> 0.32946366E+03</totfact>
</mgrwt>
</event>
<event>
12    1  0.5759937E-002  0.2811914E+03  0.7546771E-02  0.1095040E+00
         -1   -1    0    0    0  501 -0.00000000000E+00  0.00000000000E+00  0.32404298050E+03  0.32404298050E+03  0.00000000000E+00 0. -1.
          1   -1    0    0  503    0  0.00000000000E+00 -0.00000000000E+00 -0.25604840741E+03  0.25604840741E+03  0.00000000000E+00 0.  1.
          6    2    1    2  503    0  0.12171299333E+03  0.18472584425E+03 -0.28876854019E+02  0.28289336453E+03  0.17394566025E+03 0.  0.
         24    2    3    3    0    0  0.12861435647E+03  0.19688233122E+03  0.17891697310E+01  0.24886537603E+03  0.81403127852E+02 0.  0.
         -6    2    1    2    0  501 -0.12171299333E+03 -0.18472584425E+03  0.96871427106E+02  0.29719802338E+03  0.17321922939E+03 0.  0.
        -24    2    5    5    0    0 -0.13045056625E+03 -0.19337153276E+03  0.54172647308E+02  0.25251727913E+03  0.80127402456E+02 0.  0.
          2    1    4    4  502    0  0.71191740151E+02  0.11623026452E+03  0.41067930064E+02  0.14235277705E+03  0.00000000000E+00 0. -1.
         -1    1    4    4    0  502  0.57422616318E+02  0.80652066703E+02 -0.39278760333E+02  0.10651259898E+03  0.00000000000E+00 0.  1.
          5    1    3    3  503    0 -0.69013631336E+01 -0.12156486971E+02 -0.30666023750E+02  0.34027988498E+02  0.47000000000E+01 0. -1.
         13    1    6    6    0    0 -0.49168052162E+02 -0.33256208795E+02 -0.13058773191E+02  0.60778321251E+02  0.00000000000E+00 0. -1.
        -14    1    6    6    0    0 -0.81282514087E+02 -0.16011532397E+03  0.67231420499E+02  0.19173895788E+03  0.00000000000E+00 0.  1.
         -5    1    5    5    0  501  0.87375729136E+01  0.86456885149E+01  0.42698779798E+02  0.44680744248E+02  0.47000000000E+01 0.  1.
<mgrwt>
<rscale>  2 0.28119137E+03</rscale>
<asrwt>0</asrwt>
<pdfrwt beam="2">  1        1 0.39392062E-01 0.28119137E+03</pdfrwt>
<pdfrwt beam="1">  1       -1 0.49852767E-01 0.28119137E+03</pdfrwt>
<totfact> 0.44458371E+02</totfact>
</mgrwt>
</event>
<event>
12    1  0.5759937E-002  0.1838201E+03  0.7546771E-02  0.1164156E+00
          2   -1    0    0  503    0  0.00000000000E+00  0.00000000000E+00  0.47873176083E+03  0.47873176083E+03  0.00000000000E+00 0.  1.
         -2   -1    0    0    0  501 -0.00000000000E+00 -0.00000000000E+00 -0.73575440691E+02  0.73575440691E+02  0.00000000000E+00 0. -1.
          6    2    1    2  503    0 -0.42912422146E+02 -0.33901962609E+02  0.25693648647E+03  0.31520284580E+03  0.17420004845E+03 0.  0.
         24    2    3    3    0    0 -0.93491309269E+02 -0.19305438266E+02  0.20826512478E+03  0.24335388065E+03  0.82057444331E+02 0.  0.
         -6    2    1    2    0  501  0.42912422146E+02  0.33901962609E+02  0.14821983367E+03  0.23710435572E+03  0.17680084096E+03 0.  0.
        -24    2    5    5    0    0 -0.40132670916E+02 -0.11538541762E+02  0.64255621288E+02  0.11048126983E+03  0.79583647159E+02 0.  0.
          4    1    4    4  502    0 -0.90629981415E+02  0.14649912205E+02  0.15131162999E+03  0.17698480960E+03  0.00000000000E+00 0. -1.
         -3    1    4    4    0  502 -0.28613278546E+01 -0.33955350471E+02  0.56953494795E+02  0.66369071050E+02  0.00000000000E+00 0.  1.
          5    1    3    3  503    0  0.50578887123E+02 -0.14596524343E+02  0.48671361683E+02  0.71848965153E+02  0.47000000000E+01 0. -1.
         11    1    6    6    0    0 -0.32380042309E+02  0.28608949682E+02  0.52382109261E+02  0.67903052306E+02  0.00000000000E+00 0. -1.
        -12    1    6    6    0    0 -0.77526286073E+01 -0.40147491444E+02  0.11873512027E+02  0.42578217523E+02  0.00000000000E+00 0.  1.
         -5    1    5    5    0  501  0.83045093062E+02  0.45440504371E+02  0.83964212387E+02  0.12662308589E+03  0.47000000000E+01 0.  1.
<mgrwt>
<rscale>  2 0.18382011E+03</rscale>
<asrwt>0</asrwt>
<pdfrwt beam="1">  1        2 0.73651038E-01 0.18382011E+03</pdfrwt>
<pdfrwt beam="2">  1       -2 0.11319299E-01 0.18382011E+03</pdfrwt>
<totfact> 0.34916678E+03</totfact>
</mgrwt>
</event>
<event>
12    1  0.5759937E-002  0.1746448E+03  0.7546771E-02  0.1173089E+00
          2   -1    0    0  503    0  0.00000000000E+00  0.00000000000E+00  0.68673294478E+03  0.68673294478E+03  0.00000000000E+00 0. -1.
         -2   -1    0    0    0  501 -0.00000000000E+00 -0.00000000000E+00 -0.11125475491E+03  0.11125475491E+03  0.00000000000E+00 0.  1.
          6    2    1    2  503    0  0.24636449134E+02  0.11412605310E+01 -0.21361048200E+02  0.17619004730E+03  0.17314266166E+03 0.  0.
         24    2    3    3    0    0  0.19528262074E+02 -0.40652500928E+01 -0.81053495435E+02  0.11587023642E+03  0.80363942703E+02 0.  0.
         -6    2    1    2    0  501 -0.24636449134E+02 -0.11412605310E+01  0.59683923807E+03  0.62179765240E+03  0.17264700206E+03 0.  0.
        -24    2    5    5    0    0  0.15348658634E+02  0.57340157977E+02  0.33658760086E+03  0.35203499778E+03  0.84344244443E+02 0.  0.
          2    1    4    4  502    0  0.23872719971E+01  0.37570351451E+02 -0.40157083235E+02  0.55043816271E+02  0.00000000000E+00 0. -1.
         -1    1    4    4    0  502  0.17140990077E+02 -0.41635601544E+02 -0.40896412200E+02  0.60826420144E+02  0.00000000000E+00 0.  1.
          5    1    3    3  503    0  0.51081870603E+01  0.52065106238E+01  0.59692447235E+02  0.60319810882E+02  0.47000000000E+01 0. -1.
         13    1    6    6    0    0  0.44897875149E+02  0.19833156083E+02  0.23093655587E+03  0.23609503618E+03  0.00000000000E+00 0. -1.
        -14    1    6    6    0    0 -0.29549216515E+02  0.37507001894E+02  0.10565104499E+03  0.11593996160E+03  0.00000000000E+00 0.  1.
         -5    1    5    5    0  501 -0.39985107768E+02 -0.58481418508E+02  0.26025163721E+03  0.26976265462E+03  0.47000000000E+01 0.  1.
<mgrwt>
<rscale>  2 0.17464484E+03</rscale>
<asrwt>0</asrwt>
<pdfrwt beam="1">  1        2 0.10565122E+00 0.17464484E+03</pdfrwt>
<pdfrwt beam="2">  1       -2 0.17116116E-01 0.17464484E+03</pdfrwt>
<totfact> 0.11763820E+03</totfact>
</mgrwt>
</event>
<event>
12    1  0.5759937E-002  0.2688732E+03  0.7546771E-02  0.1101926E+00
         -1   -1    0    0    0  501 -0.00000000000E+00  0.00000000000E+00  0.68091222768E+02  0.68091222768E+02  0.00000000000E+00 0. -1.
          1   -1    0    0  503    0  0.00000000000E+00 -0.00000000000E+00 -0.11185351269E+04  0.11185351269E+04  0.00000000000E+00 0.  1.
          6    2    1    2  503    0 -0.15160410603E+02 -0.20498176153E+03 -0.39198660441E+03  0.47549056508E+03  0.17375390307E+03 0.  0.
         24    2    3    3    0    0  0.13290729870E+02 -0.38854534201E+02 -0.18783713557E+03  0.21071364259E+03  0.86204010039E+02 0.  0.
         -6    2    1    2    0  501  0.15160410603E+02  0.20498176153E+03 -0.65845729975E+03  0.71113578462E+03  0.17291826957E+03 0.  0.
        -24    2    5    5    0    0  0.62992366155E+02  0.98357856273E+02 -0.45368705343E+03  0.47531912506E+03  0.80336928705E+02 0.  0.
          4    1    4    4  502    0  0.27335096832E+02 -0.62360873951E+02 -0.13559426414E+03  0.15172966284E+03  0.00000000000E+00 0. -1.
         -3    1    4    4    0  502 -0.14044366962E+02  0.23506339750E+02 -0.52242871434E+02  0.58983979752E+02  0.00000000000E+00 0.  1.
          5    1    3    3  503    0 -0.28451140473E+02 -0.16612722733E+03 -0.20414946884E+03  0.26477692249E+03  0.47000000000E+01 0. -1.
         13    1    6    6    0    0 -0.49301735272E+01  0.18200739612E+02 -0.14630831108E+02  0.23867022277E+02  0.00000000000E+00 0. -1.
        -14    1    6    6    0    0  0.67922539682E+02  0.80157116661E+02 -0.43905622232E+03  0.45145210278E+03  0.00000000000E+00 0.  1.
         -5    1    5    5    0  501 -0.47831955551E+02  0.10662390526E+03 -0.20477024632E+03  0.23581665955E+03  0.47000000000E+01 0.  1.
<mgrwt>
<rscale>  2 0.26887318E+03</rscale>
<asrwt>0</asrwt>
<pdfrwt beam="2">  1        1 0.17208232E+00 0.26887318E+03</pdfrwt>
<pdfrwt beam="1">  1       -1 0.10475573E-01 0.26887318E+03</pdfrwt>
<totfact> 0.74359036E+02</totfact>
</mgrwt>
</event>
<event>
12    1  0.5759937E-002  0.1821243E+03  0.7546771E-02  0.1165763E+00
          4   -1    0    0  503    0  0.00000000000E+00  0.00000000000E+00  0.27015200939E+03  0.27015200939E+03  0.00000000000E+00 0.  1.
         -4   -1    0    0    0  501 -0.00000000000E+00 -0.00000000000E+00 -0.19675552819E+03  0.19675552819E+03  0.00000000000E+00 0. -1.
          6    2    1    2  503    0  0.57217796595E+02 -0.64626298407E+01 -0.10640981658E+03  0.21119484161E+03  0.17310277359E+03 0.  0.
         24    2    3    3    0    0  0.37033474253E+02  0.28562380461E+02  0.43995447121E+01  0.93148398350E+02  0.80436187930E+02 0.  0.
         -6    2    1    2    0  501 -0.57217796595E+02  0.64626298407E+01  0.17980629778E+03  0.25571269597E+03  0.17246169525E+03 0.  0.
        -24    2    5    5    0    0  0.29732599478E+02 -0.20521335962E+02  0.62027446618E+02  0.10677494532E+03  0.79046392160E+02 0.  0.
          4    1    4    4  502    0 -0.23079728507E+02  0.20296141992E+02  0.97247502315E+01  0.32236284134E+02  0.00000000000E+00 0. -1.
         -3    1    4    4    0  502  0.60113202760E+02  0.82662384690E+01 -0.53252055194E+01  0.60912114216E+02  0.00000000000E+00 0.  1.
          5    1    3    3  503    0  0.20184322342E+02 -0.35025010302E+02 -0.11080936130E+03  0.11804644326E+03  0.47000000000E+01 0. -1.
         13    1    6    6    0    0 -0.22293987561E+02 -0.20033874286E+02  0.64782693616E+01  0.30665061132E+02  0.00000000000E+00 0. -1.
        -14    1    6    6    0    0  0.52026587039E+02 -0.48746167551E+00  0.55549177256E+02  0.76109884192E+02  0.00000000000E+00 0.  1.
         -5    1    5    5    0  501 -0.86950396073E+02  0.26983965802E+02  0.11777885116E+03  0.14893775065E+03  0.47000000000E+01 0.  1.
<mgrwt>
<rscale>  2 0.18212430E+03</rscale>
<asrwt>0</asrwt>
<pdfrwt beam="1">  1        4 0.41561848E-01 0.18212430E+03</pdfrwt>
<pdfrwt beam="2">  1       -4 0.30270081E-01 0.18212430E+03</pdfrwt>
<totfact> 0.10333050E+02</totfact>
</mgrwt>
</event>
<event>
12    1  0.5759937E-002  0.2842728E+03  0.7546771E-02  0.1093378E+00
          2   -1    0    0  503    0  0.00000000000E+00  0.00000000000E+00  0.28667101102E+04  0.28667101102E+04  0.00000000000E+00 0.  1.
         -2   -1    0    0    0  501 -0.00000000000E+00 -0.00000000000E+00 -0.29549184242E+02  0.29549184242E+02  0.00000000000E+00 0. -1.
          6    2    1    2  503    0  0.12209566163E+03 -0.18915931282E+03  0.17282181698E+04  0.17514078344E+04  0.17321305887E+03 0.  0.
         24    2    3    3    0    0  0.49207443287E+01 -0.81915077041E+02  0.92743677715E+03  0.93501073975E+03  0.85859270054E+02 0.  0.
         -6    2    1    2    0  501 -0.12209566163E+03  0.18915931282E+03  0.11089427562E+04  0.11448514601E+04  0.17390294104E+03 0.  0.
        -24    2    5    5    0    0 -0.54553566238E+02  0.98015399056E+01  0.30452273226E+03  0.31790236233E+03  0.72495901523E+02 0.  0.
          4    1    4    4  502    0  0.33380458280E+02 -0.50435153943E+02  0.75538993665E+03  0.75780730806E+03  0.00000000000E+00 0. -1.
         -3    1    4    4    0  502 -0.28459713951E+02 -0.31479923098E+02  0.17204684050E+03  0.17720343169E+03  0.00000000000E+00 0.  1.
          5    1    3    3  503    0  0.11717491730E+03 -0.10724423578E+03  0.80078139262E+03  0.81639709463E+03  0.47000000000E+01 0. -1.
         13    1    6    6    0    0 -0.69388042456E+02 -0.49193139985E+01  0.21502899321E+03  0.22600081417E+03  0.00000000000E+00 0. -1.
        -14    1    6    6    0    0  0.14834476218E+02  0.14720853904E+02  0.89493739055E+02  0.91901548161E+02  0.00000000000E+00 0.  1.
         -5    1    5    5    0  501 -0.67542095395E+02  0.17935777291E+03  0.80442002391E+03  0.82694909772E+03  0.47000000000E+01 0.  1.
<mgrwt>
<rscale>  2 0.28427277E+03</rscale>
<asrwt>0</asrwt>
<pdfrwt beam="1">  1        2 0.44103211E+00 0.28427277E+03</pdfrwt>
<pdfrwt beam="2">  1       -2 0.45460306E-02 0.28427277E+03</pdfrwt>
<totfact> 0.56296426E+02</totfact>
</mgrwt>
</event>
<event>
12    1  0.5759937E-002  0.2104554E+03  0.7546771E-02  0.1141206E+00
         -1   -1    0    0    0  501 -0.00000000000E+00  0.00000000000E+00  0.89933237346E+03  0.89933237346E+03  0.00000000000E+00 0. -1.
          1   -1    0    0  503    0  0.00000000000E+00 -0.00000000000E+00 -0.62930279425E+02  0.62930279425E+02  0.00000000000E+00 0.  1.
          6    2    1    2  503    0  0.10337319906E+03 -0.57896285711E+02  0.19461795354E+03  0.28700225767E+03  0.17451690430E+03 0.  0.
         24    2    3    3    0    0  0.17906780322E+02 -0.55614351965E+02  0.34491965447E+02  0.10541994021E+03  0.80684937793E+02 0.  0.
         -6    2    1    2    0  501 -0.10337319906E+03  0.57896285711E+02  0.64178414050E+03  0.67526039522E+03  0.17335431974E+03 0.  0.
        -24    2    5    5    0    0 -0.10926241979E+03  0.89663027671E+02  0.60344276889E+03  0.62490208317E+03  0.79885563847E+02 0.  0.
          2    1    4    4  502    0  0.44274986286E+02 -0.50115998864E+02  0.40006790984E+02  0.77925804954E+02  0.00000000000E+00 0. -1.
         -1    1    4    4    0  502 -0.26368205964E+02 -0.54983531011E+01 -0.55148255369E+01  0.27494135253E+02  0.00000000000E+00 0.  1.
          5    1    3    3  503    0  0.85466418733E+02 -0.22819337454E+01  0.16012598809E+03  0.18158231746E+03  0.47000000000E+01 0. -1.
         11    1    6    6    0    0 -0.94341081183E+02  0.91287246738E+02  0.40180795403E+03  0.42270939538E+03  0.00000000000E+00 0. -1.
        -12    1    6    6    0    0 -0.14921338611E+02 -0.16242190668E+01  0.20163481486E+03  0.20219268779E+03  0.00000000000E+00 0.  1.
         -5    1    5    5    0  501  0.58892207381E+01 -0.31766741960E+02  0.38341371607E+02  0.50358312048E+02  0.47000000000E+01 0.  1.
<mgrwt>
<rscale>  2 0.21045539E+03</rscale>
<asrwt>0</asrwt>
<pdfrwt beam="2">  1        1 0.96815821E-02 0.21045539E+03</pdfrwt>
<pdfrwt beam="1">  1       -1 0.13835882E+00 0.21045539E+03</pdfrwt>
<totfact> 0.31335920E+02</totfact>
</mgrwt>
</event>
<event>
12    1  0.5759937E-002  0.2030553E+03  0.7546771E-02  0.1147187E+00
          1   -1    0    0  503    0  0.00000000000E+00  0.00000000000E+00  0.13103153853E+03  0.13103153853E+03  0.00000000000E+00 0. -1.
         -1   -1    0    0    0  501 -0.00000000000E+00 -0.00000000000E+00 -0.34824489573E+03  0.34824489573E+03  0.00000000000E+00 0.  1.
          6    2    1    2  503    0 -0.36930292077E+02  0.10046190427E+03 -0.18257388523E+03  0.27239760985E+03  0.17149575389E+03 0.  0.
         24    2    3    3    0    0 -0.70649161283E+02  0.10630155825E+03 -0.18501444234E+03  0.23776944186E+03  0.77541204095E+02 0.  0.
         -6    2    1    2    0  501  0.36930292077E+02 -0.10046190427E+03 -0.34639471973E+02  0.20687882441E+03  0.17361599664E+03 0.  0.
        -24    2    5    5    0    0 -0.45692590971E+02 -0.61964634723E+02 -0.10761901591E+02  0.11253472585E+03  0.81368404007E+02 0.  0.
          2    1    4    4  502    0  0.85332633502E+01  0.18290023053E+02 -0.69466563044E+02  0.72339096676E+02  0.00000000000E+00 0. -1.
         -1    1    4    4    0  502 -0.79182424633E+02  0.88011535201E+02 -0.11554787930E+03  0.16543034519E+03  0.00000000000E+00 0.  1.
          5    1    3    3  503    0  0.33718869206E+02 -0.58396539834E+01  0.24405571110E+01  0.34628167988E+02  0.47000000000E+01 0. -1.
         11    1    6    6    0    0 -0.30806686921E+01  0.76540807705E+01  0.22824811493E+02  0.24270300611E+02  0.00000000000E+00 0. -1.
        -12    1    6    6    0    0 -0.42611922279E+02 -0.69618715493E+02 -0.33586713084E+02  0.88264425241E+02  0.00000000000E+00 0.  1.
         -5    1    5    5    0  501  0.82622883048E+02 -0.38497269548E+02 -0.23877570382E+02  0.94344098560E+02  0.47000000000E+01 0.  1.
<mgrwt>
<rscale>  2 0.20305534E+03</rscale>
<asrwt>0</asrwt>
<pdfrwt beam="1">  1        1 0.20158699E-01 0.20305534E+03</pdfrwt>
<pdfrwt beam="2">  1       -1 0.53576136E-01 0.20305534E+03</pdfrwt>
<totfact> 0.90970306E+02</totfact>
</mgrwt>
</event>
<event>
12    1  0.5759937E-002  0.1846877E+03  0.7546771E-02  0.1163342E+00
          1   -1    0    0  503    0  0.00000000000E+00  0.00000000000E+00  0.65471476061E+03  0.65471476061E+03  0.00000000000E+00 0.  1.
         -1   -1    0    0    0  501 -0.00000000000E+00 -0.00000000000E+00 -0.52573500238E+02  0.52573500238E+02  0.00000000000E+00 0. -1.
          6    2    1    2  503    0  0.33389815852E+02  0.27897551225E+02  0.26130829147E+03  0.31744597644E+03  0.17491932884E+03 0.  0.
         24    2    3    3    0    0 -0.10375353146E+02 -0.15572429878E+02  0.23584689370E+03  0.25054753064E+03  0.82463078502E+02 0.  0.
         -6    2    1    2    0  501 -0.33389815852E+02 -0.27897551225E+02  0.34083296891E+03  0.38984228441E+03  0.18416498270E+03 0.  0.
        -24    2    5    5    0    0 -0.85621118932E+02 -0.43647890861E+02  0.28684256748E+03  0.31294471835E+03  0.80122555127E+02 0.  0.
          4    1    4    4  502    0 -0.39267904755E+02 -0.28903062463E+02  0.17765213155E+03  0.18422170124E+03  0.00000000000E+00 0. -1.
         -3    1    4    4    0  502  0.28892551609E+02  0.13330632586E+02  0.58194762142E+02  0.66325829391E+02  0.00000000000E+00 0.  1.
          5    1    3    3  503    0  0.43765168999E+02  0.43469981103E+02  0.25461397771E+02  0.66898445804E+02  0.47000000000E+01 0. -1.
         13    1    6    6    0    0 -0.31278911284E+02 -0.31646677239E+02  0.39758710948E+02  0.59671078150E+02  0.00000000000E+00 0. -1.
        -14    1    6    6    0    0 -0.54342207648E+02 -0.12001213622E+02  0.24708385653E+03  0.25327364020E+03  0.00000000000E+00 0.  1.
         -5    1    5    5    0  501  0.52231303080E+02  0.15750339636E+02  0.53990401425E+02  0.76897566061E+02  0.47000000000E+01 0.  1.
<mgrwt>
<rscale>  2 0.18468768E+03</rscale>
<asrwt>0</asrwt>
<pdfrwt beam="1">  1        1 0.10072534E+00 0.18468768E+03</pdfrwt>
<pdfrwt beam="2">  1       -1 0.80882312E-02 0.18468768E+03</pdfrwt>
<totfact> 0.26017351E+03</totfact>
</mgrwt>
</event>
<event>
12    1  0.5759937E-002  0.2270774E+03  0.7546771E-02  0.1128714E+00
         -2   -1    0    0    0  501 -0.00000000000E+00  0.00000000000E+00  0.58506070481E+02  0.58506070481E+02  0.00000000000E+00 0. -1.
          2   -1    0    0  503    0  0.00000000000E+00 -0.00000000000E+00 -0.13011101924E+04  0.13011101924E+04  0.00000000000E+00 0.  1.
          6    2    1    2  503    0  0.10652576491E+03 -0.10091218522E+03 -0.23584503401E+03  0.32764526426E+03  0.17377436925E+03 0.  0.
         24    2    3    3    0    0 -0.36055207441E+01 -0.77371726471E+02 -0.14753940625E+03  0.18445648267E+03  0.79100782341E+02 0.  0.
         -6    2    1    2    0  501 -0.10652576491E+03  0.10091218522E+03 -0.10067590880E+04  0.10319709987E+04  0.17282729297E+03 0.  0.
        -24    2    5    5    0    0 -0.11877417340E+03  0.26500149277E+02 -0.75970981396E+03  0.77362509027E+03  0.80791191903E+02 0.  0.
          2    1    4    4  502    0 -0.30535785313E+02 -0.60224753944E+01 -0.24119896778E+02  0.39376056369E+02  0.00000000000E+00 0. -1.
         -1    1    4    4    0  502  0.26930264569E+02 -0.71349251076E+02 -0.12341950947E+03  0.14508042630E+03  0.00000000000E+00 0.  1.
          5    1    3    3  503    0  0.11013128566E+03 -0.23540458751E+02 -0.88305627766E+02  0.14318878159E+03  0.47000000000E+01 0. -1.
         11    1    6    6    0    0 -0.22602567223E+02 -0.23985792166E+02 -0.27061826091E+03  0.27261774962E+03  0.00000000000E+00 0. -1.
        -12    1    6    6    0    0 -0.96171606182E+02  0.50485941443E+02 -0.48909155305E+03  0.50100734065E+03  0.00000000000E+00 0.  1.
         -5    1    5    5    0  501  0.12248408492E+02  0.74412035945E+02 -0.24704927400E+03  0.25834590840E+03  0.47000000000E+01 0.  1.
<mgrwt>
<rscale>  2 0.22707741E+03</rscale>
<asrwt>0</asrwt>
<pdfrwt beam="2">  1        2 0.20017081E+00 0.22707741E+03</pdfrwt>
<pdfrwt beam="1">  1       -2 0.90009333E-02 0.22707741E+03</pdfrwt>
<totfact> 0.13786544E+03</totfact>
</mgrwt>
</event>
<event>
12    1  0.5759937E-002  0.3907998E+03  0.7546771E-02  0.1047013E+00
          1   -1    0    0  503    0  0.00000000000E+00  0.00000000000E+00  0.21144682490E+04  0.21144682490E+04  0.00000000000E+00 0. -1.
         -1   -1    0    0    0  501 -0.00000000000E+00 -0.00000000000E+00 -0.72402082227E+02  0.72402082227E+02  0.00000000000E+00 0.  1.
          6    2    1    2  503    0  0.34493715721E+03 -0.59897602099E+02  0.10739331415E+04  0.11427417473E+04  0.17308074257E+03 0.  0.
         24    2    3    3    0    0  0.21292291622E+03 -0.18716844342E+02  0.81591753762E+03  0.84996579802E+03  0.10504256796E+03 0.  0.
         -6    2    1    2    0  501 -0.34493715721E+03  0.59897602099E+02  0.96813302531E+03  0.10441285840E+04  0.17422278837E+03 0.  0.
        -24    2    5    5    0    0 -0.33544573155E+03  0.54114235601E+02  0.97079891730E+03  0.10317701266E+04  0.81528319862E+02 0.  0.
          4    1    4    4  502    0 -0.12222640769E+02 -0.20633030785E+01  0.43616254982E+02  0.45343443469E+02  0.00000000000E+00 0. -1.
         -3    1    4    4    0  502  0.22514555699E+03 -0.16653541264E+02  0.77230128264E+03  0.80462235455E+03  0.00000000000E+00 0.  1.
          5    1    3    3  503    0  0.13201424099E+03 -0.41180757757E+02  0.25801560385E+03  0.29277594925E+03  0.47000000000E+01 0. -1.
         13    1    6    6    0    0 -0.20474604192E+03  0.69986366961E+01  0.48494947846E+03  0.52644650180E+03  0.00000000000E+00 0. -1.
        -14    1    6    6    0    0 -0.13069968963E+03  0.47115598905E+02  0.48584943884E+03  0.50532362476E+03  0.00000000000E+00 0.  1.
         -5    1    5    5    0  501 -0.94914256658E+01  0.57833664982E+01 -0.26658919845E+01  0.12358457399E+02  0.47000000000E+01 0.  1.
<mgrwt>
<rscale>  2 0.39079982E+03</rscale>
<asrwt>0</asrwt>
<pdfrwt beam="1">  1        1 0.32530276E+00 0.39079982E+03</pdfrwt>
<pdfrwt beam="2">  1       -1 0.11138783E-01 0.39079982E+03</pdfrwt>
<totfact> 0.14309537E+02</totfact>
</mgrwt>
</event>
<event>
12    1  0.5759937E-002  0.1922344E+03  0.7546771E-02  0.1156461E+00
          2   -1    0    0  503    0  0.00000000000E+00  0.00000000000E+00  0.10146422791E+04  0.10146422791E+04  0.00000000000E+00 0. -1.
         -2   -1    0    0    0  501 -0.00000000000E+00 -0.00000000000E+00 -0.36427926618E+02  0.36427926618E+02  0.00000000000E+00 0.  1.
          6    2    1    2  503    0  0.77852460302E+02 -0.39966505836E+02  0.47933116596E+03  0.51595451074E+03  0.16968312622E+03 0.  0.
         24    2    3    3    0    0  0.23948572393E+02 -0.75802715145E+01  0.86337909300E+02  0.11793405010E+03  0.76309966284E+02 0.  0.
         -6    2    1    2    0  501 -0.77852460302E+02  0.39966505836E+02  0.49888318649E+03  0.53511569495E+03  0.17264427606E+03 0.  0.
        -24    2    5    5    0    0 -0.57737584863E+02  0.76672657271E+02  0.46404826877E+03  0.48045756418E+03  0.79286506718E+02 0.  0.
          4    1    4    4  502    0 -0.20466207132E+02 -0.38796178783E+01  0.65503820842E+02  0.68736217631E+02  0.00000000000E+00 0. -1.
         -3    1    4    4    0  502  0.44414779525E+02 -0.37006536363E+01  0.20834088458E+02  0.49197832467E+02  0.00000000000E+00 0.  1.
          5    1    3    3  503    0  0.53903887909E+02 -0.32386234322E+02  0.39299325666E+03  0.39802046064E+03  0.47000000000E+01 0. -1.
         13    1    6    6    0    0  0.12207574485E+02  0.39087993539E+02  0.22117298784E+03  0.22493196008E+03  0.00000000000E+00 0. -1.
        -14    1    6    6    0    0 -0.69945159348E+02  0.37584663732E+02  0.24287528093E+03  0.25552560410E+03  0.00000000000E+00 0.  1.
         -5    1    5    5    0  501 -0.20114875439E+02 -0.36706151435E+02  0.34834917717E+02  0.54658130772E+02  0.47000000000E+01 0.  1.
<mgrwt>
<rscale>  2 0.19223438E+03</rscale>
<asrwt>0</asrwt>
<pdfrwt beam="1">  1        2 0.15609879E+00 0.19223438E+03</pdfrwt>
<pdfrwt beam="2">  1       -2 0.56042972E-02 0.19223438E+03</pdfrwt>
<totfact> 0.41846756E+03</totfact>
</mgrwt>
</event>
<event>
12    1  0.5759937E-002  0.1896733E+03  0.7546771E-02  0.1158756E+00
          1   -1    0    0  503    0  0.00000000000E+00  0.00000000000E+00  0.52205360760E+02  0.52205360760E+02  0.00000000000E+00 0. -1.
         -1   -1    0    0    0  501 -0.00000000000E+00 -0.00000000000E+00 -0.68927257574E+03  0.68927257574E+03  0.00000000000E+00 0.  1.
          6    2    1    2  503    0 -0.73016276160E+02 -0.30596661353E+02 -0.32395289732E+03  0.37538875046E+03  0.17234761971E+03 0.  0.
         24    2    3    3    0    0  0.46992305429E+01 -0.64666160151E+02 -0.20747717499E+03  0.23120444264E+03  0.78771321666E+02 0.  0.
         -6    2    1    2    0  501  0.73016276160E+02  0.30596661353E+02 -0.31311431767E+03  0.36608918604E+03  0.17237512564E+03 0.  0.
        -24    2    5    5    0    0  0.11265324527E+03  0.32528129873E+02 -0.19704564675E+03  0.24333395700E+03  0.81459160447E+02 0.  0.
          2    1    4    4  502    0 -0.24048913704E+02 -0.30018643107E+02 -0.31972020581E+02  0.50016790024E+02  0.00000000000E+00 0. -1.
         -1    1    4    4    0  502  0.28748144247E+02 -0.34647517044E+02 -0.17550515441E+03  0.18118765262E+03  0.00000000000E+00 0.  1.
          5    1    3    3  503    0 -0.77715506702E+02  0.34069498798E+02 -0.11647572232E+03  0.14418430782E+03  0.47000000000E+01 0. -1.
         13    1    6    6    0    0  0.10085726077E+02 -0.22590857618E+02 -0.22053547630E+02  0.33142535834E+02  0.00000000000E+00 0. -1.
        -14    1    6    6    0    0  0.10256751919E+03  0.55118987490E+02 -0.17499209912E+03  0.21019142116E+03  0.00000000000E+00 0.  1.
         -5    1    5    5    0  501 -0.39636969110E+02 -0.19314685193E+01 -0.11606867091E+03  0.12275522905E+03  0.47000000000E+01 0.  1.
<mgrwt>
<rscale>  2 0.18967334E+03</rscale>
<asrwt>0</asrwt>
<pdfrwt beam="1">  1        1 0.80315946E-02 0.18967334E+03</pdfrwt>
<pdfrwt beam="2">  1       -1 0.10604193E+00 0.18967334E+03</pdfrwt>
<totfact> 0.75973101E+02</totfact>
</mgrwt>
</event>
<event>
12    1  0.5759937E-002  0.2025972E+03  0.7546771E-02  0.1147566E+00
          1   -1    0    0  503    0  0.00000000000E+00  0.00000000000E+00  0.72466468170E+02  0.72466468170E+02  0.00000000000E+00 0. -1.
         -1   -1    0    0    0  501 -0.00000000000E+00 -0.00000000000E+00 -0.86214738924E+03  0.86214738924E+03  0.00000000000E+00 0.  1.
          6    2    1    2  503    0 -0.85725941349E+02 -0.60108570907E+02 -0.66847797201E+03  0.69849160581E+03  0.17339477216E+03 0.  0.
         24    2    3    3    0    0 -0.15532301572E+02 -0.24785505267E+02 -0.16822896189E+03  0.19208660173E+03  0.87981278028E+02 0.  0.
         -6    2    1    2    0  501  0.85725941349E+02  0.60108570907E+02 -0.12120294907E+03  0.23612225160E+03  0.17349808507E+03 0.  0.
        -24    2    5    5    0    0  0.12465411615E+03  0.37436144469E+02 -0.11275657034E+03  0.19004760534E+03  0.80398597972E+02 0.  0.
          2    1    4    4  502    0 -0.16370659606E+02 -0.57340352265E+02 -0.98826004056E+02  0.11542310675E+03  0.00000000000E+00 0. -1.
         -1    1    4    4    0  502  0.83835803486E+00  0.32554846997E+02 -0.69402957835E+02  0.76663494986E+02  0.00000000000E+00 0.  1.
          5    1    3    3  503    0 -0.70193639777E+02 -0.35323065639E+02 -0.50024901012E+03  0.50640500408E+03  0.47000000000E+01 0. -1.
         13    1    6    6    0    0 -0.42820866675E+01 -0.13311351964E+02 -0.14764792337E+02  0.20335374353E+02  0.00000000000E+00 0. -1.
        -14    1    6    6    0    0  0.12893620282E+03  0.50747496433E+02 -0.97991778001E+02  0.16971223099E+03  0.00000000000E+00 0.  1.
         -5    1    5    5    0  501 -0.38928174805E+02  0.22672426438E+02 -0.84463787284E+01  0.46074646259E+02  0.47000000000E+01 0.  1.
<mgrwt>
<rscale>  2 0.20259724E+03</rscale>
<asrwt>0</asrwt>
<pdfrwt beam="1">  1        1 0.11148687E-01 0.20259724E+03</pdfrwt>
<pdfrwt beam="2">  1       -1 0.13263806E+00 0.20259724E+03</pdfrwt>
<totfact> 0.28833921E+02</totfact>
</mgrwt>
</event>
<event>
12    1  0.5759937E-002  0.2565505E+03  0.7546771E-02  0.1109234E+00
         -3   -1    0    0    0  501 -0.00000000000E+00  0.00000000000E+00  0.69962628389E+03  0.69962628389E+03  0.00000000000E+00 0.  1.
          3   -1    0    0  503    0  0.00000000000E+00 -0.00000000000E+00 -0.19574015621E+03  0.19574015621E+03  0.00000000000E+00 0. -1.
          6    2    1    2  503    0  0.15936092773E+03  0.10305571168E+03  0.57455743634E+03  0.62921353161E+03  0.17256023792E+03 0.  0.
         24    2    3    3    0    0  0.18381451191E+03  0.75467983128E+02  0.43797758811E+03  0.48766775991E+03  0.80698730454E+02 0.  0.
         -6    2    1    2    0  501 -0.15936092773E+03 -0.10305571168E+03 -0.70671308662E+02  0.26615290849E+03  0.17270365321E+03 0.  0.
        -24    2    5    5    0    0 -0.57501367524E+02 -0.10757936960E+03 -0.71160859343E+02  0.16408350492E+03  0.83545201250E+02 0.  0.
          4    1    4    4  502    0  0.42700983617E+02 -0.14212519979E+02  0.66505005721E+02  0.80301217376E+02  0.00000000000E+00 0. -1.
         -3    1    4    4    0  502  0.14111352829E+03  0.89680503107E+02  0.37147258239E+03  0.40736654253E+03  0.00000000000E+00 0.  1.
          5    1    3    3  503    0 -0.24453584177E+02  0.27587728555E+02  0.13657984823E+03  0.14154577171E+03  0.47000000000E+01 0. -1.
         13    1    6    6    0    0 -0.36260727002E+02 -0.25616610802E+02 -0.65625717602E+02  0.79232479972E+02  0.00000000000E+00 0. -1.
        -14    1    6    6    0    0 -0.21240640521E+02 -0.81962758801E+02 -0.55351417413E+01  0.84851024944E+02  0.00000000000E+00 0.  1.
         -5    1    5    5    0  501 -0.10185956021E+03  0.45236579198E+01  0.48955068124E+00  0.10206940358E+03  0.47000000000E+01 0.  1.
<mgrwt>
<rscale>  2 0.25655053E+03</rscale>
<asrwt>0</asrwt>
<pdfrwt beam="2">  1        3 0.30113871E-01 0.25655053E+03</pdfrwt>
<pdfrwt beam="1">  1       -3 0.10763481E+00 0.25655053E+03</pdfrwt>
<totfact> 0.20135447E+01</totfact>
</mgrwt>
</event>
<event>
12    1  0.5759937E-002  0.1772063E+03  0.7546771E-02  0.1170534E+00
         -2   -1    0    0    0  501 -0.00000000000E+00  0.00000000000E+00  0.21357119746E+03  0.21357119746E+03  0.00000000000E+00 0.  1.
          2   -1    0    0  503    0  0.00000000000E+00 -0.00000000000E+00 -0.16970577425E+03  0.16970577425E+03  0.00000000000E+00 0. -1.
          6    2    1    2  503    0  0.31825618829E+02 -0.18216591037E+02  0.91943316474E+02  0.19935247324E+03  0.17304080715E+03 0.  0.
         24    2    3    3    0    0 -0.28385132487E+02  0.31895785804E+02  0.22808535571E+02  0.94766179603E+02  0.81469887709E+02 0.  0.
         -6    2    1    2    0  501 -0.31825618829E+02  0.18216591037E+02 -0.48077893268E+02  0.18392449846E+03  0.17370095887E+03 0.  0.
        -24    2    5    5    0    0  0.11857936025E+02  0.11987461284E+02 -0.91298526690E+02  0.12197961832E+03  0.79115715480E+02 0.  0.
          4    1    4    4  502    0 -0.20524298507E+02  0.16620258696E+02 -0.29567358845E+02  0.39644779447E+02  0.00000000000E+00 0. -1.
         -3    1    4    4    0  502 -0.78608339792E+01  0.15275527108E+02  0.52375894416E+02  0.55121400156E+02  0.00000000000E+00 0.  1.
          5    1    3    3  503    0  0.60210751316E+02 -0.50112376840E+02  0.69134780903E+02  0.10458629364E+03  0.47000000000E+01 0. -1.
         13    1    6    6    0    0 -0.63556743346E+01 -0.15870692396E+02 -0.86712037941E+02  0.88381281939E+02  0.00000000000E+00 0. -1.
        -14    1    6    6    0    0  0.18213610359E+02  0.27858153680E+02 -0.45864887496E+01  0.33598336385E+02  0.00000000000E+00 0.  1.
         -5    1    5    5    0  501 -0.43683554854E+02  0.62291297526E+01  0.43220633422E+02  0.61944880140E+02  0.47000000000E+01 0.  1.
<mgrwt>
<rscale>  2 0.17720631E+03</rscale>
<asrwt>0</asrwt>
<pdfrwt beam="2">  1        2 0.26108581E-01 0.17720631E+03</pdfrwt>
<pdfrwt beam="1">  1       -2 0.32857107E-01 0.17720631E+03</pdfrwt>
<totfact> 0.17441985E+03</totfact>
</mgrwt>
</event>
<event>
12    1  0.5759937E-002  0.1684700E+03  0.7546771E-02  0.1179453E+00
         -1   -1    0    0    0  501 -0.00000000000E+00  0.00000000000E+00  0.52474070367E+03  0.52474070367E+03  0.00000000000E+00 0.  1.
          1   -1    0    0  503    0  0.00000000000E+00 -0.00000000000E+00 -0.57335819668E+02  0.57335819668E+02  0.00000000000E+00 0. -1.
          6    2    1    2  503    0 -0.23514741747E+02  0.15653071496E+02  0.15633527489E+03  0.22486380839E+03  0.15913846933E+03 0.  0.
         24    2    3    3    0    0  0.49288966938E+01 -0.14413507737E+02  0.16343676360E+03  0.18260791062E+03  0.80012687100E+02 0.  0.
         -6    2    1    2    0  501  0.23514741747E+02 -0.15653071496E+02  0.31106960911E+03  0.35721271495E+03  0.17331664745E+03 0.  0.
        -24    2    5    5    0    0 -0.25769235638E+02  0.74486918456E-01  0.67789332162E+02  0.10844846978E+03  0.80632611205E+02 0.  0.
          2    1    4    4  502    0 -0.31789839726E+01 -0.46894426049E+02  0.10898128232E+03  0.11868493178E+03  0.00000000000E+00 0. -1.
         -1    1    4    4    0  502  0.81078806664E+01  0.32480918312E+02  0.54455481273E+02  0.63922978841E+02  0.00000000000E+00 0.  1.
          5    1    3    3  503    0 -0.28443638441E+02  0.30066579233E+02 -0.71014887069E+01  0.42255897770E+02  0.47000000000E+01 0. -1.
         13    1    6    6    0    0  0.24487854133E+02 -0.16163962896E+02  0.37323801717E+02  0.47476255867E+02  0.00000000000E+00 0. -1.
        -14    1    6    6    0    0 -0.50257089771E+02  0.16238449814E+02  0.30465530446E+02  0.60972213917E+02  0.00000000000E+00 0.  1.
         -5    1    5    5    0  501  0.49283977385E+02 -0.15727558414E+02  0.24328027695E+03  0.24876424517E+03  0.47000000000E+01 0.  1.
<mgrwt>
<rscale>  2 0.16846998E+03</rscale>
<asrwt>0</asrwt>
<pdfrwt beam="2">  1        1 0.88208957E-02 0.16846998E+03</pdfrwt>
<pdfrwt beam="1">  1       -1 0.80729336E-01 0.16846998E+03</pdfrwt>
<totfact> 0.12030295E+03</totfact>
</mgrwt>
</event>
<event>
12    1  0.5759937E-002  0.2180970E+03  0.7546771E-02  0.1135310E+00
          2   -1    0    0  503    0  0.00000000000E+00  0.00000000000E+00  0.31125121473E+02  0.31125121473E+02  0.00000000000E+00 0.  1.
         -2   -1    0    0    0  501 -0.00000000000E+00 -0.00000000000E+00 -0.17745570192E+04  0.17745570192E+04  0.00000000000E+00 0. -1.
          6    2    1    2  503    0 -0.13251492857E+03 -0.82226264609E+00 -0.12113117786E+04  0.12309570409E+04  0.17440793915E+03 0.  0.
         24    2    3    3    0    0 -0.16399031673E+02  0.92605371876E+01 -0.75532531947E+03  0.76028698105E+03  0.84647915071E+02 0.  0.
         -6    2    1    2    0  501  0.13251492857E+03  0.82226264609E+00 -0.53212011911E+03  0.57472509972E+03  0.17203556807E+03 0.  0.
        -24    2    5    5    0    0  0.17143900533E+02  0.34635794880E+02 -0.30311618162E+03  0.31603856652E+03  0.80668484292E+02 0.  0.
          2    1    4    4  502    0 -0.26987640038E+02  0.28142968603E+02 -0.69673272506E+03  0.69782293569E+03  0.00000000000E+00 0. -1.
         -1    1    4    4    0  502  0.10588608365E+02 -0.18882431415E+02 -0.58592594410E+02  0.62464045361E+02  0.00000000000E+00 0.  1.
          5    1    3    3  503    0 -0.11611589690E+03 -0.10082799834E+02 -0.45598645912E+03  0.47067005988E+03  0.47000000000E+01 0. -1.
         13    1    6    6    0    0  0.20352893196E+02  0.87476150457E+01 -0.28090543622E+03  0.28177761645E+03  0.00000000000E+00 0. -1.
        -14    1    6    6    0    0 -0.32089926632E+01  0.25888179835E+02 -0.22210745394E+02  0.34260950074E+02  0.00000000000E+00 0.  1.
         -5    1    5    5    0  501  0.11537102804E+03 -0.33813532234E+02 -0.22900393749E+03  0.25868653320E+03  0.47000000000E+01 0.  1.
<mgrwt>
<rscale>  2 0.21809697E+03</rscale>
<asrwt>0</asrwt>
<pdfrwt beam="1">  1        2 0.47884805E-02 0.21809697E+03</pdfrwt>
<pdfrwt beam="2">  1       -2 0.27300876E+00 0.21809697E+03</pdfrwt>
<totfact> 0.87835149E+01</totfact>
</mgrwt>
</event>
<event>
12    1  0.5759937E-002  0.2167569E+03  0.7546771E-02  0.1136324E+00
          2   -1    0    0  503    0  0.00000000000E+00  0.00000000000E+00  0.10215973896E+04  0.10215973896E+04  0.00000000000E+00 0.  1.
         -2   -1    0    0    0  501 -0.00000000000E+00 -0.00000000000E+00 -0.48997009370E+02  0.48997009370E+02  0.00000000000E+00 0. -1.
          6    2    1    2  503    0 -0.11202391777E+03 -0.69452844343E+02  0.35580012735E+03  0.41714243183E+03  0.17332346080E+03 0.  0.
         24    2    3    3    0    0  0.38123206462E+01 -0.33521796495E+02  0.95288633238E+02  0.12974479284E+03  0.81335988435E+02 0.  0.
         -6    2    1    2    0  501  0.11202391777E+03  0.69452844343E+02  0.61680025287E+03  0.65345196714E+03  0.17083285889E+03 0.  0.
        -24    2    5    5    0    0  0.10525952976E+03 -0.72397806568E+01  0.31079486817E+03  0.33787487491E+03  0.80212205961E+02 0.  0.
          4    1    4    4  502    0  0.16101428596E+02 -0.14672375783E+02 -0.86202780328E+01  0.23427415720E+02  0.00000000000E+00 0. -1.
         -3    1    4    4    0  502 -0.12289107949E+02 -0.18849420712E+02  0.10390891127E+03  0.10631737712E+03  0.00000000000E+00 0.  1.
          5    1    3    3  503    0 -0.11583623842E+03 -0.35931047848E+02  0.26051149412E+03  0.28739763899E+03  0.47000000000E+01 0. -1.
         11    1    6    6    0    0  0.29048040781E+02 -0.30213182205E+01  0.15880452861E+02  0.33243131924E+02  0.00000000000E+00 0. -1.
        -12    1    6    6    0    0  0.76211488979E+02 -0.42184624363E+01  0.29491441531E+03  0.30463174299E+03  0.00000000000E+00 0.  1.
         -5    1    5    5    0  501  0.67643880099E+01  0.76692625000E+02  0.30600538469E+03  0.31557709222E+03  0.47000000000E+01 0.  1.
<mgrwt>
<rscale>  2 0.21675688E+03</rscale>
<asrwt>0</asrwt>
<pdfrwt beam="1">  1        2 0.15716881E+00 0.21675688E+03</pdfrwt>
<pdfrwt beam="2">  1       -2 0.75380022E-02 0.21675688E+03</pdfrwt>
<totfact> 0.26327278E+03</totfact>
</mgrwt>
</event>
<event>
12    1  0.5759937E-002  0.1980037E+03  0.7546771E-02  0.1151434E+00
         -2   -1    0    0    0  501 -0.00000000000E+00  0.00000000000E+00  0.89414965623E+02  0.89414965623E+02  0.00000000000E+00 0.  1.
          2   -1    0    0  503    0  0.00000000000E+00 -0.00000000000E+00 -0.89994965663E+03  0.89994965663E+03  0.00000000000E+00 0. -1.
          6    2    1    2  503    0  0.72595585294E+02 -0.66221269966E+02 -0.75819490171E+03  0.78329584523E+03  0.17040392183E+03 0.  0.
         24    2    3    3    0    0 -0.12939817967E+02 -0.38288914066E+02 -0.21426376574E+03  0.23195231131E+03  0.79116582229E+02 0.  0.
         -6    2    1    2    0  501 -0.72595585294E+02  0.66221269966E+02 -0.52339789290E+02  0.20606877702E+03  0.17340562770E+03 0.  0.
        -24    2    5    5    0    0 -0.11486286212E+03  0.34543292660E+02 -0.26249156093E+02  0.14696862408E+03  0.80771542669E+02 0.  0.
          2    1    4    4  502    0  0.17185517167E+02  0.17694112905E+02 -0.72649057958E+02  0.76722286553E+02  0.00000000000E+00 0. -1.
         -1    1    4    4    0  502 -0.30125335134E+02 -0.55983026971E+02 -0.14161470778E+03  0.15523002476E+03  0.00000000000E+00 0.  1.
          5    1    3    3  503    0  0.85535403261E+02 -0.27932355900E+02 -0.54393113597E+03  0.55134353392E+03  0.47000000000E+01 0. -1.
         13    1    6    6    0    0 -0.48250892914E+02  0.47001216948E+01 -0.50548609500E+02  0.70038573182E+02  0.00000000000E+00 0. -1.
        -14    1    6    6    0    0 -0.66611969209E+02  0.29843170965E+02  0.24299453407E+02  0.76930050897E+02  0.00000000000E+00 0.  1.
         -5    1    5    5    0  501  0.42267276829E+02  0.31677977306E+02 -0.26090633197E+02  0.59100152939E+02  0.47000000000E+01 0.  1.
<mgrwt>
<rscale>  2 0.19800375E+03</rscale>
<asrwt>0</asrwt>
<pdfrwt beam="2">  1        2 0.13845379E+00 0.19800375E+03</pdfrwt>
<pdfrwt beam="1">  1       -2 0.13756149E-01 0.19800375E+03</pdfrwt>
<totfact> 0.12024935E+03</totfact>
</mgrwt>
</event>
<event>
12    1  0.5759937E-002  0.4006898E+03  0.7546771E-02  0.1043541E+00
          2   -1    0    0  503    0  0.00000000000E+00  0.00000000000E+00  0.41504811472E+03  0.41504811472E+03  0.00000000000E+00 0. -1.
         -2   -1    0    0    0  501 -0.00000000000E+00 -0.00000000000E+00 -0.60166041608E+03  0.60166041608E+03  0.00000000000E+00 0.  1.
          6    2    1    2  503    0  0.35899710355E+03 -0.97373238868E+01  0.21053074409E+03  0.45221497075E+03  0.17663932103E+03 0.  0.
         24    2    3    3    0    0  0.29829700814E+03 -0.64601829872E+02  0.14695635243E+03  0.34849222072E+03  0.81830048863E+02 0.  0.
         -6    2    1    2    0  501 -0.35899710355E+03  0.97373238868E+01 -0.39714304545E+03  0.56449356005E+03  0.17876421611E+03 0.  0.
        -24    2    5    5    0    0 -0.23945070435E+03  0.73110579387E+02 -0.22892813602E+03  0.34856334719E+03  0.80040732817E+02 0.  0.
          4    1    4    4  502    0  0.99289978074E+02  0.16258596954E+02  0.56742162194E+02  0.11550980344E+03  0.00000000000E+00 0. -1.
         -3    1    4    4    0  502  0.19900703006E+03 -0.80860426825E+02  0.90214190240E+02  0.23298241728E+03  0.00000000000E+00 0.  1.
          5    1    3    3  503    0  0.60700095415E+02  0.54864505985E+02  0.63574391653E+02  0.10372275003E+03  0.47000000000E+01 0. -1.
         13    1    6    6    0    0 -0.93144597102E+02  0.53851807117E+02 -0.56211013349E+02  0.12139032548E+03  0.00000000000E+00 0. -1.
        -14    1    6    6    0    0 -0.14630610725E+03  0.19258772270E+02 -0.17271712267E+03  0.22717302171E+03  0.00000000000E+00 0.  1.
         -5    1    5    5    0  501 -0.11954639920E+03 -0.63373255501E+02 -0.16821490943E+03  0.21593021287E+03  0.47000000000E+01 0.  1.
<mgrwt>
<rscale>  2 0.40068983E+03</rscale>
<asrwt>0</asrwt>
<pdfrwt beam="1">  1        2 0.63853556E-01 0.40068983E+03</pdfrwt>
<pdfrwt beam="2">  1       -2 0.92563141E-01 0.40068983E+03</pdfrwt>
<totfact> 0.78276094E+01</totfact>
</mgrwt>
</event>
<event>
12    1  0.5759937E-002  0.1815570E+03  0.7546771E-02  0.1166305E+00
          3   -1    0    0  503    0  0.00000000000E+00  0.00000000000E+00  0.64584686876E+03  0.64584686876E+03  0.00000000000E+00 0.  1.
         -3   -1    0    0    0  501 -0.00000000000E+00 -0.00000000000E+00 -0.56431040917E+02  0.56431040917E+02  0.00000000000E+00 0. -1.
          6    2    1    2  503    0  0.45299803520E+02 -0.37324070397E+02  0.40382584167E+03  0.44292221035E+03  0.17221967250E+03 0.  0.
         24    2    3    3    0    0  0.50834461702E+02 -0.29926046302E+02  0.41543299959E+03  0.42736009878E+03  0.81070130936E+02 0.  0.
         -6    2    1    2    0  501 -0.45299803520E+02  0.37324070397E+02  0.18558998618E+03  0.25935569932E+03  0.17139596662E+03 0.  0.
        -24    2    5    5    0    0  0.31431026641E+02 -0.73467329299E+01  0.12512719562E+03  0.15183388754E+03  0.79717190127E+02 0.  0.
          2    1    4    4  502    0  0.55414032374E+02  0.12223428332E+02  0.20564176891E+03  0.21332759856E+03  0.00000000000E+00 0. -1.
         -1    1    4    4    0  502 -0.45795706722E+01 -0.42149474634E+02  0.20979123068E+03  0.21403250022E+03  0.00000000000E+00 0.  1.
          5    1    3    3  503    0 -0.55346581812E+01 -0.73980240943E+01 -0.11607157925E+02  0.15562111579E+02  0.47000000000E+01 0. -1.
         13    1    6    6    0    0  0.17442480636E+02 -0.20181018235E+02  0.14558153385E+01  0.26713910721E+02  0.00000000000E+00 0. -1.
        -14    1    6    6    0    0  0.13988546004E+02  0.12834285305E+02  0.12367138028E+03  0.12511997682E+03  0.00000000000E+00 0.  1.
         -5    1    5    5    0  501 -0.76730830161E+02  0.44670803327E+02  0.60462790554E+02  0.10752181178E+03  0.47000000000E+01 0.  1.
<mgrwt>
<rscale>  2 0.18155702E+03</rscale>
<asrwt>0</asrwt>
<pdfrwt beam="1">  1        3 0.99361052E-01 0.18155702E+03</pdfrwt>
<pdfrwt beam="2">  1       -3 0.86816990E-02 0.18155702E+03</pdfrwt>
<totfact> 0.20745698E+02</totfact>
</mgrwt>
</event>
<event>
12    1  0.5759937E-002  0.1839285E+03  0.7546771E-02  0.1164054E+00
          2   -1    0    0  503    0  0.00000000000E+00  0.00000000000E+00  0.11096692399E+04  0.11096692399E+04  0.00000000000E+00 0. -1.
         -2   -1    0    0    0  501 -0.00000000000E+00 -0.00000000000E+00 -0.32172021429E+02  0.32172021429E+02  0.00000000000E+00 0.  1.
          6    2    1    2  503    0  0.21020834138E+02 -0.59625770167E+02  0.40240640462E+03  0.44158628090E+03  0.17050050164E+03 0.  0.
         24    2    3    3    0    0  0.64438448071E+02 -0.50102156586E+02  0.36762286528E+03  0.38494907560E+03  0.79854117248E+02 0.  0.
         -6    2    1    2    0  501 -0.21020834138E+02  0.59625770167E+02  0.67509081389E+03  0.70025498047E+03  0.17496377551E+03 0.  0.
        -24    2    5    5    0    0  0.90480727089E+00  0.76942032834E+02  0.25243660326E+03  0.27665226747E+03  0.83014115274E+02 0.  0.
          2    1    4    4  502    0  0.13887713312E+02 -0.47687471535E+02  0.90413604093E+02  0.10315805023E+03  0.00000000000E+00 0. -1.
         -1    1    4    4    0  502  0.50550734759E+02 -0.24146850516E+01  0.27720926119E+03  0.28179102537E+03  0.00000000000E+00 0.  1.
          5    1    3    3  503    0 -0.43417613933E+02 -0.95236135808E+01  0.34783539344E+02  0.56637205303E+02  0.47000000000E+01 0.  1.
         11    1    6    6    0    0 -0.14681769543E+02  0.20943470860E+02  0.18855994101E+03  0.19028671704E+03  0.00000000000E+00 0. -1.
        -12    1    6    6    0    0  0.15586576814E+02  0.55998561973E+02  0.63876662255E+02  0.86365550428E+02  0.00000000000E+00 0.  1.
         -5    1    5    5    0  501 -0.21925641409E+02 -0.17316262667E+02  0.42265421063E+03  0.42360271301E+03  0.47000000000E+01 0.  1.
<mgrwt>
<rscale>  2 0.18392851E+03</rscale>
<asrwt>0</asrwt>
<pdfrwt beam="1">  1        2 0.17071832E+00 0.18392851E+03</pdfrwt>
<pdfrwt beam="2">  1       -2 0.49495426E-02 0.18392851E+03</pdfrwt>
<totfact> 0.44360982E+03</totfact>
</mgrwt>
</event>
<event>
12    1  0.5759937E-002  0.2268834E+03  0.7546771E-02  0.1128853E+00
          1   -1    0    0  503    0  0.00000000000E+00  0.00000000000E+00  0.32446491038E+03  0.32446491038E+03  0.00000000000E+00 0. -1.
         -1   -1    0    0    0  501 -0.00000000000E+00 -0.00000000000E+00 -0.21429244190E+03  0.21429244190E+03  0.00000000000E+00 0.  1.
          6    2    1    2  503    0 -0.11474876027E+03 -0.88234946067E+02 -0.82454482898E+02  0.23991374533E+03  0.17264755937E+03 0.  0.
         24    2    3    3    0    0  0.10133113329E+02 -0.22171539739E+02 -0.37376443557E+02  0.91542671191E+02  0.79930000348E+02 0.  0.
         -6    2    1    2    0  501  0.11474876027E+03  0.88234946067E+02  0.19262695138E+03  0.29884360695E+03  0.17677577698E+03 0.  0.
        -24    2    5    5    0    0  0.51953820743E+02  0.66861202630E+02  0.20291387284E+03  0.23155354757E+03  0.72618081045E+02 0.  0.
          4    1    4    4  502    0  0.18797788890E+02 -0.49620023460E+02 -0.15166124014E+02  0.55186184076E+02  0.00000000000E+00 0. -1.
         -3    1    4    4    0  502 -0.86646755607E+01  0.27448483720E+02 -0.22210319543E+02  0.36356487115E+02  0.00000000000E+00 0.  1.
          5    1    3    3  503    0 -0.12488187360E+03 -0.66063406328E+02 -0.45078039341E+02  0.14837107414E+03  0.47000000000E+01 0. -1.
         11    1    6    6    0    0 -0.14025920846E+02  0.92055885654E+01  0.72653818264E+02  0.74565720172E+02  0.00000000000E+00 0. -1.
        -12    1    6    6    0    0  0.65979741589E+02  0.57655614064E+02  0.13026005458E+03  0.15698782740E+03  0.00000000000E+00 0.  1.
         -5    1    5    5    0  501  0.62794939528E+02  0.21373743437E+02 -0.10286921455E+02  0.67290059384E+02  0.47000000000E+01 0.  1.
<mgrwt>
<rscale>  2 0.22688336E+03</rscale>
<asrwt>0</asrwt>
<pdfrwt beam="1">  1        1 0.49917678E-01 0.22688336E+03</pdfrwt>
<pdfrwt beam="2">  1       -1 0.32968068E-01 0.22688336E+03</pdfrwt>
<totfact> 0.69075851E+02</totfact>
</mgrwt>
</event>
<event>
12    1  0.5759937E-002  0.1836360E+03  0.7546771E-02  0.1164330E+00
         -1   -1    0    0    0  501 -0.00000000000E+00  0.00000000000E+00  0.13844189682E+03  0.13844189682E+03  0.00000000000E+00 0. -1.
          1   -1    0    0  503    0  0.00000000000E+00 -0.00000000000E+00 -0.24867467034E+03  0.24867467034E+03  0.00000000000E+00 0.  1.
          6    2    1    2  503    0 -0.73851316780E+02  0.14237937956E+02 -0.83669859664E+02  0.20552220648E+03  0.17199417453E+03 0.  0.
         24    2    3    3    0    0  0.10481833160E+02 -0.32324103839E+02 -0.17617400260E+02  0.88624296711E+02  0.79932325502E+02 0.  0.
         -6    2    1    2    0  501  0.73851316780E+02 -0.14237937956E+02 -0.26562913855E+02  0.18159436069E+03  0.16313855331E+03 0.  0.
        -24    2    5    5    0    0  0.14407606718E+02 -0.16233536197E+02  0.40172319979E+02  0.92077778354E+02  0.79958709003E+02 0.  0.
          4    1    4    4  502    0 -0.13432481205E+02 -0.52540595713E+02 -0.37007471583E+01  0.54356612097E+02  0.00000000000E+00 0. -1.
         -3    1    4    4    0  502  0.23914314364E+02  0.20216491874E+02 -0.13916653102E+02  0.34267684613E+02  0.00000000000E+00 0.  1.
          5    1    3    3  503    0 -0.84333149939E+02  0.46562041794E+02 -0.66052459404E+02  0.11689790977E+03  0.47000000000E+01 0. -1.
         13    1    6    6    0    0 -0.20943049463E+02  0.21301106589E+02  0.67290689092E+01  0.30620725516E+02  0.00000000000E+00 0. -1.
        -14    1    6    6    0    0  0.35350656181E+02 -0.37534642786E+02  0.33443251069E+02  0.61457052838E+02  0.00000000000E+00 0.  1.
         -5    1    5    5    0  501  0.59443710062E+02  0.19955982416E+01 -0.66735233834E+02  0.89516582336E+02  0.47000000000E+01 0.  1.
<mgrwt>
<rscale>  2 0.18363604E+03</rscale>
<asrwt>0</asrwt>
<pdfrwt beam="2">  1        1 0.38257642E-01 0.18363604E+03</pdfrwt>
<pdfrwt beam="1">  1       -1 0.21298753E-01 0.18363604E+03</pdfrwt>
<totfact> 0.19949548E+03</totfact>
</mgrwt>
</event>
<event>
12    1  0.5759937E-002  0.1853241E+03  0.7546771E-02  0.1162748E+00
         -1   -1    0    0    0  501 -0.00000000000E+00  0.00000000000E+00  0.72259029470E+02  0.72259029470E+02  0.00000000000E+00 0. -1.
          1   -1    0    0  503    0  0.00000000000E+00 -0.00000000000E+00 -0.85367887801E+03  0.85367887801E+03  0.00000000000E+00 0.  1.
          6    2    1    2  503    0  0.67500774040E+02  0.20158741858E+02 -0.70013292459E+03  0.72450997931E+03  0.17252787789E+03 0.  0.
         24    2    3    3    0    0  0.57692337382E+02  0.51345851407E+02 -0.67234352979E+03  0.68134539087E+03  0.78872792253E+02 0.  0.
         -6    2    1    2    0  501 -0.67500774040E+02 -0.20158741858E+02 -0.81286923951E+02  0.20142792818E+03  0.17030242768E+03 0.  0.
        -24    2    5    5    0    0 -0.10921449635E+03 -0.16374328004E+02 -0.80341266637E+02  0.15926940964E+03  0.81951820557E+02 0.  0.
          2    1    4    4  502    0  0.45632554137E+02  0.42216072878E+02 -0.21642896957E+03  0.22517998507E+03  0.00000000000E+00 0. -1.
         -1    1    4    4    0  502  0.12059783245E+02  0.91297785283E+01 -0.45591456022E+03  0.45616540580E+03  0.00000000000E+00 0.  1.
          5    1    3    3  503    0  0.98084366582E+01 -0.31187109548E+02 -0.27789394801E+02  0.43164588439E+02  0.47000000000E+01 0. -1.
         11    1    6    6    0    0 -0.10741477410E+03 -0.18871759386E+02 -0.94789970593E+02  0.14449642045E+03  0.00000000000E+00 0. -1.
        -12    1    6    6    0    0 -0.17997222474E+01  0.24974313829E+01  0.14448703956E+02  0.14772989193E+02  0.00000000000E+00 0.  1.
         -5    1    5    5    0  501  0.41713722309E+02 -0.37844138548E+01 -0.94565731422E+00  0.42158518533E+02  0.47000000000E+01 0.  1.
<mgrwt>
<rscale>  2 0.18532405E+03</rscale>
<asrwt>0</asrwt>
<pdfrwt beam="2">  1        1 0.13133522E+00 0.18532405E+03</pdfrwt>
<pdfrwt beam="1">  1       -1 0.11116773E-01 0.18532405E+03</pdfrwt>
<totfact> 0.10771285E+03</totfact>
</mgrwt>
</event>
<event>
12    1  0.5759937E-002  0.1884014E+03  0.7546771E-02  0.1159911E+00
         -2   -1    0    0    0  501 -0.00000000000E+00  0.00000000000E+00  0.12205054800E+04  0.12205054800E+04  0.00000000000E+00 0.  1.
          2   -1    0    0  503    0  0.00000000000E+00 -0.00000000000E+00 -0.11235133954E+03  0.11235133954E+03  0.00000000000E+00 0. -1.
          6    2    1    2  503    0  0.31290523227E+00 -0.76085450847E+02 -0.18833643061E+02  0.19040464590E+03  0.17352270552E+03 0.  0.
         24    2    3    3    0    0  0.35251720955E+02  0.63722269181E+01  0.26413463108E+02  0.89958739651E+02  0.78176816896E+02 0.  0.
         -6    2    1    2    0  501 -0.31290523227E+00  0.76085450847E+02  0.11269877835E+04  0.11424521736E+04  0.17119115371E+03 0.  0.
        -24    2    5    5    0    0  0.51437597203E+02  0.98073554998E+01  0.63926329520E+03  0.64750958411E+03  0.88707893069E+02 0.  0.
          4    1    4    4  502    0 -0.17152989044E+01  0.36458374800E+02  0.23715074674E+01  0.36575666653E+02  0.00000000000E+00 0. -1.
         -3    1    4    4    0  502  0.36967019860E+02 -0.30086147882E+02  0.24041955640E+02  0.53383072998E+02  0.00000000000E+00 0.  1.
          5    1    3    3  503    0 -0.34938815723E+02 -0.82457677765E+02 -0.45247106169E+02  0.10044590625E+03  0.47000000000E+01 0. -1.
         13    1    6    6    0    0  0.40920742550E+02  0.32574874829E+01  0.99916293956E+02  0.10802029529E+03  0.00000000000E+00 0. -1.
        -14    1    6    6    0    0  0.10516854653E+02  0.65498680168E+01  0.53934700125E+03  0.53948928882E+03  0.00000000000E+00 0.  1.
         -5    1    5    5    0  501 -0.51750502436E+02  0.66278095348E+02  0.48772448828E+03  0.49494258949E+03  0.47000000000E+01 0.  1.
<mgrwt>
<rscale>  2 0.18840140E+03</rscale>
<asrwt>0</asrwt>
<pdfrwt beam="2">  1        2 0.17284822E-01 0.18840140E+03</pdfrwt>
<pdfrwt beam="1">  1       -2 0.18777006E+00 0.18840140E+03</pdfrwt>
<totfact> 0.57727473E+01</totfact>
</mgrwt>
</event>
<event>
12    1  0.5759937E-002  0.2023754E+03  0.7546771E-02  0.1147750E+00
          1   -1    0    0  503    0  0.00000000000E+00  0.00000000000E+00  0.87822930070E+03  0.87822930070E+03  0.00000000000E+00 0.  1.
         -1   -1    0    0    0  501 -0.00000000000E+00 -0.00000000000E+00 -0.46652248308E+02  0.46652248308E+02  0.00000000000E+00 0. -1.
          6    2    1    2  503    0  0.10449493164E+03  0.14647627492E+02  0.42466022872E+03  0.47038782587E+03  0.17261127756E+03 0.  0.
         24    2    3    3    0    0  0.11538217336E+03 -0.24988745675E+02  0.22438214984E+03  0.26588116831E+03  0.80049754229E+02 0.  0.
         -6    2    1    2    0  501 -0.10449493164E+03 -0.14647627492E+02  0.40691682367E+03  0.45449372314E+03  0.17277007627E+03 0.  0.
        -24    2    5    5    0    0 -0.97113008825E+02 -0.37697210619E+02  0.16594257856E+03  0.21226149391E+03  0.81645491290E+02 0.  0.
          2    1    4    4  502    0  0.10944236896E+03 -0.25809343699E+01  0.13640832327E+03  0.17490432815E+03  0.00000000000E+00 0. -1.
         -1    1    4    4    0  502  0.59398043939E+01 -0.22407811305E+02  0.87973826571E+02  0.90976840159E+02  0.00000000000E+00 0.  1.
          5    1    3    3  503    0 -0.10887241712E+02  0.39636373166E+02  0.20027807888E+03  0.20450665756E+03  0.47000000000E+01 0. -1.
         11    1    6    6    0    0 -0.74181974211E+02 -0.48284390700E+02  0.16469609122E+03  0.18697366164E+03  0.00000000000E+00 0. -1.
        -12    1    6    6    0    0 -0.22931034614E+02  0.10587180082E+02  0.12464873397E+01  0.25287832276E+02  0.00000000000E+00 0.  1.
         -5    1    5    5    0  501 -0.73819228196E+01  0.23049583127E+02  0.24097424512E+03  0.24223222923E+03  0.47000000000E+01 0.  1.
<mgrwt>
<rscale>  2 0.20237542E+03</rscale>
<asrwt>0</asrwt>
<pdfrwt beam="1">  1        1 0.13511219E+00 0.20237542E+03</pdfrwt>
<pdfrwt beam="2">  1       -1 0.71772696E-02 0.20237542E+03</pdfrwt>
<totfact> 0.20132539E+03</totfact>
</mgrwt>
</event>
<event>
12    1  0.5759937E-002  0.2191525E+03  0.7546771E-02  0.1134517E+00
         -2   -1    0    0    0  501 -0.00000000000E+00  0.00000000000E+00  0.42349885743E+02  0.42349885743E+02  0.00000000000E+00 0. -1.
          2   -1    0    0  503    0  0.00000000000E+00 -0.00000000000E+00 -0.15614142018E+04  0.15614142018E+04  0.00000000000E+00 0.  1.
          6    2    1    2  503    0  0.12207052637E+03 -0.58265010540E+02 -0.11773930612E+04  0.11974963378E+04  0.17160137969E+03 0.  0.
         24    2    3    3    0    0  0.32335527095E+02 -0.16692059250E+02 -0.26646139983E+03  0.28119984532E+03  0.82142950095E+02 0.  0.
         -6    2    1    2    0  501 -0.12207052637E+03  0.58265010540E+02 -0.34167125481E+03  0.40626774975E+03  0.17325764992E+03 0.  0.
        -24    2    5    5    0    0 -0.45492112191E+02  0.93043468519E+02 -0.18293950483E+03  0.22656896536E+03  0.84498605491E+02 0.  0.
          4    1    4    4  502    0  0.68125728475E+01  0.17662393633E+02 -0.10425452816E+02  0.21611602533E+02  0.00000000000E+00 0. -1.
         -3    1    4    4    0  502  0.25522954247E+02 -0.34354452882E+02 -0.25603594702E+03  0.25958824278E+03  0.00000000000E+00 0.  1.
          5    1    3    3  503    0  0.89734999275E+02 -0.41572951291E+02 -0.91093166137E+03  0.91629649244E+03  0.47000000000E+01 0. -1.
         13    1    6    6    0    0 -0.69781672316E+02  0.79536995965E+02 -0.14197339963E+03  0.17706513412E+03  0.00000000000E+00 0. -1.
        -14    1    6    6    0    0  0.24289560125E+02  0.13506472554E+02 -0.40966105207E+02  0.49503831243E+02  0.00000000000E+00 0.  1.
         -5    1    5    5    0  501 -0.76578414179E+02 -0.34778457979E+02 -0.15873174998E+03  0.17969878438E+03  0.47000000000E+01 0.  1.
<mgrwt>
<rscale>  2 0.21915246E+03</rscale>
<asrwt>0</asrwt>
<pdfrwt beam="2">  1        2 0.24021757E+00 0.21915246E+03</pdfrwt>
<pdfrwt beam="1">  1       -2 0.65153670E-02 0.21915246E+03</pdfrwt>
<totfact> 0.16528458E+03</totfact>
</mgrwt>
</event>
<event>
12    1  0.5759937E-002  0.2372348E+03  0.7546771E-02  0.1121649E+00
          2   -1    0    0  503    0  0.00000000000E+00  0.00000000000E+00  0.21482281761E+04  0.21482281761E+04  0.00000000000E+00 0.  1.
         -2   -1    0    0    0  501 -0.00000000000E+00 -0.00000000000E+00 -0.28948925742E+02  0.28948925742E+02  0.00000000000E+00 0. -1.
          6    2    1    2  503    0  0.15152681043E+03 -0.58436692638E+02  0.13938826875E+04  0.14138731756E+04  0.17249112639E+03 0.  0.
         24    2    3    3    0    0  0.15697680325E+03 -0.25726449719E+01  0.92417191287E+03  0.94079728729E+03  0.79733781885E+02 0.  0.
         -6    2    1    2    0  501 -0.15152681043E+03  0.58436692638E+02  0.72539656285E+03  0.76330392629E+03  0.17337095827E+03 0.  0.
        -24    2    5    5    0    0 -0.96429818426E+02  0.38695916049E+02  0.22535200453E+03  0.25982400903E+03  0.76999389077E+02 0.  0.
          2    1    4    4  502    0  0.15794294454E+03 -0.18435337456E+02  0.80352684368E+03  0.81911001941E+03  0.00000000000E+00 0. -1.
         -1    1    4    4    0  502 -0.96614129798E+00  0.15862692484E+02  0.12064506919E+03  0.12168726787E+03  0.00000000000E+00 0.  1.
          5    1    3    3  503    0 -0.54499928125E+01 -0.55864047666E+02  0.46971077467E+03  0.47307588830E+03  0.47000000000E+01 0. -1.
         11    1    6    6    0    0 -0.35449562065E+02 -0.20310814133E+02  0.10409123427E+03  0.11182211621E+03  0.00000000000E+00 0. -1.
        -12    1    6    6    0    0 -0.60980256361E+02  0.59006730183E+02  0.12126077026E+03  0.14800189282E+03  0.00000000000E+00 0.  1.
         -5    1    5    5    0  501 -0.55096992007E+02  0.19740776589E+02  0.50004455832E+03  0.50347991727E+03  0.47000000000E+01 0.  1.
<mgrwt>
<rscale>  2 0.23723481E+03</rscale>
<asrwt>0</asrwt>
<pdfrwt beam="1">  1        2 0.33049652E+00 0.23723481E+03</pdfrwt>
<pdfrwt beam="2">  1       -2 0.44536826E-02 0.23723481E+03</pdfrwt>
<totfact> 0.14535381E+03</totfact>
</mgrwt>
</event>
<event>
12    1  0.5759937E-002  0.1892480E+03  0.7546771E-02  0.1159141E+00
         -2   -1    0    0    0  501 -0.00000000000E+00  0.00000000000E+00  0.23815294717E+02  0.23815294717E+02  0.00000000000E+00 0. -1.
          2   -1    0    0  503    0  0.00000000000E+00 -0.00000000000E+00 -0.15601253205E+04  0.15601253205E+04  0.00000000000E+00 0.  1.
          6    2    1    2  503    0  0.91311742030E+01 -0.73862738642E+02 -0.61505865570E+03  0.64331155487E+03  0.17324411731E+03 0.  0.
         24    2    3    3    0    0  0.33143125151E+02 -0.99569723258E+02 -0.57369189686E+03  0.58880722859E+03  0.80987427346E+02 0.  0.
         -6    2    1    2    0  501 -0.91311742030E+01  0.73862738642E+02 -0.92125137010E+03  0.94062906036E+03  0.17475657291E+03 0.  0.
        -24    2    5    5    0    0 -0.34571353451E+02  0.11118544642E+03 -0.74813029672E+03  0.76165089609E+03  0.82799545116E+02 0.  0.
          2    1    4    4  502    0 -0.26652438227E+02 -0.40649446837E+02 -0.20853753082E+03  0.21412760623E+03  0.00000000000E+00 0. -1.
         -1    1    4    4    0  502  0.59795563378E+02 -0.58920276421E+02 -0.36515436604E+03  0.37467962236E+03  0.00000000000E+00 0.  1.
          5    1    3    3  503    0 -0.24011950948E+02  0.25706984616E+02 -0.41366758840E+02  0.54504326280E+02  0.47000000000E+01 0. -1.
         11    1    6    6    0    0  0.20966902403E+02  0.58008483135E+02 -0.24322360389E+03  0.25092292961E+03  0.00000000000E+00 0. -1.
        -12    1    6    6    0    0 -0.55538255854E+02  0.53176963285E+02 -0.50490669283E+03  0.51072796648E+03  0.00000000000E+00 0.  1.
         -5    1    5    5    0  501  0.25440179248E+02 -0.37322707778E+02 -0.17312107338E+03  0.17897816427E+03  0.47000000000E+01 0.  1.
<mgrwt>
<rscale>  2 0.18924801E+03</rscale>
<asrwt>0</asrwt>
<pdfrwt beam="2">  1        2 0.24001931E+00 0.18924801E+03</pdfrwt>
<pdfrwt beam="1">  1       -2 0.36638910E-02 0.18924801E+03</pdfrwt>
<totfact> 0.39600036E+03</totfact>
</mgrwt>
</event>
<event>
12    1  0.5759937E-002  0.1864609E+03  0.7546771E-02  0.1161693E+00
         -2   -1    0    0    0  501 -0.00000000000E+00  0.00000000000E+00  0.76641401723E+03  0.76641401723E+03  0.00000000000E+00 0.  1.
          2   -1    0    0  503    0  0.00000000000E+00 -0.00000000000E+00 -0.45537953945E+02  0.45537953945E+02  0.00000000000E+00 0. -1.
          6    2    1    2  503    0 -0.44346674219E+01 -0.73607595246E+02  0.38134056110E+03  0.42362523110E+03  0.16911525221E+03 0.  0.
         24    2    3    3    0    0  0.33228804052E+02 -0.89499593975E+02  0.35151516808E+03  0.37280459773E+03  0.79410477651E+02 0.  0.
         -6    2    1    2    0  501  0.44346674219E+01  0.73607595246E+02  0.33953550218E+03  0.38832674007E+03  0.17342305343E+03 0.  0.
        -24    2    5    5    0    0  0.52187381329E+02  0.13907995613E+02  0.26144286628E+03  0.27894249228E+03  0.80867710256E+02 0.  0.
          2    1    4    4  502    0  0.32437861763E+02 -0.93897873815E+02  0.22201840877E+03  0.24323075344E+03  0.00000000000E+00 0. -1.
         -1    1    4    4    0  502  0.79094228918E+00  0.43982798399E+01  0.12949675931E+03  0.12957384430E+03  0.00000000000E+00 0.  1.
          5    1    3    3  503    0 -0.37663471474E+02  0.15891998728E+02  0.29825393024E+02  0.50820633370E+02  0.47000000000E+01 0. -1.
         11    1    6    6    0    0  0.10884991079E+02 -0.78534672549E+01  0.59205664000E-01  0.13422499172E+02  0.00000000000E+00 0. -1.
        -12    1    6    6    0    0  0.41302390251E+02  0.21761462868E+02  0.26138366061E+03  0.26551999311E+03  0.00000000000E+00 0.  1.
         -5    1    5    5    0  501 -0.47752713907E+02  0.59699599633E+02  0.78092635907E+02  0.10938424779E+03  0.47000000000E+01 0.  1.
<mgrwt>
<rscale>  2 0.18646093E+03</rscale>
<asrwt>0</asrwt>
<pdfrwt beam="2">  1        2 0.70058396E-02 0.18646093E+03</pdfrwt>
<pdfrwt beam="1">  1       -2 0.11790984E+00 0.18646093E+03</pdfrwt>
<totfact> 0.57917273E+02</totfact>
</mgrwt>
</event>
<event>
12    1  0.5759937E-002  0.1751736E+03  0.7546771E-02  0.1172558E+00
         -2   -1    0    0    0  501 -0.00000000000E+00  0.00000000000E+00  0.35873400492E+02  0.35873400492E+02  0.00000000000E+00 0. -1.
          2   -1    0    0  503    0  0.00000000000E+00 -0.00000000000E+00 -0.10121673040E+04  0.10121673040E+04  0.00000000000E+00 0.  1.
          6    2    1    2  503    0 -0.16825595762E+02 -0.23364238628E+02 -0.69365416734E+03  0.71535595128E+03  0.17247911424E+03 0.  0.
         24    2    3    3    0    0  0.20666696298E+02 -0.71142730074E+02 -0.52148861454E+03  0.53273195565E+03  0.79778199413E+02 0.  0.
         -6    2    1    2    0  501  0.16825595762E+02  0.23364238628E+02 -0.28263973615E+03  0.33268475319E+03  0.17310383079E+03 0.  0.
        -24    2    5    5    0    0  0.51312383785E+02 -0.30622862933E+01 -0.26954741522E+03  0.28706459718E+03  0.84308573537E+02 0.  0.
          2    1    4    4  502    0  0.21557752236E+02 -0.65916530533E+02 -0.20915237171E+03  0.22035072106E+03  0.00000000000E+00 0. -1.
         -1    1    4    4    0  502 -0.89105593778E+00 -0.52261995406E+01 -0.31233624282E+03  0.31238123459E+03  0.00000000000E+00 0.  1.
          5    1    3    3  503    0 -0.37492292061E+02  0.47778491446E+02 -0.17216555280E+03  0.18262399563E+03  0.47000000000E+01 0. -1.
         13    1    6    6    0    0 -0.22267124688E+02 -0.21018403091E+01 -0.37868626407E+02  0.43980398367E+02  0.00000000000E+00 0. -1.
        -14    1    6    6    0    0  0.73579508473E+02 -0.96044598421E+00 -0.23167878882E+03  0.24308419881E+03  0.00000000000E+00 0.  1.
         -5    1    5    5    0  501 -0.34486788022E+02  0.26426524921E+02 -0.13092320927E+02  0.45620156014E+02  0.47000000000E+01 0.  1.
<mgrwt>
<rscale>  2 0.17517360E+03</rscale>
<asrwt>0</asrwt>
<pdfrwt beam="2">  1        2 0.15571803E+00 0.17517360E+03</pdfrwt>
<pdfrwt beam="1">  1       -2 0.55189852E-02 0.17517360E+03</pdfrwt>
<totfact> 0.42870370E+03</totfact>
</mgrwt>
</event>
<event>
12    1  0.5759937E-002  0.2118965E+03  0.7546771E-02  0.1140073E+00
          1   -1    0    0  503    0  0.00000000000E+00  0.00000000000E+00  0.72179182260E+03  0.72179182260E+03  0.00000000000E+00 0.  1.
         -1   -1    0    0    0  501 -0.00000000000E+00 -0.00000000000E+00 -0.62567657655E+02  0.62567657655E+02  0.00000000000E+00 0. -1.
          6    2    1    2  503    0  0.11671435582E+03  0.39567624118E+02  0.29957124701E+03  0.36684571561E+03  0.17217726126E+03 0.  0.
         24    2    3    3    0    0  0.12514128921E+03  0.70522791336E+02  0.28898757249E+03  0.33273794890E+03  0.81036530174E+02 0.  0.
         -6    2    1    2    0  501 -0.11671435582E+03 -0.39567624118E+02  0.35965291794E+03  0.41751376464E+03  0.17256791287E+03 0.  0.
        -24    2    5    5    0    0 -0.98273123220E+02 -0.66421681476E+02  0.15612295174E+03  0.21133967171E+03  0.78870997587E+02 0.  0.
          4    1    4    4  502    0  0.86593574820E+02  0.52039140725E+02  0.11275430380E+03  0.15139369997E+03  0.00000000000E+00 0. -1.
         -3    1    4    4    0  502  0.38547714393E+02  0.18483650611E+02  0.17623326869E+03  0.18134424893E+03  0.00000000000E+00 0.  1.
          5    1    3    3  503    0 -0.84269333882E+01 -0.30955167218E+02  0.10583674521E+02  0.34107766713E+02  0.47000000000E+01 0. -1.
         11    1    6    6    0    0  0.13079838250E+02 -0.10934238758E+02  0.11485359645E+02  0.20556099631E+02  0.00000000000E+00 0. -1.
        -12    1    6    6    0    0 -0.11135296147E+03 -0.55487442718E+02  0.14463759209E+03  0.19078357208E+03  0.00000000000E+00 0.  1.
         -5    1    5    5    0  501 -0.18441232604E+02  0.26854057358E+02  0.20352996620E+03  0.20617409293E+03  0.47000000000E+01 0.  1.
<mgrwt>
<rscale>  2 0.21189652E+03</rscale>
<asrwt>0</asrwt>
<pdfrwt beam="1">  1        1 0.11104489E+00 0.21189652E+03</pdfrwt>
<pdfrwt beam="2">  1       -1 0.96257940E-02 0.21189652E+03</pdfrwt>
<totfact> 0.17366656E+03</totfact>
</mgrwt>
</event>
<event>
12    1  0.5759937E-002  0.1778656E+03  0.7546771E-02  0.1169885E+00
         -1   -1    0    0    0  501 -0.00000000000E+00  0.00000000000E+00  0.63951526552E+02  0.63951526552E+02  0.00000000000E+00 0.  1.
          1   -1    0    0  503    0  0.00000000000E+00 -0.00000000000E+00 -0.49470312390E+03  0.49470312390E+03  0.00000000000E+00 0. -1.
          6    2    1    2  503    0 -0.30448943995E+02  0.22396695425E+02 -0.21645642896E+03  0.28074512268E+03  0.17474463687E+03 0.  0.
         24    2    3    3    0    0 -0.48523436675E+02  0.20629511908E+02 -0.40291289477E+02  0.10358401918E+03  0.79537163354E+02 0.  0.
         -6    2    1    2    0  501  0.30448943995E+02 -0.22396695425E+02 -0.21429516839E+03  0.27790952777E+03  0.17286565962E+03 0.  0.
        -24    2    5    5    0    0  0.59384461188E+02  0.28644974149E+02 -0.99325288199E+02  0.14874808020E+03  0.88957460127E+02 0.  0.
          4    1    4    4  502    0 -0.62889614859E+02  0.23820804270E+02 -0.51812279001E+02  0.84894326245E+02  0.00000000000E+00 0. -1.
         -3    1    4    4    0  502  0.14366178184E+02 -0.31912923629E+01  0.11520989524E+02  0.18689692940E+02  0.00000000000E+00 0.  1.
          5    1    3    3  503    0  0.18074492679E+02  0.17671835174E+01 -0.17616513948E+03  0.17716110350E+03  0.47000000000E+01 0. -1.
         13    1    6    6    0    0  0.33913743519E+02 -0.28200208871E+02 -0.62140650737E+02  0.76202718153E+02  0.00000000000E+00 0. -1.
        -14    1    6    6    0    0  0.25470717669E+02  0.56845183020E+02 -0.37184637462E+02  0.72545362045E+02  0.00000000000E+00 0.  1.
         -5    1    5    5    0  501 -0.28935517193E+02 -0.51041669574E+02 -0.11496988019E+03  0.12916144757E+03  0.47000000000E+01 0.  1.
<mgrwt>
<rscale>  2 0.17786561E+03</rscale>
<asrwt>0</asrwt>
<pdfrwt beam="2">  1        1 0.76108170E-01 0.17786561E+03</pdfrwt>
<pdfrwt beam="1">  1       -1 0.98386968E-02 0.17786561E+03</pdfrwt>
<totfact> 0.28193400E+03</totfact>
</mgrwt>
</event>
<event>
12    1  0.5759937E-002  0.2014510E+03  0.7546771E-02  0.1148521E+00
          2   -1    0    0  503    0  0.00000000000E+00  0.00000000000E+00  0.77872897720E+03  0.77872897720E+03  0.00000000000E+00 0. -1.
         -2   -1    0    0    0  501 -0.00000000000E+00 -0.00000000000E+00 -0.53261759656E+02  0.53261759656E+02  0.00000000000E+00 0.  1.
          6    2    1    2  503    0 -0.13019252741E+02 -0.10273292756E+03  0.42385747507E+03  0.46930744372E+03  0.17283160073E+03 0.  0.
         24    2    3    3    0    0 -0.76127379912E+02 -0.66187452994E+02  0.27511477927E+03  0.30358271116E+03  0.79360971766E+02 0.  0.
         -6    2    1    2    0  501  0.13019252741E+02  0.10273292756E+03  0.30160974248E+03  0.36268329314E+03  0.17276336133E+03 0.  0.
        -24    2    5    5    0    0  0.64901754347E+02  0.25263213322E+02  0.13401856452E+03  0.17084418470E+03  0.79851688433E+02 0.  0.
          4    1    4    4  502    0 -0.28287761929E+02 -0.62777207388E+02  0.21999047529E+03  0.23051460791E+03  0.00000000000E+00 0. -1.
         -3    1    4    4    0  502 -0.47839617983E+02 -0.34102456065E+01  0.55124303981E+02  0.73068103255E+02  0.00000000000E+00 0.  1.
          5    1    3    3  503    0  0.63108127171E+02 -0.36545474568E+02  0.14874269580E+03  0.16572473255E+03  0.47000000000E+01 0. -1.
         11    1    6    6    0    0 -0.15612426132E+02  0.13129221541E+02  0.49237442026E+02  0.53295872310E+02  0.00000000000E+00 0. -1.
        -12    1    6    6    0    0  0.80514180479E+02  0.12133991781E+02  0.84781122498E+02  0.11754831239E+03  0.00000000000E+00 0.  1.
         -5    1    5    5    0  501 -0.51882501605E+02  0.77469714240E+02  0.16759117795E+03  0.19183910843E+03  0.47000000000E+01 0.  1.
<mgrwt>
<rscale>  2 0.20145105E+03</rscale>
<asrwt>0</asrwt>
<pdfrwt beam="1">  1        2 0.11980445E+00 0.20145105E+03</pdfrwt>
<pdfrwt beam="2">  1       -2 0.81941174E-02 0.20145105E+03</pdfrwt>
<totfact> 0.33106585E+03</totfact>
</mgrwt>
</event>
<event>
12    1  0.5759937E-002  0.2964826E+03  0.7546771E-02  0.1087012E+00
          2   -1    0    0  503    0  0.00000000000E+00  0.00000000000E+00  0.26354460558E+04  0.26354460558E+04  0.00000000000E+00 0. -1.
         -2   -1    0    0    0  501 -0.00000000000E+00 -0.00000000000E+00 -0.36841730449E+02  0.36841730449E+02  0.00000000000E+00 0.  1.
          6    2    1    2  503    0 -0.20838392587E+03 -0.11959879081E+03  0.17080160691E+04  0.17334539932E+04  0.17267345746E+03 0.  0.
         24    2    3    3    0    0 -0.16359855985E+03 -0.43116026153E+02  0.82928083162E+03  0.85024787349E+03  0.81186625687E+02 0.  0.
         -6    2    1    2    0  501  0.20838392587E+03  0.11959879081E+03  0.89058825629E+03  0.93883379308E+03  0.17473899816E+03 0.  0.
        -24    2    5    5    0    0  0.69121700763E+02  0.90637670424E+01  0.47716024568E+03  0.48877072109E+03  0.79717980073E+02 0.  0.
          4    1    4    4  502    0 -0.12472395958E+03 -0.59830680323E+02  0.71776166891E+03  0.73097030703E+03  0.00000000000E+00 0. -1.
         -3    1    4    4    0  502 -0.38874600265E+02  0.16714654170E+02  0.11151916271E+03  0.11927756646E+03  0.00000000000E+00 0.  1.
          5    1    3    3  503    0 -0.44785366023E+02 -0.76482764656E+02  0.87873523745E+03  0.88320611968E+03  0.47000000000E+01 0. -1.
         13    1    6    6    0    0 -0.10944695598E+02  0.12462807078E+02  0.18740567505E+03  0.18813823366E+03  0.00000000000E+00 0. -1.
        -14    1    6    6    0    0  0.80066396362E+02 -0.33990400359E+01  0.28975457063E+03  0.30063248743E+03  0.00000000000E+00 0.  1.
         -5    1    5    5    0  501  0.13926222511E+03  0.11053502377E+03  0.41342801061E+03  0.45006307200E+03  0.47000000000E+01 0.  1.
<mgrwt>
<rscale>  2 0.29648258E+03</rscale>
<asrwt>0</asrwt>
<pdfrwt beam="1">  1        2 0.40545309E+00 0.29648258E+03</pdfrwt>
<pdfrwt beam="2">  1       -2 0.56679606E-02 0.29648258E+03</pdfrwt>
<totfact> 0.54266542E+02</totfact>
</mgrwt>
</event>
<event>
12    1  0.5759937E-002  0.2009056E+03  0.7546771E-02  0.1148977E+00
          1   -1    0    0  503    0  0.00000000000E+00  0.00000000000E+00  0.53587492597E+03  0.53587492597E+03  0.00000000000E+00 0.  1.
         -1   -1    0    0    0  501 -0.00000000000E+00 -0.00000000000E+00 -0.75822656205E+02  0.75822656205E+02  0.00000000000E+00 0. -1.
          6    2    1    2  503    0 -0.10078468424E+03  0.10231463889E+02  0.25574410138E+03  0.32570383380E+03  0.17440099351E+03 0.  0.
         24    2    3    3    0    0 -0.79441363075E+02  0.42216630310E+02  0.78729482236E+02  0.14449993313E+03  0.81170963161E+02 0.  0.
         -6    2    1    2    0  501  0.10078468424E+03 -0.10231463889E+02  0.20430816839E+03  0.28599374837E+03  0.17259305028E+03 0.  0.
        -24    2    5    5    0    0  0.59597140446E+02 -0.10592167661E+01  0.21861966184E+03  0.24118914229E+03  0.82611771130E+02 0.  0.
          2    1    4    4  502    0 -0.23986088650E+02  0.10394051602E+02 -0.15675687334E+02  0.30481074962E+02  0.00000000000E+00 0. -1.
         -1    1    4    4    0  502 -0.55455274424E+02  0.31822578708E+02  0.94405169570E+02  0.11401885817E+03  0.00000000000E+00 0.  1.
          5    1    3    3  503    0 -0.21343321166E+02 -0.31985166421E+02  0.17701461914E+03  0.18120390067E+03  0.47000000000E+01 0. -1.
         13    1    6    6    0    0  0.49037655020E+02 -0.25683934336E+02  0.65572475366E+02  0.85814367203E+02  0.00000000000E+00 0. -1.
        -14    1    6    6    0    0  0.10559485427E+02  0.24624717570E+02  0.15304718647E+03  0.15537477509E+03  0.00000000000E+00 0.  1.
         -5    1    5    5    0  501  0.41187543794E+02 -0.91722471230E+01 -0.14311493447E+02  0.44804606077E+02  0.47000000000E+01 0.  1.
<mgrwt>
<rscale>  2 0.20090558E+03</rscale>
<asrwt>0</asrwt>
<pdfrwt beam="1">  1        1 0.82442294E-01 0.20090558E+03</pdfrwt>
<pdfrwt beam="2">  1       -1 0.11665024E-01 0.20090558E+03</pdfrwt>
<totfact> 0.19553785E+03</totfact>
</mgrwt>
</event>
<event>
12    1  0.5759937E-002  0.2452591E+03  0.7546771E-02  0.1116338E+00
         -3   -1    0    0    0  501 -0.00000000000E+00  0.00000000000E+00  0.37891142796E+03  0.37891142796E+03  0.00000000000E+00 0.  1.
          3   -1    0    0  503    0  0.00000000000E+00 -0.00000000000E+00 -0.20506665459E+03  0.20506665459E+03  0.00000000000E+00 0. -1.
          6    2    1    2  503    0  0.17092968821E+03  0.24832558116E+02 -0.51944817709E+02  0.25034411292E+03  0.17360960956E+03 0.  0.
         24    2    3    3    0    0  0.30700769441E+02 -0.35645582394E+02 -0.12466596462E+02  0.92539248948E+02  0.78708015984E+02 0.  0.
         -6    2    1    2    0  501 -0.17092968821E+03 -0.24832558116E+02  0.22578959109E+03  0.33363396963E+03  0.17463410891E+03 0.  0.
        -24    2    5    5    0    0 -0.17533273097E+03 -0.46371891980E+02  0.13381230584E+03  0.23894901470E+03  0.79366110639E+02 0.  0.
          4    1    4    4  502    0  0.42174205766E+02  0.78074800670E+01  0.71847842609E+01  0.43488406523E+02  0.00000000000E+00 0. -1.
         -3    1    4    4    0  502 -0.11473436325E+02 -0.43453062461E+02 -0.19651380723E+02  0.49050842426E+02  0.00000000000E+00 0.  1.
          5    1    3    3  503    0  0.14022891877E+03  0.60478140510E+02 -0.39478221247E+02  0.15780486397E+03  0.47000000000E+01 0. -1.
         11    1    6    6    0    0 -0.13961069468E+03 -0.16610046789E+01  0.10612176512E+03  0.17537312804E+03  0.00000000000E+00 0. -1.
        -12    1    6    6    0    0 -0.35722036296E+02 -0.44710887301E+02  0.27690540719E+02  0.63575886668E+02  0.00000000000E+00 0.  1.
         -5    1    5    5    0  501  0.44030427591E+01  0.21539333864E+02  0.91977285244E+02  0.94684954928E+02  0.47000000000E+01 0.  1.
<mgrwt>
<rscale>  2 0.24525912E+03</rscale>
<asrwt>0</asrwt>
<pdfrwt beam="2">  1        3 0.31548716E-01 0.24525912E+03</pdfrwt>
<pdfrwt beam="1">  1       -3 0.58294066E-01 0.24525912E+03</pdfrwt>
<totfact> 0.70853889E+01</totfact>
</mgrwt>
</event>
<event>
12    1  0.5759937E-002  0.1832379E+03  0.7546771E-02  0.1164706E+00
         -1   -1    0    0    0  501 -0.00000000000E+00  0.00000000000E+00  0.18905427760E+03  0.18905427760E+03  0.00000000000E+00 0. -1.
          1   -1    0    0  503    0  0.00000000000E+00 -0.00000000000E+00 -0.22372495430E+03  0.22372495430E+03  0.00000000000E+00 0.  1.
          6    2    1    2  503    0  0.46434516720E+02 -0.25398296855E+02 -0.11076481621E+03  0.21158020729E+03  0.17232556914E+03 0.  0.
         24    2    3    3    0    0  0.56437984892E+02 -0.71841533989E+02 -0.44972106849E+02  0.13029174405E+03  0.81283430225E+02 0.  0.
         -6    2    1    2    0  501 -0.46434516720E+02  0.25398296855E+02  0.76094139509E+02  0.20119902462E+03  0.17857629073E+03 0.  0.
        -24    2    5    5    0    0 -0.47628032945E+02  0.76001416699E+02  0.88043135406E+02  0.14897863854E+03  0.79989975539E+02 0.  0.
          4    1    4    4  502    0  0.71808946053E+02 -0.35768935194E+02 -0.16681386036E+02  0.81940283733E+02  0.00000000000E+00 0. -1.
         -3    1    4    4    0  502 -0.15370961161E+02 -0.36072598795E+02 -0.28290720814E+02  0.48351460319E+02  0.00000000000E+00 0.  1.
          5    1    3    3  503    0 -0.10003468172E+02  0.46443237133E+02 -0.65792709357E+02  0.81288463237E+02  0.47000000000E+01 0. -1.
         13    1    6    6    0    0  0.16586558753E+02  0.23841474807E+02  0.12454274745E+01  0.29070275916E+02  0.00000000000E+00 0. -1.
        -14    1    6    6    0    0 -0.64214591698E+02  0.52159941893E+02  0.86797707932E+02  0.11990836262E+03  0.00000000000E+00 0.  1.
         -5    1    5    5    0  501  0.11935162249E+01 -0.50603119844E+02 -0.11948995898E+02  0.52220386075E+02  0.47000000000E+01 0.  1.
<mgrwt>
<rscale>  2 0.18323790E+03</rscale>
<asrwt>0</asrwt>
<pdfrwt beam="2">  1        1 0.34419224E-01 0.18323790E+03</pdfrwt>
<pdfrwt beam="1">  1       -1 0.29085273E-01 0.18323790E+03</pdfrwt>
<totfact> 0.13592735E+03</totfact>
</mgrwt>
</event>
<event>
12    1  0.5759937E-002  0.2203871E+03  0.7546771E-02  0.1133595E+00
          2   -1    0    0  503    0  0.00000000000E+00  0.00000000000E+00  0.56515619338E+03  0.56515619338E+03  0.00000000000E+00 0. -1.
         -2   -1    0    0    0  501 -0.00000000000E+00 -0.00000000000E+00 -0.11187400517E+03  0.11187400517E+03  0.00000000000E+00 0.  1.
          6    2    1    2  503    0 -0.58965304905E+02 -0.12285231865E+03  0.38958551027E+03  0.44757965232E+03  0.17315044320E+03 0.  0.
         24    2    3    3    0    0 -0.82485092762E+02 -0.12797840599E+03  0.23888875411E+03  0.29490005476E+03  0.81950854370E+02 0.  0.
         -6    2    1    2    0  501  0.58965304905E+02  0.12285231865E+03  0.63696677939E+02  0.22945054623E+03  0.17326478870E+03 0.  0.
        -24    2    5    5    0    0  0.86130273169E+02  0.13544974059E+03  0.26588596150E+02  0.18153676664E+03  0.80520730343E+02 0.  0.
          4    1    4    4  502    0 -0.36095532401E+02 -0.11304008846E+03  0.13243043622E+03  0.17781667384E+03  0.00000000000E+00 0. -1.
         -3    1    4    4    0  502 -0.46389560360E+02 -0.14938317535E+02  0.10645831789E+03  0.11708338093E+03  0.00000000000E+00 0.  1.
          5    1    3    3  503    0  0.23519787857E+02  0.51260873445E+01  0.15069675617E+03  0.15267959756E+03  0.47000000000E+01 0. -1.
         11    1    6    6    0    0  0.15500295696E+02  0.24207899250E+01  0.26644886176E+02  0.30920371114E+02  0.00000000000E+00 0. -1.
        -12    1    6    6    0    0  0.70629977473E+02  0.13302895066E+03 -0.56290026218E-01  0.15061639552E+03  0.00000000000E+00 0.  1.
         -5    1    5    5    0  501 -0.27164968265E+02 -0.12597421939E+02  0.37108081789E+02  0.47913779588E+02  0.47000000000E+01 0.  1.
<mgrwt>
<rscale>  2 0.22038711E+03</rscale>
<asrwt>0</asrwt>
<pdfrwt beam="1">  1        2 0.86947105E-01 0.22038711E+03</pdfrwt>
<pdfrwt beam="2">  1       -2 0.17211386E-01 0.22038711E+03</pdfrwt>
<totfact> 0.14663723E+03</totfact>
</mgrwt>
</event>
<event>
12    1  0.5759937E-002  0.3448517E+03  0.7546771E-02  0.1064748E+00
          1   -1    0    0  503    0  0.00000000000E+00  0.00000000000E+00  0.87667719936E+03  0.87667719936E+03  0.00000000000E+00 0.  1.
         -1   -1    0    0    0  501 -0.00000000000E+00 -0.00000000000E+00 -0.14062944954E+03  0.14062944954E+03  0.00000000000E+00 0. -1.
          6    2    1    2  503    0  0.13193434152E+03  0.26456966333E+03  0.27056087035E+03  0.43695128695E+03  0.17412485573E+03 0.  0.
         24    2    3    3    0    0  0.13957589570E+03  0.18241572313E+03  0.13573775548E+03  0.27881518878E+03  0.80970639920E+02 0.  0.
         -6    2    1    2    0  501 -0.13193434152E+03 -0.26456966333E+03  0.46548687948E+03  0.58035536194E+03  0.18091582005E+03 0.  0.
        -24    2    5    5    0    0 -0.11069700597E+03 -0.23641823804E+03  0.47035259642E+03  0.54444864436E+03  0.83936589009E+02 0.  0.
          4    1    4    4  502    0  0.10522931210E+03  0.17583052496E+03  0.13175626597E+03  0.24361710788E+03  0.00000000000E+00 0. -1.
         -3    1    4    4    0  502  0.34346583605E+02  0.65851981682E+01  0.39814895069E+01  0.35198080898E+02  0.00000000000E+00 0.  1.
          5    1    3    3  503    0 -0.76415541869E+01  0.82153940204E+02  0.13482311487E+03  0.15813609817E+03  0.47000000000E+01 0. -1.
         13    1    6    6    0    0 -0.64498980788E+02 -0.17154312495E+03  0.24877373587E+03  0.30899115505E+03  0.00000000000E+00 0. -1.
        -14    1    6    6    0    0 -0.46198025184E+02 -0.64875113099E+02  0.22157886055E+03  0.23545748931E+03  0.00000000000E+00 0.  1.
         -5    1    5    5    0  501 -0.21237335545E+02 -0.28151425284E+02 -0.48657169389E+01  0.35906717587E+02  0.47000000000E+01 0.  1.
<mgrwt>
<rscale>  2 0.34485166E+03</rscale>
<asrwt>0</asrwt>
<pdfrwt beam="1">  1        1 0.13487341E+00 0.34485166E+03</pdfrwt>
<pdfrwt beam="2">  1       -1 0.21635300E-01 0.34485166E+03</pdfrwt>
<totfact> 0.35294486E+02</totfact>
</mgrwt>
</event>
<event>
12    1  0.5759937E-002  0.1932166E+03  0.7546771E-02  0.1155592E+00
          2   -1    0    0  503    0  0.00000000000E+00  0.00000000000E+00  0.30387484735E+04  0.30387484735E+04  0.00000000000E+00 0. -1.
         -2   -1    0    0    0  501 -0.00000000000E+00 -0.00000000000E+00 -0.12288640492E+02  0.12288640492E+02  0.00000000000E+00 0.  1.
          6    2    1    2  503    0 -0.80132579657E+02 -0.29549372658E+02  0.14851789689E+04  0.14976258532E+04  0.17272009310E+03 0.  0.
         24    2    3    3    0    0 -0.37305480119E+02 -0.23422568424E+02  0.35871347223E+03  0.37032008122E+03  0.80754515922E+02 0.  0.
         -6    2    1    2    0  501  0.80132579657E+02  0.29549372658E+02  0.15412808641E+04  0.15534112609E+04  0.17391218345E+03 0.  0.
        -24    2    5    5    0    0  0.11933028368E+03  0.34983632839E+02  0.13348797444E+04  0.13431982655E+04  0.82547424986E+02 0.  0.
          2    1    4    4  502    0  0.96456770590E+01 -0.14709103832E+02  0.26069947016E+03  0.26129219384E+03  0.00000000000E+00 0. -1.
         -1    1    4    4    0  502 -0.46951157178E+02 -0.87134645921E+01  0.98014002070E+02  0.10902788738E+03  0.00000000000E+00 0.  1.
          5    1    3    3  503    0 -0.42827099538E+02 -0.61268042346E+01  0.11264654967E+04  0.11273057719E+04  0.47000000000E+01 0. -1.
         11    1    6    6    0    0  0.11297488422E+03  0.28412808879E+02  0.81959674499E+03  0.82783418423E+03  0.00000000000E+00 0. -1.
        -12    1    6    6    0    0  0.63553994614E+01  0.65708239602E+01  0.51528299937E+03  0.51536408128E+03  0.00000000000E+00 0.  1.
         -5    1    5    5    0  501 -0.39197704024E+02 -0.54342601807E+01  0.20640111978E+03  0.21021299539E+03  0.47000000000E+01 0.  1.
<mgrwt>
<rscale>  2 0.19321662E+03</rscale>
<asrwt>0</asrwt>
<pdfrwt beam="1">  1        2 0.46749917E+00 0.19321662E+03</pdfrwt>
<pdfrwt beam="2">  1       -2 0.18905625E-02 0.19321662E+03</pdfrwt>
<totfact> 0.16807584E+03</totfact>
</mgrwt>
</event>
<event>
12    1  0.5759937E-002  0.2400972E+03  0.7546771E-02  0.1119728E+00
          2   -1    0    0  503    0  0.00000000000E+00  0.00000000000E+00  0.76995057170E+03  0.76995057170E+03  0.00000000000E+00 0.  1.
         -2   -1    0    0    0  501 -0.00000000000E+00 -0.00000000000E+00 -0.78778857258E+02  0.78778857258E+02  0.00000000000E+00 0. -1.
          6    2    1    2  503    0  0.11902510751E+03  0.11387620959E+03  0.43771057046E+03  0.49841655405E+03  0.17231874689E+03 0.  0.
         24    2    3    3    0    0  0.11521030392E+03  0.97371076159E+02  0.44694867492E+03  0.47855692842E+03  0.80616841432E+02 0.  0.
         -6    2    1    2    0  501 -0.11902510751E+03 -0.11387620959E+03  0.25346114399E+03  0.35031287491E+03  0.17703613047E+03 0.  0.
        -24    2    5    5    0    0 -0.74683130314E+02 -0.13160803585E+03  0.12241649068E+03  0.21075851359E+03  0.80840019838E+02 0.  0.
          2    1    4    4  502    0  0.12108834767E+03  0.87891261647E+02  0.34563232393E+03  0.37662841788E+03  0.00000000000E+00 0. -1.
         -1    1    4    4    0  502 -0.58780437426E+01  0.94798145127E+01  0.10131635099E+03  0.10192851053E+03  0.00000000000E+00 0.  1.
          5    1    3    3  503    0  0.38148035841E+01  0.16505133433E+02 -0.92381044621E+01  0.19859625628E+02  0.47000000000E+01 0. -1.
         11    1    6    6    0    0 -0.37060535900E+02 -0.25694857588E+01  0.26752197579E+02  0.45779533129E+02  0.00000000000E+00 0. -1.
        -12    1    6    6    0    0 -0.37622594414E+02 -0.12903855009E+03  0.95664293101E+02  0.16497898046E+03  0.00000000000E+00 0.  1.
         -5    1    5    5    0  501 -0.44341977193E+02  0.17731826257E+02  0.13104465331E+03  0.13955436132E+03  0.47000000000E+01 0.  1.
<mgrwt>
<rscale>  2 0.24009717E+03</rscale>
<asrwt>0</asrwt>
<pdfrwt beam="1">  1        2 0.11845393E+00 0.24009717E+03</pdfrwt>
<pdfrwt beam="2">  1       -2 0.12119825E-01 0.24009717E+03</pdfrwt>
<totfact> 0.18085809E+03</totfact>
</mgrwt>
</event>
<event>
12    1  0.5759937E-002  0.2127274E+03  0.7546771E-02  0.1139424E+00
          2   -1    0    0  503    0  0.00000000000E+00  0.00000000000E+00  0.10153237028E+04  0.10153237028E+04  0.00000000000E+00 0.  1.
         -2   -1    0    0    0  501 -0.00000000000E+00 -0.00000000000E+00 -0.56449377227E+02  0.56449377227E+02  0.00000000000E+00 0. -1.
          6    2    1    2  503    0  0.11395870464E+03  0.49331067405E+02  0.23411999434E+03  0.31652552752E+03  0.17307829802E+03 0.  0.
         24    2    3    3    0    0  0.72683665445E+01 -0.75616941904E+01  0.50163139190E+02  0.96339630781E+02  0.81578033529E+02 0.  0.
         -6    2    1    2    0  501 -0.11395870464E+03 -0.49331067405E+02  0.72475433124E+03  0.75524755251E+03  0.17236555443E+03 0.  0.
        -24    2    5    5    0    0 -0.51043636669E+02 -0.31964016657E+02  0.17242957092E+03  0.19905994829E+03  0.79156521403E+02 0.  0.
          4    1    4    4  502    0  0.22567811368E+02 -0.21447404116E+02 -0.10021965122E+02  0.32706834732E+02  0.00000000000E+00 0. -1.
         -3    1    4    4    0  502 -0.15299444824E+02  0.13885709926E+02  0.60185104312E+02  0.63632796049E+02  0.00000000000E+00 0.  1.
          5    1    3    3  503    0  0.10669033810E+03  0.56892761596E+02  0.18395685515E+03  0.22018589674E+03  0.47000000000E+01 0. -1.
         13    1    6    6    0    0 -0.16178620478E+02  0.24346513540E+02  0.81374616258E+02  0.86465765788E+02  0.00000000000E+00 0. -1.
        -14    1    6    6    0    0 -0.34865016191E+02 -0.56310530197E+02  0.91054954664E+02  0.11259418250E+03  0.00000000000E+00 0.  1.
         -5    1    5    5    0  501 -0.62915067974E+02 -0.17367050748E+02  0.55232476031E+03  0.55618760422E+03  0.47000000000E+01 0.  1.
<mgrwt>
<rscale>  2 0.21272744E+03</rscale>
<asrwt>0</asrwt>
<pdfrwt beam="1">  1        2 0.15620363E+00 0.21272744E+03</pdfrwt>
<pdfrwt beam="2">  1       -2 0.86845203E-02 0.21272744E+03</pdfrwt>
<totfact> 0.21282662E+03</totfact>
</mgrwt>
</event>
<event>
12    1  0.5759937E-002  0.1950971E+03  0.7546771E-02  0.1153943E+00
         -2   -1    0    0    0  501 -0.00000000000E+00  0.00000000000E+00  0.39857375966E+03  0.39857375966E+03  0.00000000000E+00 0. -1.
          2   -1    0    0  503    0  0.00000000000E+00 -0.00000000000E+00 -0.13498579170E+03  0.13498579170E+03  0.00000000000E+00 0.  1.
          6    2    1    2  503    0 -0.90577201898E+02 -0.63707910291E+00  0.27585741140E+03  0.33760210182E+03  0.17225920109E+03 0.  0.
         24    2    3    3    0    0 -0.11991048183E+03  0.11356454326E+01  0.27125767948E+03  0.30748846043E+03  0.81170261041E+02 0.  0.
         -6    2    1    2    0  501  0.90577201898E+02  0.63707910291E+00 -0.12269443430E+02  0.19595744954E+03  0.17333247651E+03 0.  0.
        -24    2    5    5    0    0 -0.18424457292E+02 -0.18940697098E+02 -0.89077808018E+01  0.85060913061E+02  0.80360436403E+02 0.  0.
          2    1    4    4  502    0 -0.38707049967E+02 -0.23367002007E+02  0.16738718273E+03  0.17338604743E+03  0.00000000000E+00 0. -1.
         -1    1    4    4    0  502 -0.81203431868E+02  0.24502647440E+02  0.10387049675E+03  0.13410241300E+03  0.00000000000E+00 0.  1.
          5    1    3    3  503    0  0.29333279937E+02 -0.17727245355E+01  0.45997319167E+01  0.30113641392E+02  0.47000000000E+01 0. -1.
         11    1    6    6    0    0 -0.54739061077E+01 -0.20311491743E+02  0.34132132705E+02  0.40093925075E+02  0.00000000000E+00 0. -1.
        -12    1    6    6    0    0 -0.12950551184E+02  0.13707946450E+01 -0.43039913507E+02  0.44966987987E+02  0.00000000000E+00 0.  1.
         -5    1    5    5    0  501  0.10900165919E+03  0.19577776201E+02 -0.33616626279E+01  0.11089653648E+03  0.47000000000E+01 0.  1.
<mgrwt>
<rscale>  2 0.19509709E+03</rscale>
<asrwt>0</asrwt>
<pdfrwt beam="2">  1        2 0.20767045E-01 0.19509709E+03</pdfrwt>
<pdfrwt beam="1">  1       -2 0.61319039E-01 0.19509709E+03</pdfrwt>
<totfact> 0.66957250E+02</totfact>
</mgrwt>
</event>
<event>
12    1  0.5759937E-002  0.2289344E+03  0.7546771E-02  0.1127392E+00
         -1   -1    0    0    0  501 -0.00000000000E+00  0.00000000000E+00  0.11885934337E+03  0.11885934337E+03  0.00000000000E+00 0.  1.
          1   -1    0    0  503    0  0.00000000000E+00 -0.00000000000E+00 -0.47848160571E+03  0.47848160571E+03  0.00000000000E+00 0. -1.
          6    2    1    2  503    0  0.12852682256E+03  0.77463620890E+02 -0.96406815174E+02  0.24871613606E+03  0.17333691369E+03 0.  0.
         24    2    3    3    0    0  0.14520272935E+03  0.10191840573E+03 -0.65107656646E+02  0.20538197294E+03  0.80445968316E+02 0.  0.
         -6    2    1    2    0  501 -0.12852682256E+03 -0.77463620890E+02 -0.26321544717E+03  0.34862481302E+03  0.17244457644E+03 0.  0.
        -24    2    5    5    0    0 -0.88447813160E+02 -0.11548967064E+03 -0.15454025048E+03  0.22662196129E+03  0.79460333771E+02 0.  0.
          4    1    4    4  502    0  0.72136103653E+02  0.94450983932E+02 -0.24112489266E+02  0.12126837162E+03  0.00000000000E+00 0. -1.
         -3    1    4    4    0  502  0.73066625697E+02  0.74674217936E+01 -0.40995167380E+02  0.84113601323E+02  0.00000000000E+00 0.  1.
          5    1    3    3  503    0 -0.16675906794E+02 -0.24454784836E+02 -0.31299158528E+02  0.43334163120E+02  0.47000000000E+01 0. -1.
         11    1    6    6    0    0 -0.53638794300E+02 -0.34488236864E+02 -0.11165190063E+03  0.12857956933E+03  0.00000000000E+00 0. -1.
        -12    1    6    6    0    0 -0.34809018860E+02 -0.81001433775E+02 -0.42888349854E+02  0.98042391958E+02  0.00000000000E+00 0.  1.
         -5    1    5    5    0  501 -0.40079009396E+02  0.38026049749E+02 -0.10867519669E+03  0.12200285173E+03  0.47000000000E+01 0.  1.
<mgrwt>
<rscale>  2 0.22893435E+03</rscale>
<asrwt>0</asrwt>
<pdfrwt beam="2">  1        1 0.73612556E-01 0.22893435E+03</pdfrwt>
<pdfrwt beam="1">  1       -1 0.18286052E-01 0.22893435E+03</pdfrwt>
<totfact> 0.11180525E+03</totfact>
</mgrwt>
</event>
<event>
12    1  0.5759937E-002  0.2008297E+03  0.7546771E-02  0.1149041E+00
          1   -1    0    0  503    0  0.00000000000E+00  0.00000000000E+00  0.23848099823E+03  0.23848099823E+03  0.00000000000E+00 0.  1.
         -1   -1    0    0    0  501 -0.00000000000E+00 -0.00000000000E+00 -0.19899448830E+03  0.19899448830E+03  0.00000000000E+00 0. -1.
          6    2    1    2  503    0 -0.10369481517E+03 -0.36502573887E+01  0.10443958857E+03  0.22583306788E+03  0.17125130019E+03 0.  0.
         24    2    3    3    0    0 -0.49538765267E+02  0.47790937111E+02  0.10416628774E+03  0.15099164268E+03  0.84910527755E+02 0.  0.
         -6    2    1    2    0  501  0.10369481517E+03  0.36502573887E+01 -0.64953078641E+02  0.21164241865E+03  0.17264898457E+03 0.  0.
        -24    2    5    5    0    0  0.29693449536E+02 -0.49567095048E+02  0.15202246468E+01  0.98730600107E+02  0.80042629003E+02 0.  0.
          2    1    4    4  502    0 -0.61530894179E+02  0.10449341020E+02  0.89514603740E+02  0.10912425921E+03  0.00000000000E+00 0. -1.
         -1    1    4    4    0  502  0.11992128911E+02  0.37341596091E+02  0.14651684004E+02  0.41867383470E+02  0.00000000000E+00 0.  1.
          5    1    3    3  503    0 -0.54156049901E+02 -0.51441194500E+02  0.27330082260E+00  0.74841425198E+02  0.47000000000E+01 0. -1.
         13    1    6    6    0    0  0.74595872637E+01  0.21823394183E+02  0.59778575138E+01  0.23825212617E+02  0.00000000000E+00 0. -1.
        -14    1    6    6    0    0  0.22233862272E+02 -0.71390489231E+02 -0.44576328670E+01  0.74905387490E+02  0.00000000000E+00 0.  1.
         -5    1    5    5    0  501  0.74001365632E+02  0.53217352437E+02 -0.66473303288E+02  0.11291181854E+03  0.47000000000E+01 0.  1.
<mgrwt>
<rscale>  2 0.20082969E+03</rscale>
<asrwt>0</asrwt>
<pdfrwt beam="1">  1        1 0.36689384E-01 0.20082969E+03</pdfrwt>
<pdfrwt beam="2">  1       -1 0.30614537E-01 0.20082969E+03</pdfrwt>
<totfact> 0.11525980E+03</totfact>
</mgrwt>
</event>
<event>
12    1  0.5759937E-002  0.1839531E+03  0.7546771E-02  0.1164031E+00
          1   -1    0    0  503    0  0.00000000000E+00  0.00000000000E+00  0.45483580313E+03  0.45483580313E+03  0.00000000000E+00 0. -1.
         -1   -1    0    0    0  501 -0.00000000000E+00 -0.00000000000E+00 -0.80217363545E+02  0.80217363545E+02  0.00000000000E+00 0.  1.
          6    2    1    2  503    0 -0.45477912109E+01  0.56990493064E+02  0.11629773792E+03  0.21855709243E+03  0.17599272741E+03 0.  0.
         24    2    3    3    0    0  0.38031613947E+02 -0.18631833420E+02  0.14856365862E+02  0.84974967986E+02  0.72155974816E+02 0.  0.
         -6    2    1    2    0  501  0.45477912109E+01 -0.56990493064E+02  0.25832070166E+03  0.31649607424E+03  0.17369968738E+03 0.  0.
        -24    2    5    5    0    0 -0.50806838381E+02 -0.44104333593E+02  0.86919661604E+02  0.13585666919E+03  0.79846602447E+02 0.  0.
          4    1    4    4  502    0  0.55774085708E+02  0.26697360771E+01  0.79123881835E+01  0.56395762377E+02  0.00000000000E+00 0. -1.
         -3    1    4    4    0  502 -0.17742471761E+02 -0.21301569498E+02  0.69439776786E+01  0.28579205609E+02  0.00000000000E+00 0.  1.
          5    1    3    3  503    0 -0.42579405158E+02  0.75622326485E+02  0.10144137206E+03  0.13358212445E+03  0.47000000000E+01 0. -1.
         11    1    6    6    0    0 -0.29311252992E+02 -0.48218328829E+02  0.96640967086E+02  0.11190904032E+03  0.00000000000E+00 0. -1.
        -12    1    6    6    0    0 -0.21495585389E+02  0.41139952356E+01 -0.97213054826E+01  0.23947628866E+02  0.00000000000E+00 0.  1.
         -5    1    5    5    0  501  0.55354629592E+02 -0.12886159471E+02  0.17140104006E+03  0.18063940505E+03  0.47000000000E+01 0.  1.
<mgrwt>
<rscale>  2 0.18395308E+03</rscale>
<asrwt>0</asrwt>
<pdfrwt beam="1">  1        1 0.69974737E-01 0.18395308E+03</pdfrwt>
<pdfrwt beam="2">  1       -1 0.12341133E-01 0.18395308E+03</pdfrwt>
<totfact> 0.22183999E+03</totfact>
</mgrwt>
</event>
<event>
12    1  0.5759937E-002  0.1855053E+03  0.7546771E-02  0.1162579E+00
         -2   -1    0    0    0  501 -0.00000000000E+00  0.00000000000E+00  0.24795859628E+03  0.24795859628E+03  0.00000000000E+00 0.  1.
          2   -1    0    0  503    0  0.00000000000E+00 -0.00000000000E+00 -0.13980947014E+03  0.13980947014E+03  0.00000000000E+00 0. -1.
          6    2    1    2  503    0 -0.11865822636E+02 -0.72913502971E+02  0.36852396255E+02  0.18579322891E+03  0.16644472998E+03 0.  0.
         24    2    3    3    0    0  0.41411375338E+02 -0.73822581870E+02  0.49695440377E+02  0.13078122994E+03  0.86425793080E+02 0.  0.
         -6    2    1    2    0  501  0.11865822636E+02  0.72913502971E+02  0.71296729890E+02  0.20197483751E+03  0.17393514490E+03 0.  0.
        -24    2    5    5    0    0 -0.17362783545E+02  0.16930795924E+02 -0.24243059858E+02  0.87352342627E+02  0.80340448768E+02 0.  0.
          2    1    4    4  502    0  0.35824911340E+02 -0.67964697719E+02 -0.35630411536E+01  0.76911115391E+02  0.00000000000E+00 0. -1.
         -1    1    4    4    0  502  0.55864639984E+01 -0.58578841509E+01  0.53258481530E+02  0.53870114550E+02  0.00000000000E+00 0.  1.
          5    1    3    3  503    0 -0.53277197974E+02  0.90907889831E+00 -0.12843044121E+02  0.55011998971E+02  0.47000000000E+01 0. -1.
         13    1    6    6    0    0  0.15966209244E+01  0.38179754882E+02  0.13094274162E+02  0.40394342389E+02  0.00000000000E+00 0. -1.
        -14    1    6    6    0    0 -0.18959404469E+02 -0.21248958958E+02 -0.37337334020E+02  0.46958000238E+02  0.00000000000E+00 0.  1.
         -5    1    5    5    0  501  0.29228606181E+02  0.55982707047E+02  0.95539789748E+02  0.11462249488E+03  0.47000000000E+01 0.  1.
<mgrwt>
<rscale>  2 0.18550529E+03</rscale>
<asrwt>0</asrwt>
<pdfrwt beam="2">  1        2 0.21509149E-01 0.18550529E+03</pdfrwt>
<pdfrwt beam="1">  1       -2 0.38147476E-01 0.18550529E+03</pdfrwt>
<totfact> 0.16434761E+03</totfact>
</mgrwt>
</event>
<event>
12    1  0.5759937E-002  0.2765212E+03  0.7546771E-02  0.1097604E+00
          2   -1    0    0  503    0  0.00000000000E+00  0.00000000000E+00  0.15661689063E+04  0.15661689063E+04  0.00000000000E+00 0. -1.
         -2   -1    0    0    0  501 -0.00000000000E+00 -0.00000000000E+00 -0.51537756337E+02  0.51537756337E+02  0.00000000000E+00 0.  1.
          6    2    1    2  503    0 -0.16269357935E+03 -0.14295100223E+03  0.94270663562E+03  0.98239585628E+03  0.17176037900E+03 0.  0.
         24    2    3    3    0    0 -0.84168484604E+02 -0.19935938055E+02  0.30814149411E+03  0.33124771235E+03  0.85393741695E+02 0.  0.
         -6    2    1    2    0  501  0.16269357935E+03  0.14295100223E+03  0.57192451430E+03  0.63531080632E+03  0.17209875293E+03 0.  0.
        -24    2    5    5    0    0  0.56505675127E+02  0.13337092612E+03  0.29047492518E+03  0.33430647067E+03  0.80027738424E+02 0.  0.
          4    1    4    4  502    0 -0.62108842903E+02  0.13104841547E+02  0.26543605399E+03  0.27292039864E+03  0.00000000000E+00 0. -1.
         -3    1    4    4    0  502 -0.22059641702E+02 -0.33040779602E+02  0.42705440120E+02  0.58327313710E+02  0.00000000000E+00 0.  1.
          5    1    3    3  503    0 -0.78525094749E+02 -0.12301506417E+03  0.63456514152E+03  0.65114814393E+03  0.47000000000E+01 0. -1.
         13    1    6    6    0    0 -0.19420689223E+02  0.16553398919E+02  0.35061069279E+02  0.43364233703E+02  0.00000000000E+00 0. -1.
        -14    1    6    6    0    0  0.75926364349E+02  0.11681752720E+03  0.25541385590E+03  0.29094223697E+03  0.00000000000E+00 0.  1.
         -5    1    5    5    0  501  0.10618790423E+03  0.95800761127E+01  0.28144958912E+03  0.30100433565E+03  0.47000000000E+01 0.  1.
<mgrwt>
<rscale>  2 0.27652120E+03</rscale>
<asrwt>0</asrwt>
<pdfrwt beam="1">  1        2 0.24094903E+00 0.27652120E+03</pdfrwt>
<pdfrwt beam="2">  1       -2 0.79288868E-02 0.27652120E+03</pdfrwt>
<totfact> 0.12067313E+03</totfact>
</mgrwt>
</event>
<event>
12    1  0.5759937E-002  0.1890783E+03  0.7546771E-02  0.1159295E+00
          2   -1    0    0  503    0  0.00000000000E+00  0.00000000000E+00  0.38440999809E+03  0.38440999809E+03  0.00000000000E+00 0. -1.
         -2   -1    0    0    0  501 -0.00000000000E+00 -0.00000000000E+00 -0.95231177227E+02  0.95231177227E+02  0.00000000000E+00 0.  1.
          6    2    1    2  503    0  0.68342283775E+02  0.36975771700E+02  0.10785964953E+03  0.21764239925E+03  0.17232711484E+03 0.  0.
         24    2    3    3    0    0  0.79720653426E+02  0.53787887734E+02  0.13477278843E+03  0.18360533730E+03  0.79364324063E+02 0.  0.
         -6    2    1    2    0  501 -0.68342283775E+02 -0.36975771700E+02  0.18131917133E+03  0.26199877606E+03  0.17242053626E+03 0.  0.
        -24    2    5    5    0    0 -0.10080222529E+03  0.13129016874E+02  0.12147005858E+03  0.17733388406E+03  0.79742533175E+02 0.  0.
          2    1    4    4  502    0  0.59593542221E+02  0.51633155746E+02  0.14174129544E+03  0.16219731157E+03  0.00000000000E+00 0. -1.
         -1    1    4    4    0  502  0.20127111205E+02  0.21547319880E+01 -0.69685070179E+01  0.21408025725E+02  0.00000000000E+00 0.  1.
          5    1    3    3  503    0 -0.11378369651E+02 -0.16812116034E+02 -0.26913138893E+02  0.34037061955E+02  0.47000000000E+01 0.  1.
         11    1    6    6    0    0 -0.36525760310E+01  0.99130831251E+01  0.63044150918E+02  0.63923199965E+02  0.00000000000E+00 0. -1.
        -12    1    6    6    0    0 -0.97149649259E+02  0.32159337485E+01  0.58425907662E+02  0.11341068410E+03  0.00000000000E+00 0.  1.
         -5    1    5    5    0  501  0.32459941515E+02 -0.50104788573E+02  0.59849112745E+02  0.84664892001E+02  0.47000000000E+01 0.  1.
<mgrwt>
<rscale>  2 0.18907832E+03</rscale>
<asrwt>0</asrwt>
<pdfrwt beam="1">  1        2 0.59139999E-01 0.18907832E+03</pdfrwt>
<pdfrwt beam="2">  1       -2 0.14650950E-01 0.18907832E+03</pdfrwt>
<totfact> 0.29222710E+03</totfact>
</mgrwt>
</event>
<event>
12    1  0.5759937E-002  0.1769620E+03  0.7546771E-02  0.1170776E+00
          2   -1    0    0  503    0  0.00000000000E+00  0.00000000000E+00  0.12194408783E+03  0.12194408783E+03  0.00000000000E+00 0. -1.
         -2   -1    0    0    0  501 -0.00000000000E+00 -0.00000000000E+00 -0.25956333005E+03  0.25956333005E+03  0.00000000000E+00 0.  1.
          6    2    1    2  503    0  0.17485683757E+02 -0.19025825790E+02 -0.89094764153E+02  0.19979295384E+03  0.17695088647E+03 0.  0.
         24    2    3    3    0    0  0.18758445913E+02 -0.65343213287E+02 -0.10894295660E+03  0.14916725828E+03  0.75899198508E+02 0.  0.
         -6    2    1    2    0  501 -0.17485683757E+02  0.19025825790E+02 -0.48524478065E+02  0.18171446403E+03  0.17319870174E+03 0.  0.
        -24    2    5    5    0    0 -0.68851078954E+02  0.14466195260E+02 -0.67283510218E+02  0.12664010210E+03  0.80999400214E+02 0.  0.
          2    1    4    4  502    0  0.22680404030E+02  0.64580192752E+01 -0.53170140373E+02  0.58165028731E+02  0.00000000000E+00 0. -1.
         -1    1    4    4    0  502 -0.39219581167E+01 -0.71801232563E+02 -0.55772816225E+02  0.91002229547E+02  0.00000000000E+00 0.  1.
          5    1    3    3  503    0 -0.12727621565E+01  0.46317387497E+02  0.19848192445E+02  0.50625695565E+02  0.47000000000E+01 0. -1.
         11    1    6    6    0    0 -0.83361877932E+01  0.32079763716E+02  0.17145010014E+01  0.33189498048E+02  0.00000000000E+00 0. -1.
        -12    1    6    6    0    0 -0.60514891161E+02 -0.17613568456E+02 -0.68998011219E+02  0.93450604055E+02  0.00000000000E+00 0.  1.
         -5    1    5    5    0  501  0.51365395198E+02  0.45596305299E+01  0.18759032153E+02  0.55074361927E+02  0.47000000000E+01 0.  1.
<mgrwt>
<rscale>  2 0.17696199E+03</rscale>
<asrwt>0</asrwt>
<pdfrwt beam="1">  1        2 0.18760629E-01 0.17696199E+03</pdfrwt>
<pdfrwt beam="2">  1       -2 0.39932820E-01 0.17696199E+03</pdfrwt>
<totfact> 0.17581038E+03</totfact>
</mgrwt>
</event>
<event>
12    1  0.5759937E-002  0.1870619E+03  0.7546771E-02  0.1161138E+00
         -2   -1    0    0    0  501 -0.00000000000E+00  0.00000000000E+00  0.56583635293E+02  0.56583635293E+02  0.00000000000E+00 0. -1.
          2   -1    0    0  503    0  0.00000000000E+00 -0.00000000000E+00 -0.24150534135E+04  0.24150534135E+04  0.00000000000E+00 0.  1.
          6    2    1    2  503    0 -0.16817890110E+01  0.71921511659E+02 -0.11369980581E+03  0.21910579309E+03  0.17292822346E+03 0.  0.
         24    2    3    3    0    0 -0.27377420395E+02  0.10475562322E+03 -0.52948656501E+02  0.14527398086E+03  0.81103055105E+02 0.  0.
         -6    2    1    2    0  501  0.16817890110E+01 -0.71921511659E+02 -0.22447699724E+04  0.22525312557E+04  0.17242185679E+03 0.  0.
        -24    2    5    5    0    0 -0.13028658471E+02 -0.11083542407E+03 -0.14228331909E+04  0.14295289151E+04  0.81513145218E+02 0.  0.
          2    1    4    4  502    0  0.21205577605E+02  0.17148795528E+02  0.74849960014E+01  0.28280432719E+02  0.00000000000E+00 0. -1.
         -1    1    4    4    0  502 -0.48582998000E+02  0.87606827690E+02 -0.60433652502E+02  0.11699354814E+03  0.00000000000E+00 0.  1.
          5    1    3    3  503    0  0.25695631384E+02 -0.32834111559E+02 -0.60751149313E+02  0.73831812228E+02  0.47000000000E+01 0. -1.
         11    1    6    6    0    0 -0.39897688379E+02 -0.59118321913E+02 -0.52733851000E+03  0.53213974259E+03  0.00000000000E+00 0. -1.
        -12    1    6    6    0    0  0.26869029908E+02 -0.51717102157E+02 -0.89549468088E+03  0.89738917249E+03  0.00000000000E+00 0.  1.
         -5    1    5    5    0  501  0.14710447482E+02  0.38913912411E+02 -0.82193678151E+03  0.82300234061E+03  0.47000000000E+01 0.  1.
<mgrwt>
<rscale>  2 0.18706191E+03</rscale>
<asrwt>0</asrwt>
<pdfrwt beam="2">  1        2 0.37154660E+00 0.18706191E+03</pdfrwt>
<pdfrwt beam="1">  1       -2 0.87051765E-02 0.18706191E+03</pdfrwt>
<totfact> 0.37834375E+02</totfact>
</mgrwt>
</event>
<event>
12    1  0.5759937E-002  0.4151358E+03  0.7546771E-02  0.1038661E+00
          2   -1    0    0  503    0  0.00000000000E+00  0.00000000000E+00  0.15996534172E+04  0.15996534172E+04  0.00000000000E+00 0.  1.
         -2   -1    0    0    0  501 -0.00000000000E+00 -0.00000000000E+00 -0.11821231247E+03  0.11821231247E+03  0.00000000000E+00 0. -1.
          6    2    1    2  503    0  0.16409781915E+03 -0.33962072072E+03  0.48485805431E+03  0.63824161654E+03  0.17318978048E+03 0.  0.
         24    2    3    3    0    0  0.96368766639E+02 -0.15380512349E+03  0.33738430007E+03  0.39149223171E+03  0.80591850421E+02 0.  0.
         -6    2    1    2    0  501 -0.16409781915E+03  0.33962072072E+03  0.99658305038E+03  0.10796241131E+04  0.17360910420E+03 0.  0.
        -24    2    5    5    0    0 -0.71335341757E+02  0.94576038168E+02  0.47085401543E+03  0.49220187836E+03  0.80782592417E+02 0.  0.
          4    1    4    4  502    0  0.97290555981E+02 -0.10401274751E+03  0.20135400141E+03  0.24663239409E+03  0.00000000000E+00 0. -1.
         -3    1    4    4    0  502 -0.92178934175E+00 -0.49792375976E+02  0.13603029866E+03  0.14485983762E+03  0.00000000000E+00 0.  1.
          5    1    3    3  503    0  0.67729052511E+02 -0.18581559723E+03  0.14747375424E+03  0.24674938484E+03  0.47000000000E+01 0. -1.
         13    1    6    6    0    0 -0.54125757934E+02  0.45179231846E+02  0.13502745356E+03  0.15232588053E+03  0.00000000000E+00 0. -1.
        -14    1    6    6    0    0 -0.17209583823E+02  0.49396806321E+02  0.33582656186E+03  0.33987599783E+03  0.00000000000E+00 0.  1.
         -5    1    5    5    0  501 -0.92762477393E+02  0.24504468256E+03  0.52572903495E+03  0.58742223473E+03  0.47000000000E+01 0.  1.
<mgrwt>
<rscale>  2 0.41513579E+03</rscale>
<asrwt>0</asrwt>
<pdfrwt beam="1">  1        2 0.24610051E+00 0.41513579E+03</pdfrwt>
<pdfrwt beam="2">  1       -2 0.18186511E-01 0.41513579E+03</pdfrwt>
<totfact> 0.29415709E+02</totfact>
</mgrwt>
</event>
<event>
12    1  0.5759937E-002  0.2708194E+03  0.7546771E-02  0.1100812E+00
         -3   -1    0    0    0  501 -0.00000000000E+00  0.00000000000E+00  0.25417345040E+03  0.25417345040E+03  0.00000000000E+00 0. -1.
          3   -1    0    0  503    0  0.00000000000E+00 -0.00000000000E+00 -0.40959488946E+03  0.40959488946E+03  0.00000000000E+00 0.  1.
          6    2    1    2  503    0  0.19087195137E+03  0.87447139330E+02  0.10302449681E+03  0.28823114321E+03  0.16847563911E+03 0.  0.
         24    2    3    3    0    0  0.45683249203E+02  0.54757977924E+02  0.15253661929E+01  0.10802985568E+03  0.81134009956E+02 0.  0.
         -6    2    1    2    0  501 -0.19087195137E+03 -0.87447139330E+02 -0.25844593586E+03  0.37553719665E+03  0.17365131818E+03 0.  0.
        -24    2    5    5    0    0 -0.14640241391E+03 -0.56068449193E+02 -0.26716198743E+03  0.32021792775E+03  0.81158215406E+02 0.  0.
          2    1    4    4  502    0 -0.23071659720E+02  0.73400468232E+01  0.36356399064E+01  0.24482558019E+02  0.00000000000E+00 0. -1.
         -1    1    4    4    0  502  0.68754908923E+02  0.47417931101E+02 -0.21102737135E+01  0.83547297658E+02  0.00000000000E+00 0.  1.
          5    1    3    3  503    0  0.14518870217E+03  0.32689161406E+02  0.10149913062E+03  0.18020128753E+03  0.47000000000E+01 0. -1.
         11    1    6    6    0    0 -0.53122024265E+02  0.16724835208E+02 -0.11206232414E+03  0.12513845958E+03  0.00000000000E+00 0. -1.
        -12    1    6    6    0    0 -0.93280389647E+02 -0.72793284401E+02 -0.15509966330E+03  0.19507946817E+03  0.00000000000E+00 0.  1.
         -5    1    5    5    0  501 -0.44469537462E+02 -0.31378690137E+02  0.87160515715E+01  0.55319268902E+02  0.47000000000E+01 0.  1.
<mgrwt>
<rscale>  2 0.27081944E+03</rscale>
<asrwt>0</asrwt>
<pdfrwt beam="2">  1        3 0.63014598E-01 0.27081944E+03</pdfrwt>
<pdfrwt beam="1">  1       -3 0.39103608E-01 0.27081944E+03</pdfrwt>
<totfact> 0.40206814E+01</totfact>
</mgrwt>
</event>
<event>
12    1  0.5759937E-002  0.2496869E+03  0.7546771E-02  0.1113503E+00
         -1   -1    0    0    0  501 -0.00000000000E+00  0.00000000000E+00  0.64871307522E+02  0.64871307522E+02  0.00000000000E+00 0. -1.
          1   -1    0    0  503    0  0.00000000000E+00 -0.00000000000E+00 -0.97954692854E+03  0.97954692854E+03  0.00000000000E+00 0.  1.
          6    2    1    2  503    0 -0.17653832034E+03 -0.36846770459E+02 -0.52954852172E+03  0.58556189850E+03  0.17302496085E+03 0.  0.
         24    2    3    3    0    0 -0.10682503713E+03 -0.15096965859E+02 -0.47648941075E+03  0.49517188184E+03  0.80706425198E+02 0.  0.
         -6    2    1    2    0  501  0.17653832034E+03  0.36846770459E+02 -0.38512709930E+03  0.45885633756E+03  0.17234498214E+03 0.  0.
        -24    2    5    5    0    0  0.12054880166E+03  0.75107987398E+02 -0.34005131113E+03  0.37729247545E+03  0.80879505934E+02 0.  0.
          2    1    4    4  502    0 -0.76730985368E+01 -0.13088844321E+02 -0.21457363481E+03  0.21510936530E+03  0.00000000000E+00 0. -1.
         -1    1    4    4    0  502 -0.99151938595E+02 -0.20081215376E+01 -0.26191577594E+03  0.28006251653E+03  0.00000000000E+00 0.  1.
          5    1    3    3  503    0 -0.69713283206E+02 -0.21749804600E+02 -0.53059110974E+02  0.90390016666E+02  0.47000000000E+01 0. -1.
         11    1    6    6    0    0  0.71619553634E+02  0.41026395484E+02 -0.98596994923E+02  0.12858418642E+03  0.00000000000E+00 0. -1.
        -12    1    6    6    0    0  0.48929248025E+02  0.34081591914E+02 -0.24145431620E+03  0.24870828903E+03  0.00000000000E+00 0.  1.
         -5    1    5    5    0  501  0.55989518679E+02 -0.38261216939E+02 -0.45075788170E+02  0.81563862113E+02  0.47000000000E+01 0.  1.
<mgrwt>
<rscale>  2 0.24968694E+03</rscale>
<asrwt>0</asrwt>
<pdfrwt beam="2">  1        1 0.15069953E+00 0.24968694E+03</pdfrwt>
<pdfrwt beam="1">  1       -1 0.99802011E-02 0.24968694E+03</pdfrwt>
<totfact> 0.10153668E+03</totfact>
</mgrwt>
</event>
<event>
12    1  0.5759937E-002  0.2287728E+03  0.7546771E-02  0.1127507E+00
         -1   -1    0    0    0  501 -0.00000000000E+00  0.00000000000E+00  0.99770647808E+02  0.99770647808E+02  0.00000000000E+00 0. -1.
          1   -1    0    0  503    0  0.00000000000E+00 -0.00000000000E+00 -0.55988342579E+03  0.55988342579E+03  0.00000000000E+00 0.  1.
          6    2    1    2  503    0 -0.41924914758E+02  0.14365315409E+03 -0.14689985118E+03  0.27158341860E+03  0.17258058937E+03 0.  0.
         24    2    3    3    0    0 -0.44933911146E+02  0.10311353390E+03 -0.17425012090E+03  0.22236307608E+03  0.80192117593E+02 0.  0.
         -6    2    1    2    0  501  0.41924914758E+02 -0.14365315409E+03 -0.31321292681E+03  0.38807065500E+03  0.17350091814E+03 0.  0.
        -24    2    5    5    0    0 -0.30606744163E+02 -0.48599239673E+02 -0.20196445766E+03  0.22468644499E+03  0.79973104992E+02 0.  0.
          4    1    4    4  502    0  0.15619609074E+02  0.64056295755E+02 -0.78119807534E+02  0.10222468167E+03  0.00000000000E+00 0. -1.
         -3    1    4    4    0  502 -0.60553520220E+02  0.39057238150E+02 -0.96130313369E+02  0.12013839441E+03  0.00000000000E+00 0.  1.
          5    1    3    3  503    0  0.30089963880E+01  0.40539620183E+02  0.27350269724E+02  0.49220342521E+02  0.47000000000E+01 0. -1.
         11    1    6    6    0    0 -0.27248675325E+02 -0.59349805813E+02 -0.85049073373E+02  0.10722982159E+03  0.00000000000E+00 0. -1.
        -12    1    6    6    0    0 -0.33580688377E+01  0.10750566140E+02 -0.11691538428E+03  0.11745662340E+03  0.00000000000E+00 0.  1.
         -5    1    5    5    0  501  0.72531658921E+02 -0.95053914415E+02 -0.11124846915E+03  0.16338421001E+03  0.47000000000E+01 0.  1.
<mgrwt>
<rscale>  2 0.22877281E+03</rscale>
<asrwt>0</asrwt>
<pdfrwt beam="2">  1        1 0.86135914E-01 0.22877281E+03</pdfrwt>
<pdfrwt beam="1">  1       -1 0.15349330E-01 0.22877281E+03</pdfrwt>
<totfact> 0.11992223E+03</totfact>
</mgrwt>
</event>
<event>
12    1  0.5759937E-002  0.2275248E+03  0.7546771E-02  0.1128394E+00
         -1   -1    0    0    0  501 -0.00000000000E+00  0.00000000000E+00  0.75490597077E+03  0.75490597077E+03  0.00000000000E+00 0. -1.
          1   -1    0    0  503    0  0.00000000000E+00 -0.00000000000E+00 -0.14064705267E+03  0.14064705267E+03  0.00000000000E+00 0.  1.
          6    2    1    2  503    0  0.65354009831E+02  0.13109538179E+03  0.62855986100E+03  0.66894042465E+03  0.17588816660E+03 0.  0.
         24    2    3    3    0    0  0.13468307340E+02  0.52002331086E+02  0.50191139312E+03  0.51079567700E+03  0.78176335067E+02 0.  0.
         -6    2    1    2    0  501 -0.65354009831E+02 -0.13109538179E+03 -0.14300942896E+02  0.22661259879E+03  0.17231252780E+03 0.  0.
        -24    2    5    5    0    0  0.11148572184E+02 -0.30192402697E+02 -0.42484238557E+02  0.96803337184E+02  0.80809057178E+02 0.  0.
          4    1    4    4  502    0 -0.15099322111E+02  0.55702983411E+02  0.42041883211E+03  0.42436164563E+03  0.00000000000E+00 0. -1.
         -3    1    4    4    0  502  0.28567629451E+02 -0.37006523248E+01  0.81492561002E+02  0.86434031369E+02  0.00000000000E+00 0.  1.
          5    1    3    3  503    0  0.51885702491E+02  0.79093050700E+02  0.12664846788E+03  0.15814474765E+03  0.47000000000E+01 0. -1.
         11    1    6    6    0    0  0.15352595207E+02  0.25827980703E+02 -0.88335246501E+01  0.31318012781E+02  0.00000000000E+00 0. -1.
        -12    1    6    6    0    0 -0.42040230224E+01 -0.56020383400E+02 -0.33650713907E+02  0.65485324404E+02  0.00000000000E+00 0.  1.
         -5    1    5    5    0  501 -0.76502582016E+02 -0.10090297909E+03  0.28183295661E+02  0.12980926161E+03  0.47000000000E+01 0.  1.
<mgrwt>
<rscale>  2 0.22752479E+03</rscale>
<asrwt>0</asrwt>
<pdfrwt beam="2">  1        1 0.21638009E-01 0.22752479E+03</pdfrwt>
<pdfrwt beam="1">  1       -1 0.11613938E+00 0.22752479E+03</pdfrwt>
<totfact> 0.16643669E+02</totfact>
</mgrwt>
</event>
<event>
12    1  0.5759937E-002  0.1779157E+03  0.7546771E-02  0.1169836E+00
          2   -1    0    0  503    0  0.00000000000E+00  0.00000000000E+00  0.12384698639E+03  0.12384698639E+03  0.00000000000E+00 0.  1.
         -2   -1    0    0    0  501 -0.00000000000E+00 -0.00000000000E+00 -0.26068099526E+03  0.26068099526E+03  0.00000000000E+00 0. -1.
          6    2    1    2  503    0 -0.16819254155E+01 -0.42115022825E+02 -0.95243241954E+02  0.20170444136E+03  0.17273361718E+03 0.  0.
         24    2    3    3    0    0  0.52179903997E+02 -0.21664890391E+02 -0.10632383659E+02  0.99233021317E+02  0.80882847876E+02 0.  0.
         -6    2    1    2    0  501  0.16819254155E+01  0.42115022825E+02 -0.41590766913E+02  0.18282354029E+03  0.17296864159E+03 0.  0.
        -24    2    5    5    0    0 -0.16946213047E+02  0.18925926140E+01 -0.86927484491E+02  0.11924398858E+03  0.79824715533E+02 0.  0.
          2    1    4    4  502    0 -0.46375843754E+01 -0.19791653671E+02  0.24938110641E+02  0.32173375735E+02  0.00000000000E+00 0. -1.
         -1    1    4    4    0  502  0.56817488372E+02 -0.18732367191E+01 -0.35570494300E+02  0.67059645581E+02  0.00000000000E+00 0.  1.
          5    1    3    3  503    0 -0.53861829413E+02 -0.20450132434E+02 -0.84610858295E+02  0.10247142004E+03  0.47000000000E+01 0. -1.
         11    1    6    6    0    0 -0.21514613953E+02  0.38619936116E+02 -0.53199954051E+02  0.69170898435E+02  0.00000000000E+00 0. -1.
        -12    1    6    6    0    0  0.45684009064E+01 -0.36727343502E+02 -0.33727530440E+02  0.50073090149E+02  0.00000000000E+00 0.  1.
         -5    1    5    5    0  501  0.18628138463E+02  0.40222430211E+02  0.45336717579E+02  0.63579551708E+02  0.47000000000E+01 0.  1.
<mgrwt>
<rscale>  2 0.17791572E+03</rscale>
<asrwt>0</asrwt>
<pdfrwt beam="1">  1        2 0.19053383E-01 0.17791572E+03</pdfrwt>
<pdfrwt beam="2">  1       -2 0.40104768E-01 0.17791572E+03</pdfrwt>
<totfact> 0.17134421E+03</totfact>
</mgrwt>
</event>
<event>
12    1  0.5759937E-002  0.1850413E+03  0.7546771E-02  0.1163011E+00
          1   -1    0    0  503    0  0.00000000000E+00  0.00000000000E+00  0.35674431435E+03  0.35674431435E+03  0.00000000000E+00 0.  1.
         -1   -1    0    0    0  501 -0.00000000000E+00 -0.00000000000E+00 -0.97983599931E+02  0.97983599931E+02  0.00000000000E+00 0. -1.
          6    2    1    2  503    0  0.36582133993E+02  0.45587298508E+02  0.95644806182E+02  0.20661380621E+03  0.17356520865E+03 0.  0.
         24    2    3    3    0    0  0.64179443097E+00 -0.40977343766E+02  0.46952544176E+02  0.10088693319E+03  0.79335220936E+02 0.  0.
         -6    2    1    2    0  501 -0.36582133993E+02 -0.45587298508E+02  0.16311590824E+03  0.24811410807E+03  0.17758760315E+03 0.  0.
        -24    2    5    5    0    0  0.50696820966E+02 -0.31481579552E+02  0.96796286264E+02  0.13749327123E+03  0.77289204231E+02 0.  0.
          2    1    4    4  502    0 -0.14697649364E+02 -0.61744494137E+02  0.32784906124E+02  0.71437059868E+02  0.00000000000E+00 0. -1.
         -1    1    4    4    0  502  0.15339443795E+02  0.20767150371E+02  0.14167638052E+02  0.29449873318E+02  0.00000000000E+00 0.  1.
          5    1    3    3  503    0  0.35940339562E+02  0.86564642274E+02  0.48692262006E+02  0.10572687302E+03  0.47000000000E+01 0. -1.
         13    1    6    6    0    0  0.47625381914E+01 -0.41571463432E+02  0.74499337334E+02  0.85446004033E+02  0.00000000000E+00 0. -1.
        -14    1    6    6    0    0  0.45934282774E+02  0.10089883880E+02  0.22296948929E+02  0.52047267193E+02  0.00000000000E+00 0.  1.
         -5    1    5    5    0  501 -0.87278954958E+02 -0.14105718956E+02  0.66319621972E+02  0.11062083685E+03  0.47000000000E+01 0.  1.
<mgrwt>
<rscale>  2 0.18504132E+03</rscale>
<asrwt>0</asrwt>
<pdfrwt beam="1">  1        1 0.54883740E-01 0.18504132E+03</pdfrwt>
<pdfrwt beam="2">  1       -1 0.15074400E-01 0.18504132E+03</pdfrwt>
<totfact> 0.22104209E+03</totfact>
</mgrwt>
</event>
<event>
12    1  0.5759937E-002  0.1809049E+03  0.7546771E-02  0.1166930E+00
         -2   -1    0    0    0  501 -0.00000000000E+00  0.00000000000E+00  0.22074972287E+02  0.22074972287E+02  0.00000000000E+00 0. -1.
          2   -1    0    0  503    0  0.00000000000E+00 -0.00000000000E+00 -0.20955124620E+04  0.20955124620E+04  0.00000000000E+00 0.  1.
          6    2    1    2  503    0  0.47835926917E+02 -0.20200533656E+02 -0.46287150054E+03  0.49686042618E+03  0.17298531621E+03 0.  0.
         24    2    3    3    0    0  0.78953272341E+02 -0.54787872687E+02 -0.39187308591E+03  0.41184608570E+03  0.82567261282E+02 0.  0.
         -6    2    1    2    0  501 -0.47835926917E+02  0.20200533656E+02 -0.16105659892E+04  0.16207270081E+04  0.17359980377E+03 0.  0.
        -24    2    5    5    0    0 -0.92440649219E+02 -0.18378396945E+02 -0.10367573507E+04  0.10438766300E+04  0.77003735806E+02 0.  0.
          4    1    4    4  502    0  0.47757259607E+02  0.62506379282E+01 -0.87810747478E+02  0.10015265195E+03  0.00000000000E+00 0. -1.
         -3    1    4    4    0  502  0.31196012734E+02 -0.61038510615E+02 -0.30406233844E+03  0.31169343375E+03  0.00000000000E+00 0.  1.
          5    1    3    3  503    0 -0.31117345424E+02  0.34587339030E+02 -0.70998414625E+02  0.85014340477E+02  0.47000000000E+01 0. -1.
         13    1    6    6    0    0 -0.29346964923E+02 -0.39701874416E+02 -0.29169819856E+03  0.29584678843E+03  0.00000000000E+00 0. -1.
        -14    1    6    6    0    0 -0.63093684296E+02  0.21323477471E+02 -0.74505915210E+03  0.74802984152E+03  0.00000000000E+00 0.  1.
         -5    1    5    5    0  501  0.44604722302E+02  0.38578930601E+02 -0.57380863855E+03  0.57685037818E+03  0.47000000000E+01 0.  1.
<mgrwt>
<rscale>  2 0.18090486E+03</rscale>
<asrwt>0</asrwt>
<pdfrwt beam="2">  1        2 0.32238665E+00 0.18090486E+03</pdfrwt>
<pdfrwt beam="1">  1       -2 0.33961484E-02 0.18090486E+03</pdfrwt>
<totfact> 0.23379714E+03</totfact>
</mgrwt>
</event>
<event>
12    1  0.5759937E-002  0.2442970E+03  0.7546771E-02  0.1116963E+00
          1   -1    0    0  503    0  0.00000000000E+00  0.00000000000E+00  0.24327662421E+03  0.24327662421E+03  0.00000000000E+00 0. -1.
         -1   -1    0    0    0  501 -0.00000000000E+00 -0.00000000000E+00 -0.33600898627E+03  0.33600898627E+03  0.00000000000E+00 0.  1.
          6    2    1    2  503    0 -0.16501753871E+03 -0.37469730217E+02 -0.19714491078E+03  0.31578565107E+03  0.17949844794E+03 0.  0.
         24    2    3    3    0    0 -0.58426240576E+02  0.41697415441E+02 -0.54221314024E+02  0.12064881114E+03  0.80398287871E+02 0.  0.
         -6    2    1    2    0  501  0.16501753871E+03  0.37469730217E+02  0.10441254872E+03  0.26349995941E+03  0.17290309283E+03 0.  0.
        -24    2    5    5    0    0  0.15065289020E+03 -0.25110028794E+02  0.51033874488E+02  0.17987016670E+03  0.80137467221E+02 0.  0.
          2    1    4    4  502    0 -0.45347375602E+02  0.27499185183E+02  0.96670808378E+01  0.53907718479E+02  0.00000000000E+00 0. -1.
         -1    1    4    4    0  502 -0.13078864975E+02  0.14198230259E+02 -0.63888394862E+02  0.66741092661E+02  0.00000000000E+00 0.  1.
          5    1    3    3  503    0 -0.10659129814E+03 -0.79167145658E+02 -0.14292359676E+03  0.19513683994E+03  0.47000000000E+01 0. -1.
         13    1    6    6    0    0  0.17642548183E+01 -0.15683798858E+02  0.23277134911E+02  0.28123284861E+02  0.00000000000E+00 0. -1.
        -14    1    6    6    0    0  0.14888863538E+03 -0.94262299356E+01  0.27756739576E+02  0.15174688184E+03  0.00000000000E+00 0.  1.
         -5    1    5    5    0  501  0.14364648513E+02  0.62579759011E+02  0.53378674232E+02  0.83629792703E+02  0.47000000000E+01 0.  1.
<mgrwt>
<rscale>  2 0.24429704E+03</rscale>
<asrwt>0</asrwt>
<pdfrwt beam="1">  1        1 0.37427173E-01 0.24429704E+03</pdfrwt>
<pdfrwt beam="2">  1       -1 0.51693690E-01 0.24429704E+03</pdfrwt>
<totfact> 0.44386014E+02</totfact>
</mgrwt>
</event>
<event>
12    1  0.5759937E-002  0.1840890E+03  0.7546771E-02  0.1163903E+00
          2   -1    0    0  503    0  0.00000000000E+00  0.00000000000E+00  0.10887906313E+03  0.10887906313E+03  0.00000000000E+00 0.  1.
         -2   -1    0    0    0  501 -0.00000000000E+00 -0.00000000000E+00 -0.31128679408E+03  0.31128679408E+03  0.00000000000E+00 0. -1.
          6    2    1    2  503    0  0.62397895670E+02  0.66234106320E+01 -0.98984681805E+02  0.20904855636E+03  0.17310680152E+03 0.  0.
         24    2    3    3    0    0  0.31887890957E+02 -0.33277323667E+02  0.57907126587E+01  0.92760542060E+02  0.80291767636E+02 0.  0.
         -6    2    1    2    0  501 -0.62397895670E+02 -0.66234106320E+01 -0.10342304914E+03  0.21111730084E+03  0.17302260161E+03 0.  0.
        -24    2    5    5    0    0 -0.10448481743E+03  0.93413307647E+01 -0.50540641545E+02  0.14151255255E+03  0.80418334651E+02 0.  0.
          4    1    4    4  502    0  0.50062675387E+02  0.47240128769E+01  0.34641104234E+00  0.50286258214E+02  0.00000000000E+00 0. -1.
         -3    1    4    4    0  502 -0.18174784430E+02 -0.38001336544E+02  0.54443016163E+01  0.42474283846E+02  0.00000000000E+00 0.  1.
          5    1    3    3  503    0  0.30510004714E+02  0.39900734299E+02 -0.10477539446E+03  0.11628801430E+03  0.47000000000E+01 0. -1.
         13    1    6    6    0    0  0.47654873989E+01 -0.16658446441E+02 -0.17085745633E+02  0.24333853205E+02  0.00000000000E+00 0. -1.
        -14    1    6    6    0    0 -0.10925030483E+03  0.25999777205E+02 -0.33454895912E+02  0.11717869935E+03  0.00000000000E+00 0.  1.
         -5    1    5    5    0  501  0.42086921762E+02 -0.15964741397E+02 -0.52882407598E+02  0.69604748291E+02  0.47000000000E+01 0.  1.
<mgrwt>
<rscale>  2 0.18408899E+03</rscale>
<asrwt>0</asrwt>
<pdfrwt beam="1">  1        2 0.16750625E-01 0.18408899E+03</pdfrwt>
<pdfrwt beam="2">  1       -2 0.47890276E-01 0.18408899E+03</pdfrwt>
<totfact> 0.14118988E+03</totfact>
</mgrwt>
</event>
<event>
12    1  0.5759937E-002  0.1745187E+03  0.7546771E-02  0.1173216E+00
          2   -1    0    0  503    0  0.00000000000E+00  0.00000000000E+00  0.18192948394E+03  0.18192948394E+03  0.00000000000E+00 0.  1.
         -2   -1    0    0    0  501 -0.00000000000E+00 -0.00000000000E+00 -0.19521209096E+03  0.19521209096E+03  0.00000000000E+00 0. -1.
          6    2    1    2  503    0  0.98454749244E+01  0.12807032665E+02 -0.77751210163E+02  0.18990018406E+03  0.17249891525E+03 0.  0.
         24    2    3    3    0    0 -0.47198948907E+02 -0.27605593171E+02 -0.70725277001E+02  0.11948214409E+03  0.79272368432E+02 0.  0.
         -6    2    1    2    0  501 -0.98454749244E+01 -0.12807032665E+02  0.64468603138E+02  0.18724139084E+03  0.17504909080E+03 0.  0.
        -24    2    5    5    0    0 -0.12433876819E+02 -0.47735665368E+02 -0.18552372314E+02  0.97012340238E+02  0.81448809685E+02 0.  0.
          4    1    4    4  502    0  0.15410935242E+02 -0.20293524794E+02 -0.44354017824E+02  0.51152741576E+02  0.00000000000E+00 0. -1.
         -3    1    4    4    0  502 -0.62609884149E+02 -0.73120683778E+01 -0.26371259177E+02  0.68329402512E+02  0.00000000000E+00 0.  1.
          5    1    3    3  503    0  0.57044423832E+02  0.40412625836E+02 -0.70259331623E+01  0.70418039976E+02  0.47000000000E+01 0. -1.
         13    1    6    6    0    0  0.74804662016E+01 -0.68620625022E+01 -0.43830768031E+02  0.44990904665E+02  0.00000000000E+00 0. -1.
        -14    1    6    6    0    0 -0.19914343020E+02 -0.40873602865E+02  0.25278395716E+02  0.52021435573E+02  0.00000000000E+00 0.  1.
         -5    1    5    5    0  501  0.25884018943E+01  0.34928632703E+02  0.83020975452E+02  0.90229050598E+02  0.47000000000E+01 0.  1.
<mgrwt>
<rscale>  2 0.17451865E+03</rscale>
<asrwt>0</asrwt>
<pdfrwt beam="1">  1        2 0.27989151E-01 0.17451865E+03</pdfrwt>
<pdfrwt beam="2">  1       -2 0.30032630E-01 0.17451865E+03</pdfrwt>
<totfact> 0.19018884E+03</totfact>
</mgrwt>
</event>
<event>
12    1  0.5759937E-002  0.1791502E+03  0.7546771E-02  0.1168628E+00
          1   -1    0    0  503    0  0.00000000000E+00  0.00000000000E+00  0.57164472325E+03  0.57164472325E+03  0.00000000000E+00 0.  1.
         -1   -1    0    0    0  501 -0.00000000000E+00 -0.00000000000E+00 -0.59338868882E+02  0.59338868882E+02  0.00000000000E+00 0. -1.
          6    2    1    2  503    0  0.13915142593E+02  0.43256482796E+02  0.18348170421E+03  0.25670877830E+03  0.17369256339E+03 0.  0.
         24    2    3    3    0    0 -0.25244644175E+02  0.29985734107E+02  0.19417172693E+03  0.21374404560E+03  0.80295835368E+02 0.  0.
         -6    2    1    2    0  501 -0.13915142593E+02 -0.43256482796E+02  0.32882415015E+03  0.37427481383E+03  0.17289175819E+03 0.  0.
        -24    2    5    5    0    0 -0.17368764908E+02 -0.58243627925E+01  0.10831342639E+03  0.15053353376E+03  0.10292205426E+03 0.  0.
          2    1    4    4  502    0 -0.47521499019E+01  0.31563026571E+02  0.18537520109E+02  0.36911342794E+02  0.00000000000E+00 0. -1.
         -1    1    4    4    0  502 -0.20492494273E+02 -0.15772924644E+01  0.17563420683E+03  0.17683270280E+03  0.00000000000E+00 0.  1.
          5    1    3    3  503    0  0.39159786768E+02  0.13270748689E+02 -0.10690022721E+02  0.42964732703E+02  0.47000000000E+01 0. -1.
         11    1    6    6    0    0  0.22031640997E+02  0.38430204559E+02  0.56708370263E+02  0.71959107035E+02  0.00000000000E+00 0. -1.
        -12    1    6    6    0    0 -0.39400405905E+02 -0.44254567351E+02  0.51605056127E+02  0.78574426723E+02  0.00000000000E+00 0.  1.
         -5    1    5    5    0  501  0.34536223153E+01 -0.37432120003E+02  0.22051072376E+03  0.22374128007E+03  0.47000000000E+01 0.  1.
<mgrwt>
<rscale>  2 0.17915018E+03</rscale>
<asrwt>0</asrwt>
<pdfrwt beam="1">  1        1 0.87945338E-01 0.17915018E+03</pdfrwt>
<pdfrwt beam="2">  1       -1 0.91290571E-02 0.17915018E+03</pdfrwt>
<totfact> 0.26078431E+03</totfact>
</mgrwt>
</event>
<event>
12    1  0.5759937E-002  0.2130939E+03  0.7546771E-02  0.1139139E+00
          4   -1    0    0  503    0  0.00000000000E+00  0.00000000000E+00  0.65109476308E+02  0.65109476308E+02  0.00000000000E+00 0.  1.
         -4   -1    0    0    0  501 -0.00000000000E+00 -0.00000000000E+00 -0.89471150963E+03  0.89471150963E+03  0.00000000000E+00 0. -1.
          6    2    1    2  503    0 -0.28076664758E+01 -0.12214406144E+03 -0.63914044899E+03  0.67351803717E+03  0.17377853183E+03 0.  0.
         24    2    3    3    0    0  0.25934919292E+02 -0.34027669192E+02 -0.14657785326E+03  0.17228891238E+03  0.79799122525E+02 0.  0.
         -6    2    1    2    0  501  0.28076664758E+01  0.12214406144E+03 -0.19046158433E+03  0.28630294877E+03  0.17540441451E+03 0.  0.
        -24    2    5    5    0    0 -0.57496648209E+00  0.17452249061E+02 -0.15536321332E+03  0.17573259364E+03  0.80245279179E+02 0.  0.
          4    1    4    4  502    0  0.21437572058E+02 -0.40670155716E+02 -0.15439116328E+03  0.16109085126E+03  0.00000000000E+00 0. -1.
         -3    1    4    4    0  502  0.44973472340E+01  0.66424865234E+01  0.78133100231E+01  0.11198061121E+02  0.00000000000E+00 0.  1.
          5    1    3    3  503    0 -0.28742585768E+02 -0.88116392247E+02 -0.49256259573E+03  0.50122912479E+03  0.47000000000E+01 0. -1.
         13    1    6    6    0    0  0.18573259861E+02 -0.14885340694E+02 -0.12548187262E+03  0.12771937874E+03  0.00000000000E+00 0. -1.
        -14    1    6    6    0    0 -0.19148226343E+02  0.32337589755E+02 -0.29881340708E+02  0.48013214908E+02  0.00000000000E+00 0.  1.
         -5    1    5    5    0  501  0.33826329579E+01  0.10469181238E+03 -0.35098371009E+02  0.11057035512E+03  0.47000000000E+01 0.  1.
<mgrwt>
<rscale>  2 0.21309390E+03</rscale>
<asrwt>0</asrwt>
<pdfrwt beam="1">  1        4 0.10016843E-01 0.21309390E+03</pdfrwt>
<pdfrwt beam="2">  1       -4 0.13764792E+00 0.21309390E+03</pdfrwt>
<totfact> 0.53517611E+01</totfact>
</mgrwt>
</event>
<event>
12    1  0.5759937E-002  0.1795112E+03  0.7546771E-02  0.1168277E+00
          1   -1    0    0  503    0  0.00000000000E+00  0.00000000000E+00  0.54042457890E+03  0.54042457890E+03  0.00000000000E+00 0. -1.
         -1   -1    0    0    0  501 -0.00000000000E+00 -0.00000000000E+00 -0.75374676987E+02  0.75374676987E+02  0.00000000000E+00 0.  1.
          6    2    1    2  503    0 -0.32386406143E+01  0.53861255365E+01  0.97746972746E+02  0.20933075897E+03  0.18500107250E+03 0.  0.
         24    2    3    3    0    0  0.49106720651E+02  0.31985883125E+02  0.71665218404E+01  0.10128219564E+03  0.82293118707E+02 0.  0.
         -6    2    1    2    0  501  0.32386406143E+01 -0.53861255365E+01  0.36730292917E+03  0.40646849692E+03  0.17397039425E+03 0.  0.
        -24    2    5    5    0    0  0.15322881764E+02  0.57967379697E+02  0.15053017388E+03  0.18025573657E+03  0.78979677797E+02 0.  0.
          2    1    4    4  502    0  0.42558969190E+02  0.97250366562E-02  0.37500340793E+02  0.56723377127E+02  0.00000000000E+00 0. -1.
         -1    1    4    4    0  502  0.65477514616E+01  0.31976158088E+02 -0.30333818953E+02  0.44558818516E+02  0.00000000000E+00 0.  1.
          5    1    3    3  503    0 -0.52345361266E+02 -0.26599757588E+02  0.90580450905E+02  0.10804856332E+03  0.47000000000E+01 0. -1.
         13    1    6    6    0    0 -0.21656973730E+01  0.62127305014E+02  0.14988771173E+03  0.16226773678E+03  0.00000000000E+00 0. -1.
        -14    1    6    6    0    0  0.17488579137E+02 -0.41599253171E+01  0.64246215191E+00  0.17987999791E+02  0.00000000000E+00 0.  1.
         -5    1    5    5    0  501 -0.12084241150E+02 -0.63353505234E+02  0.21677275529E+03  0.22621276035E+03  0.47000000000E+01 0.  1.
<mgrwt>
<rscale>  2 0.17951123E+03</rscale>
<asrwt>0</asrwt>
<pdfrwt beam="1">  1        1 0.83142241E-01 0.17951123E+03</pdfrwt>
<pdfrwt beam="2">  1       -1 0.11596104E-01 0.17951123E+03</pdfrwt>
<totfact> 0.19464943E+03</totfact>
</mgrwt>
</event>
<event>
12    1  0.5759937E-002  0.1880261E+03  0.7546771E-02  0.1160254E+00
         -1   -1    0    0    0  501 -0.00000000000E+00  0.00000000000E+00  0.19137328773E+03  0.19137328773E+03  0.00000000000E+00 0. -1.
          1   -1    0    0  503    0  0.00000000000E+00 -0.00000000000E+00 -0.19095267351E+03  0.19095267351E+03  0.00000000000E+00 0.  1.
          6    2    1    2  503    0 -0.47386121292E+02 -0.57075058925E+02 -0.34271055869E+02  0.19174927495E+03  0.17346547879E+03 0.  0.
         24    2    3    3    0    0 -0.52900910827E+02 -0.17275131591E+00 -0.74891525295E+02  0.12146130976E+03  0.79659104929E+02 0.  0.
         -6    2    1    2    0  501  0.47386121292E+02  0.57075058925E+02  0.34691670085E+02  0.19057668629E+03  0.17208414959E+03 0.  0.
        -24    2    5    5    0    0  0.30896234446E+02  0.53520536632E+02 -0.43259687644E+02  0.11068266168E+03  0.80995221319E+02 0.  0.
          2    1    4    4  502    0 -0.41294054054E+02  0.37121231633E+02 -0.35025434366E+02  0.65650329708E+02  0.00000000000E+00 0. -1.
         -1    1    4    4    0  502 -0.11606856773E+02 -0.37293982949E+02 -0.39866090929E+02  0.55810980051E+02  0.00000000000E+00 0.  1.
          5    1    3    3  503    0  0.55147895352E+01 -0.56902307609E+02  0.40620469426E+02  0.70287965195E+02  0.47000000000E+01 0. -1.
         11    1    6    6    0    0  0.37018308375E+02  0.28523756911E+01  0.83974516935E+01  0.38065842917E+02  0.00000000000E+00 0. -1.
        -12    1    6    6    0    0 -0.61220739293E+01  0.50668160941E+02 -0.51657139338E+02  0.72616818760E+02  0.00000000000E+00 0.  1.
         -5    1    5    5    0  501  0.16489886846E+02  0.35545222929E+01  0.77951357729E+02  0.79894024612E+02  0.47000000000E+01 0.  1.
<mgrwt>
<rscale>  2 0.18802610E+03</rscale>
<asrwt>0</asrwt>
<pdfrwt beam="2">  1        1 0.29377334E-01 0.18802610E+03</pdfrwt>
<pdfrwt beam="1">  1       -1 0.29442044E-01 0.18802610E+03</pdfrwt>
<totfact> 0.16249546E+03</totfact>
</mgrwt>
</event>
<event>
12    1  0.5759937E-002  0.3185033E+03  0.7546771E-02  0.1076340E+00
         -2   -1    0    0    0  501 -0.00000000000E+00  0.00000000000E+00  0.41075210939E+02  0.41075210939E+02  0.00000000000E+00 0. -1.
          2   -1    0    0  503    0  0.00000000000E+00 -0.00000000000E+00 -0.26599799189E+04  0.26599799189E+04  0.00000000000E+00 0.  1.
          6    2    1    2  503    0 -0.26684602783E+03 -0.20378705309E+02 -0.94827343511E+03  0.10003342798E+04  0.17269646592E+03 0.  0.
         24    2    3    3    0    0 -0.21872581686E+03  0.55446352596E+01 -0.88956940165E+03  0.91998611343E+03  0.84669962809E+02 0.  0.
         -6    2    1    2    0  501  0.26684602783E+03  0.20378705309E+02 -0.16706312728E+04  0.17007208501E+04  0.17268603258E+03 0.  0.
        -24    2    5    5    0    0  0.12172971377E+03  0.64083405126E+02 -0.10390771118E+04  0.10512198157E+04  0.80355774495E+02 0.  0.
          4    1    4    4  502    0 -0.56531971961E+02  0.15686135432E+02 -0.39673320899E+03  0.40104757550E+03  0.00000000000E+00 0. -1.
         -3    1    4    4    0  502 -0.16219384490E+03 -0.10141500173E+02 -0.49283619266E+03  0.51893853792E+03  0.00000000000E+00 0.  1.
          5    1    3    3  503    0 -0.48120210968E+02 -0.25923340568E+02 -0.58704033457E+02  0.80348166338E+02  0.47000000000E+01 0. -1.
         11    1    6    6    0    0  0.23659769302E+02  0.54291833659E+01 -0.47844435971E+03  0.47905977294E+03  0.00000000000E+00 0. -1.
        -12    1    6    6    0    0  0.98069944471E+02  0.58654221760E+02 -0.56063275212E+03  0.57216004273E+03  0.00000000000E+00 0.  1.
         -5    1    5    5    0  501  0.14511631405E+03 -0.43704699817E+02 -0.63155416101E+03  0.64950103440E+03  0.47000000000E+01 0.  1.
<mgrwt>
<rscale>  2 0.31850332E+03</rscale>
<asrwt>0</asrwt>
<pdfrwt beam="2">  1        2 0.40922767E+00 0.31850332E+03</pdfrwt>
<pdfrwt beam="1">  1       -2 0.63192634E-02 0.31850332E+03</pdfrwt>
<totfact> 0.44247780E+02</totfact>
</mgrwt>
</event>
<event>
12    1  0.5759937E-002  0.2486231E+03  0.7546771E-02  0.1114178E+00
         -2   -1    0    0    0  501 -0.00000000000E+00  0.00000000000E+00  0.89594426519E+02  0.89594426519E+02  0.00000000000E+00 0. -1.
          2   -1    0    0  503    0  0.00000000000E+00 -0.00000000000E+00 -0.78561009482E+03  0.78561009482E+03  0.00000000000E+00 0.  1.
          6    2    1    2  503    0  0.45133569481E+01  0.17951284958E+03 -0.19408327788E+03  0.31463131600E+03  0.17052657476E+03 0.  0.
         24    2    3    3    0    0 -0.42551223833E+02  0.13467539161E+03 -0.19224427582E+03  0.24943204967E+03  0.72872615304E+02 0.  0.
         -6    2    1    2    0  501 -0.45133569481E+01 -0.17951284958E+03 -0.50193239042E+03  0.56057320534E+03  0.17338096906E+03 0.  0.
        -24    2    5    5    0    0  0.14167603234E+02 -0.58082822231E+02 -0.35544803919E+03  0.36932994409E+03  0.80541689957E+02 0.  0.
          4    1    4    4  502    0 -0.41712797305E+02  0.26333491762E+02 -0.75231140622E+02  0.89961851729E+02  0.00000000000E+00 0. -1.
         -3    1    4    4    0  502 -0.83842652825E+00  0.10834189985E+03 -0.11701313520E+03  0.15947019794E+03  0.00000000000E+00 0.  1.
          5    1    3    3  503    0  0.47064580781E+02  0.44837457971E+02 -0.18390020571E+01  0.65199266330E+02  0.47000000000E+01 0. -1.
         11    1    6    6    0    0  0.19443475268E+02 -0.60487352179E+02 -0.13931367067E+03  0.15311782175E+03  0.00000000000E+00 0. -1.
        -12    1    6    6    0    0 -0.52758720345E+01  0.24045299477E+01 -0.21613436852E+03  0.21621212234E+03  0.00000000000E+00 0.  1.
         -5    1    5    5    0  501 -0.18680960182E+02 -0.12143002735E+03 -0.14648435124E+03  0.19124326125E+03  0.47000000000E+01 0.  1.
<mgrwt>
<rscale>  2 0.24862305E+03</rscale>
<asrwt>0</asrwt>
<pdfrwt beam="2">  1        2 0.12086309E+00 0.24862305E+03</pdfrwt>
<pdfrwt beam="1">  1       -2 0.13783759E-01 0.24862305E+03</pdfrwt>
<totfact> 0.14300410E+03</totfact>
</mgrwt>
</event>
<event>
12    1  0.5759937E-002  0.2319347E+03  0.7546771E-02  0.1125285E+00
         -2   -1    0    0    0  501 -0.00000000000E+00  0.00000000000E+00  0.16709974965E+03  0.16709974965E+03  0.00000000000E+00 0. -1.
          2   -1    0    0  503    0  0.00000000000E+00 -0.00000000000E+00 -0.40172784217E+03  0.40172784217E+03  0.00000000000E+00 0.  1.
          6    2    1    2  503    0  0.13710355341E+03  0.70449011177E+02  0.96996127617E+01  0.23151430925E+03  0.17246549036E+03 0.  0.
         24    2    3    3    0    0  0.77155159111E+02 -0.27401549123E+02 -0.15596612361E+00  0.11624174284E+03  0.82512756479E+02 0.  0.
         -6    2    1    2    0  501 -0.13710355341E+03 -0.70449011177E+02 -0.24432770528E+03  0.33731328257E+03  0.17413723180E+03 0.  0.
        -24    2    5    5    0    0 -0.68838282650E+02 -0.10680719020E+03 -0.19315912918E+03  0.24445652432E+03  0.79385502828E+02 0.  0.
          2    1    4    4  502    0  0.68910304868E+02 -0.70902047231E+01 -0.33017140048E+02  0.76740032949E+02  0.00000000000E+00 0. -1.
         -1    1    4    4    0  502  0.82448542425E+01 -0.20311344400E+02  0.32861173924E+02  0.39501709893E+02  0.00000000000E+00 0.  1.
          5    1    3    3  503    0  0.59948394300E+02  0.97850560300E+02  0.98555788853E+01  0.11527256640E+03  0.47000000000E+01 0. -1.
         13    1    6    6    0    0 -0.81923330706E+02 -0.78980367766E+02 -0.12144458907E+03  0.16642751822E+03  0.00000000000E+00 0. -1.
        -14    1    6    6    0    0  0.13085048056E+02 -0.27826822430E+02 -0.71714540111E+02  0.78029006097E+02  0.00000000000E+00 0.  1.
         -5    1    5    5    0  501 -0.68265270760E+02  0.36358179019E+02 -0.51168576093E+02  0.92856758251E+02  0.47000000000E+01 0.  1.
<mgrwt>
<rscale>  2 0.23193475E+03</rscale>
<asrwt>0</asrwt>
<pdfrwt beam="2">  1        2 0.61804283E-01 0.23193475E+03</pdfrwt>
<pdfrwt beam="1">  1       -2 0.25707654E-01 0.23193475E+03</pdfrwt>
<totfact> 0.10741187E+03</totfact>
</mgrwt>
</event>
<event>
12    1  0.5759937E-002  0.2604608E+03  0.7546771E-02  0.1106867E+00
          4   -1    0    0  503    0  0.00000000000E+00  0.00000000000E+00  0.30060099733E+03  0.30060099733E+03  0.00000000000E+00 0.  1.
         -4   -1    0    0    0  501 -0.00000000000E+00 -0.00000000000E+00 -0.41546359259E+03  0.41546359259E+03  0.00000000000E+00 0. -1.
          6    2    1    2  503    0  0.48795046110E+02  0.18946871035E+03  0.18456108577E+03  0.31915587989E+03  0.17180900023E+03 0.  0.
         24    2    3    3    0    0  0.76785064007E+02  0.72872013272E+02  0.12410832135E+03  0.18478751458E+03  0.86817473713E+02 0.  0.
         -6    2    1    2    0  501 -0.48795046110E+02 -0.18946871035E+03 -0.29942368103E+03  0.39690871003E+03  0.17205416184E+03 0.  0.
        -24    2    5    5    0    0 -0.87756487153E+02 -0.18499722110E+03 -0.26576151115E+03  0.34501246945E+03  0.80493791171E+02 0.  0.
          2    1    4    4  502    0  0.49431097639E+02  0.43929672193E+01  0.12767424566E+02  0.51241962344E+02  0.00000000000E+00 0. -1.
         -1    1    4    4    0  502  0.27353966368E+02  0.68479046053E+02  0.11134089678E+03  0.13354555223E+03  0.00000000000E+00 0.  1.
          5    1    3    3  503    0 -0.27990017897E+02  0.11659669708E+03  0.60452764421E+02  0.13436836531E+03  0.47000000000E+01 0. -1.
         13    1    6    6    0    0 -0.17683044571E+02 -0.29775947475E+01 -0.55006159571E+02  0.57855282616E+02  0.00000000000E+00 0. -1.
        -14    1    6    6    0    0 -0.70073442583E+02 -0.18201962635E+03 -0.21075535157E+03  0.28715718683E+03  0.00000000000E+00 0.  1.
         -5    1    5    5    0  501  0.38961441044E+02 -0.44714892448E+01 -0.33662169888E+02  0.51896240575E+02  0.47000000000E+01 0.  1.
<mgrwt>
<rscale>  2 0.26046078E+03</rscale>
<asrwt>0</asrwt>
<pdfrwt beam="1">  1        4 0.46246307E-01 0.26046078E+03</pdfrwt>
<pdfrwt beam="2">  1       -4 0.63917476E-01 0.26046078E+03</pdfrwt>
<totfact> 0.19194668E+01</totfact>
</mgrwt>
</event>
<event>
12    1  0.5759937E-002  0.2864489E+03  0.7546771E-02  0.1092218E+00
          1   -1    0    0  503    0  0.00000000000E+00  0.00000000000E+00  0.20665783729E+04  0.20665783729E+04  0.00000000000E+00 0.  1.
         -1   -1    0    0    0  501 -0.00000000000E+00 -0.00000000000E+00 -0.40447291070E+02  0.40447291070E+02  0.00000000000E+00 0. -1.
          6    2    1    2  503    0  0.64342286523E+02  0.21800764189E+03  0.11541890658E+04  0.11890920841E+04  0.17355207642E+03 0.  0.
         24    2    3    3    0    0 -0.16294267647E+02  0.12256116837E+03  0.44612851871E+03  0.47007601235E+03  0.81572415833E+02 0.  0.
         -6    2    1    2    0  501 -0.64342286523E+02 -0.21800764189E+03  0.87194201604E+03  0.91793357983E+03  0.17507688562E+03 0.  0.
        -24    2    5    5    0    0 -0.84886823046E+02 -0.11810256164E+03  0.36665464502E+03  0.40243331761E+03  0.79768155351E+02 0.  0.
          2    1    4    4  502    0 -0.22773650288E+02  0.13133245525E+03  0.37220029570E+03  0.39534783807E+03  0.00000000000E+00 0. -1.
         -1    1    4    4    0  502  0.64793826407E+01 -0.87712868744E+01  0.73928223013E+02  0.74728174276E+02  0.00000000000E+00 0.  1.
          5    1    3    3  503    0  0.80636554171E+02  0.95446473518E+02  0.70806054708E+03  0.71901607180E+03  0.47000000000E+01 0. -1.
         11    1    6    6    0    0 -0.39079548345E+02 -0.10230368757E+03  0.30468359554E+03  0.32376743039E+03  0.00000000000E+00 0. -1.
        -12    1    6    6    0    0 -0.45807274701E+02 -0.15798874078E+02  0.61971049480E+02  0.78665887215E+02  0.00000000000E+00 0.  1.
         -5    1    5    5    0  501  0.20544536523E+02 -0.99905080245E+02  0.50528737102E+03  0.51550026222E+03  0.47000000000E+01 0.  1.
<mgrwt>
<rscale>  2 0.28644886E+03</rscale>
<asrwt>0</asrwt>
<pdfrwt beam="1">  1        1 0.31793505E+00 0.28644886E+03</pdfrwt>
<pdfrwt beam="2">  1       -1 0.62226618E-02 0.28644886E+03</pdfrwt>
<totfact> 0.38508630E+02</totfact>
</mgrwt>
</event>
<event>
12    1  0.5759937E-002  0.1890457E+03  0.7546771E-02  0.1159325E+00
          2   -1    0    0  503    0  0.00000000000E+00  0.00000000000E+00  0.57088245578E+03  0.57088245578E+03  0.00000000000E+00 0. -1.
         -2   -1    0    0    0  501 -0.00000000000E+00 -0.00000000000E+00 -0.71103097418E+02  0.71103097418E+02  0.00000000000E+00 0.  1.
          6    2    1    2  503    0 -0.49281951818E+02 -0.43318334345E+02  0.14398330200E+03  0.24100630986E+03  0.18179015725E+03 0.  0.
         24    2    3    3    0    0  0.39137840516E+02 -0.32477950407E+02  0.42567435709E+02  0.10594024626E+03  0.82612113953E+02 0.  0.
         -6    2    1    2    0  501  0.49281951818E+02  0.43318334345E+02  0.35579605636E+03  0.40097924334E+03  0.17288241959E+03 0.  0.
        -24    2    5    5    0    0  0.85818320002E+02 -0.14065144888E+02  0.21316358810E+03  0.24288471184E+03  0.77405785336E+02 0.  0.
          2    1    4    4  502    0  0.34214354006E+01  0.94963582528E+01  0.49385560782E+02  0.50406553682E+02  0.00000000000E+00 0. -1.
         -1    1    4    4    0  502  0.35716405116E+02 -0.41974308660E+02 -0.68181250734E+01  0.55533692578E+02  0.00000000000E+00 0.  1.
          5    1    3    3  503    0 -0.88419792334E+02 -0.10840383938E+02  0.10141586629E+03  0.13506606360E+03  0.47000000000E+01 0. -1.
         11    1    6    6    0    0  0.41872163134E+02  0.19523723402E+02  0.15858720726E+03  0.16517976912E+03  0.00000000000E+00 0. -1.
        -12    1    6    6    0    0  0.43946156868E+02 -0.33588868290E+02  0.54576380839E+02  0.77704942712E+02  0.00000000000E+00 0.  1.
         -5    1    5    5    0  501 -0.36536368184E+02  0.57383479233E+02  0.14263246826E+03  0.15809453150E+03  0.47000000000E+01 0.  1.
<mgrwt>
<rscale>  2 0.18904574E+03</rscale>
<asrwt>0</asrwt>
<pdfrwt beam="1">  1        2 0.87828067E-01 0.18904574E+03</pdfrwt>
<pdfrwt beam="2">  1       -2 0.10938938E-01 0.18904574E+03</pdfrwt>
<totfact> 0.30307381E+03</totfact>
</mgrwt>
</event>
<event>
12    1  0.5759937E-002  0.1884279E+03  0.7546771E-02  0.1159887E+00
         -2   -1    0    0    0  501 -0.00000000000E+00  0.00000000000E+00  0.17175511282E+02  0.17175511282E+02  0.00000000000E+00 0. -1.
          2   -1    0    0  503    0  0.00000000000E+00 -0.00000000000E+00 -0.36216161608E+04  0.36216161608E+04  0.00000000000E+00 0.  1.
          6    2    1    2  503    0 -0.20953398805E+01 -0.80441148203E+02 -0.29811927616E+04  0.29869954954E+04  0.16779940128E+03 0.  0.
         24    2    3    3    0    0  0.31048496613E+02  0.11244524063E+02 -0.12861628122E+04  0.12891576363E+04  0.81376798646E+02 0.  0.
         -6    2    1    2    0  501  0.20953398805E+01  0.80441148203E+02 -0.62324788792E+03  0.65179617667E+03  0.17298889370E+03 0.  0.
        -24    2    5    5    0    0 -0.39671236514E+01  0.11052089616E+03 -0.33172046585E+03  0.35862067885E+03  0.79622341551E+02 0.  0.
          2    1    4    4  502    0  0.58589249658E+02  0.17414539553E+01 -0.83415319075E+03  0.83621006839E+03  0.00000000000E+00 0. -1.
         -1    1    4    4    0  502 -0.27540753045E+02  0.95030701078E+01 -0.45200962143E+03  0.45294756792E+03  0.00000000000E+00 0.  1.
          5    1    3    3  503    0 -0.33143836494E+02 -0.91685672266E+02 -0.16950299494E+04  0.16978378591E+04  0.47000000000E+01 0. -1.
         13    1    6    6    0    0 -0.68534673791E+01 -0.72350376823E+01 -0.46716739455E+01  0.11006376462E+02  0.00000000000E+00 0. -1.
        -14    1    6    6    0    0  0.28863437277E+01  0.11775593385E+03 -0.32704879190E+03  0.34761430238E+03  0.00000000000E+00 0.  1.
         -5    1    5    5    0  501  0.60624635319E+01 -0.30079747961E+02 -0.29152742207E+03  0.29317549782E+03  0.47000000000E+01 0.  1.
<mgrwt>
<rscale>  2 0.18842786E+03</rscale>
<asrwt>0</asrwt>
<pdfrwt beam="2">  1        2 0.55717113E+00 0.18842786E+03</pdfrwt>
<pdfrwt beam="1">  1       -2 0.26423891E-02 0.18842786E+03</pdfrwt>
<totfact> 0.44206344E+02</totfact>
</mgrwt>
</event>
<event>
12    1  0.5759937E-002  0.1864307E+03  0.7546771E-02  0.1161721E+00
          4   -1    0    0  503    0  0.00000000000E+00  0.00000000000E+00  0.13356570631E+03  0.13356570631E+03  0.00000000000E+00 0.  1.
         -4   -1    0    0    0  501 -0.00000000000E+00 -0.00000000000E+00 -0.28032171903E+03  0.28032171903E+03  0.00000000000E+00 0. -1.
          6    2    1    2  503    0  0.77152670414E+02 -0.51388653279E+01 -0.19106656202E+02  0.19029846196E+03  0.17282794283E+03 0.  0.
         24    2    3    3    0    0  0.10626467976E+03  0.30246383448E+02 -0.35607512391E+02  0.14137001242E+03  0.80688038753E+02 0.  0.
         -6    2    1    2    0  501 -0.77152670414E+02  0.51388653279E+01 -0.12764935651E+03  0.22358896338E+03  0.16648941059E+03 0.  0.
        -24    2    5    5    0    0 -0.74753927482E+02  0.39598017340E+02 -0.29016268516E+02  0.11897652066E+03  0.78468566812E+02 0.  0.
          4    1    4    4  502    0  0.81911075356E+02 -0.11200449864E+02 -0.42245657910E+02  0.92841639125E+02  0.00000000000E+00 0. -1.
         -3    1    4    4    0  502  0.24353604403E+02  0.41446833312E+02  0.66381455191E+01  0.48528373298E+02  0.00000000000E+00 0.  1.
          5    1    3    3  503    0 -0.29112009345E+02 -0.35385248776E+02  0.16500856189E+02  0.48928449536E+02  0.47000000000E+01 0. -1.
         11    1    6    6    0    0  0.15277759549E+02 -0.59644560217E+00  0.24414573238E+01  0.15483100402E+02  0.00000000000E+00 0. -1.
        -12    1    6    6    0    0 -0.90031687031E+02  0.40194462942E+02 -0.31457725840E+02  0.10349342025E+03  0.00000000000E+00 0.  1.
         -5    1    5    5    0  501 -0.23987429314E+01 -0.34459152012E+02 -0.98633087999E+02  0.10461244273E+03  0.47000000000E+01 0.  1.
<mgrwt>
<rscale>  2 0.18643074E+03</rscale>
<asrwt>0</asrwt>
<pdfrwt beam="1">  1        4 0.20548571E-01 0.18643074E+03</pdfrwt>
<pdfrwt beam="2">  1       -4 0.43126418E-01 0.18643074E+03</pdfrwt>
<totfact> 0.19782991E+02</totfact>
</mgrwt>
</event>
<event>
12    1  0.5759937E-002  0.3232579E+03  0.7546771E-02  0.1074160E+00
         -1   -1    0    0    0  501 -0.00000000000E+00  0.00000000000E+00  0.20549148835E+03  0.20549148835E+03  0.00000000000E+00 0. -1.
          1   -1    0    0  503    0  0.00000000000E+00 -0.00000000000E+00 -0.54232487685E+03  0.54232487685E+03  0.00000000000E+00 0.  1.
          6    2    1    2  503    0  0.20021922338E+03 -0.18531457283E+03 -0.26184619451E+03  0.41611726349E+03  0.17366899286E+03 0.  0.
         24    2    3    3    0    0  0.10572389717E+03 -0.24277207182E+02 -0.11386463974E+03  0.17782536190E+03  0.83004686199E+02 0.  0.
         -6    2    1    2    0  501 -0.20021922338E+03  0.18531457283E+03 -0.74987193995E+02  0.33169910172E+03  0.17312419387E+03 0.  0.
        -24    2    5    5    0    0 -0.15673427439E+03  0.10125718718E+03 -0.10958557927E+03  0.23082431233E+03  0.80325669966E+02 0.  0.
          4    1    4    4  502    0 -0.74982646681E+01  0.12234236980E+02 -0.19271858275E+01  0.14478072134E+02  0.00000000000E+00 0. -1.
         -3    1    4    4    0  502  0.11322216184E+03 -0.36511444162E+02 -0.11193745391E+03  0.16334728977E+03  0.00000000000E+00 0.  1.
          5    1    3    3  503    0  0.94495326207E+02 -0.16103736565E+03 -0.14798155477E+03  0.23829190158E+03  0.47000000000E+01 0. -1.
         13    1    6    6    0    0 -0.15048986567E+03  0.11079916582E+03 -0.88328652963E+02  0.20670173137E+03  0.00000000000E+00 0. -1.
        -14    1    6    6    0    0 -0.62444087152E+01 -0.95419786338E+01 -0.21256926304E+02  0.24122580964E+02  0.00000000000E+00 0.  1.
         -5    1    5    5    0  501 -0.43484948988E+02  0.84057385648E+02  0.34598385272E+02  0.10087478939E+03  0.47000000000E+01 0.  1.
<mgrwt>
<rscale>  2 0.32325785E+03</rscale>
<asrwt>0</asrwt>
<pdfrwt beam="2">  1        1 0.83434597E-01 0.32325785E+03</pdfrwt>
<pdfrwt beam="1">  1       -1 0.31614075E-01 0.32325785E+03</pdfrwt>
<totfact> 0.37887293E+02</totfact>
</mgrwt>
</event>
<event>
12    1  0.5759937E-002  0.2604412E+03  0.7546771E-02  0.1106878E+00
         -2   -1    0    0    0  501 -0.00000000000E+00  0.00000000000E+00  0.47806019249E+02  0.47806019249E+02  0.00000000000E+00 0.  1.
          2   -1    0    0  503    0  0.00000000000E+00 -0.00000000000E+00 -0.19773110980E+04  0.19773110980E+04  0.00000000000E+00 0. -1.
          6    2    1    2  503    0  0.59211803502E+02 -0.18694416742E+03 -0.15067976224E+04  0.15293946464E+04  0.17365123152E+03 0.  0.
         24    2    3    3    0    0 -0.25779722529E+02 -0.11148050250E+03 -0.62482667909E+03  0.64011788462E+03  0.79057136176E+02 0.  0.
         -6    2    1    2    0  501 -0.59211803502E+02  0.18694416742E+03 -0.42270745638E+03  0.49572247087E+03  0.16913017186E+03 0.  0.
        -24    2    5    5    0    0 -0.42311368219E+02  0.33554779161E+02 -0.10589572984E+03  0.14329419558E+03  0.80019658861E+02 0.  0.
          4    1    4    4  502    0 -0.32525441133E+02 -0.97543408730E+02 -0.61025116580E+03  0.61885305709E+03  0.00000000000E+00 0. -1.
         -3    1    4    4    0  502  0.67457186043E+01 -0.13937093773E+02 -0.14575513283E+02  0.21264827528E+02  0.00000000000E+00 0.  1.
          5    1    3    3  503    0  0.84991526031E+02 -0.75463664916E+02 -0.88197094327E+03  0.88927676175E+03  0.47000000000E+01 0. -1.
         13    1    6    6    0    0  0.20066693476E+02  0.20843707532E+02 -0.15767462582E+02  0.32950648052E+02  0.00000000000E+00 0. -1.
        -14    1    6    6    0    0 -0.62378061696E+02  0.12711071629E+02 -0.90128267253E+02  0.11034354753E+03  0.00000000000E+00 0.  1.
         -5    1    5    5    0  501 -0.16900435283E+02  0.15338938826E+03 -0.31681172655E+03  0.35242827529E+03  0.47000000000E+01 0.  1.
<mgrwt>
<rscale>  2 0.26044120E+03</rscale>
<asrwt>0</asrwt>
<pdfrwt beam="2">  1        2 0.30420162E+00 0.26044120E+03</pdfrwt>
<pdfrwt beam="1">  1       -2 0.73547743E-02 0.26044120E+03</pdfrwt>
<totfact> 0.82558015E+02</totfact>
</mgrwt>
</event>
<event>
12    1  0.5759937E-002  0.1921963E+03  0.7546771E-02  0.1156495E+00
          1   -1    0    0  503    0  0.00000000000E+00  0.00000000000E+00  0.18998255647E+03  0.18998255647E+03  0.00000000000E+00 0. -1.
         -1   -1    0    0    0  501 -0.00000000000E+00 -0.00000000000E+00 -0.35833654763E+03  0.35833654763E+03  0.00000000000E+00 0.  1.
          6    2    1    2  503    0 -0.21446860052E+02 -0.82229391368E+02  0.10109438496E+03  0.21769784220E+03  0.17306251823E+03 0.  0.
         24    2    3    3    0    0  0.32877075153E+02  0.41443834151E+01  0.26445168196E+02  0.91182568539E+02  0.80726921779E+02 0.  0.
         -6    2    1    2    0  501  0.21446860052E+02  0.82229391368E+02 -0.26944837612E+03  0.33062126190E+03  0.17171590146E+03 0.  0.
        -24    2    5    5    0    0 -0.25355883028E+02  0.98566559374E+02 -0.24037855501E+03  0.27296240032E+03  0.79801847424E+02 0.  0.
          2    1    4    4  502    0  0.54790434168E+02  0.18148675965E+02  0.29806898949E+02  0.64960121155E+02  0.00000000000E+00 0. -1.
         -1    1    4    4    0  502 -0.21913359015E+02 -0.14004292550E+02 -0.33617307530E+01  0.26222447384E+02  0.00000000000E+00 0.  1.
          5    1    3    3  503    0 -0.54323935205E+02 -0.86373774783E+02  0.74649216760E+02  0.12651527366E+03  0.47000000000E+01 0. -1.
         13    1    6    6    0    0 -0.22096805645E+02  0.19204623219E+02 -0.12856925031E+02  0.31974785284E+02  0.00000000000E+00 0. -1.
        -14    1    6    6    0    0 -0.32590773829E+01  0.79361936155E+02 -0.22752162997E+03  0.24098761504E+03  0.00000000000E+00 0.  1.
         -5    1    5    5    0  501  0.46802743080E+02 -0.16337168006E+02 -0.29069821115E+02  0.57658861573E+02  0.47000000000E+01 0.  1.
<mgrwt>
<rscale>  2 0.19219626E+03</rscale>
<asrwt>0</asrwt>
<pdfrwt beam="1">  1        1 0.29228086E-01 0.19219626E+03</pdfrwt>
<pdfrwt beam="2">  1       -1 0.55128700E-01 0.19219626E+03</pdfrwt>
<totfact> 0.53762263E+02</totfact>
</mgrwt>
</event>
<event>
12    1  0.5759937E-002  0.1815731E+03  0.7546771E-02  0.1166289E+00
         -1   -1    0    0    0  501 -0.00000000000E+00  0.00000000000E+00  0.69870677545E+02  0.69870677545E+02  0.00000000000E+00 0. -1.
          1   -1    0    0  503    0  0.00000000000E+00 -0.00000000000E+00 -0.67185524570E+03  0.67185524570E+03  0.00000000000E+00 0.  1.
          6    2    1    2  503    0 -0.50953779979E+02 -0.11542630431E+02 -0.50390513589E+03  0.53578691851E+03  0.17440675463E+03 0.  0.
         24    2    3    3    0    0 -0.50736115866E+02  0.29157135442E+02 -0.47571853054E+03  0.48605671601E+03  0.80738583596E+02 0.  0.
         -6    2    1    2    0  501  0.50953779979E+02  0.11542630431E+02 -0.98079432257E+02  0.20593900473E+03  0.17338332857E+03 0.  0.
        -24    2    5    5    0    0 -0.27537416355E+02 -0.28088291344E+02 -0.27822757977E+02  0.93291021418E+02  0.79886465722E+02 0.  0.
          2    1    4    4  502    0 -0.11286426015E+02  0.18122992610E+02 -0.39464402167E+03  0.39522111547E+03  0.00000000000E+00 0. -1.
         -1    1    4    4    0  502 -0.39449689850E+02  0.11034142831E+02 -0.81074508866E+02  0.90835600539E+02  0.00000000000E+00 0.  1.
          5    1    3    3  503    0 -0.21766411348E+00 -0.40699765872E+02 -0.28186605359E+02  0.49730202507E+02  0.47000000000E+01 0. -1.
         13    1    6    6    0    0 -0.28757972715E+02  0.15644816687E+02  0.11266109391E+02  0.34622341120E+02  0.00000000000E+00 0. -1.
        -14    1    6    6    0    0  0.12205563594E+01 -0.43733108031E+02 -0.39088867368E+02  0.58668680298E+02  0.00000000000E+00 0.  1.
         -5    1    5    5    0  501  0.78491196335E+02  0.39630921775E+02 -0.70256674280E+02  0.11264798331E+03  0.47000000000E+01 0.  1.
<mgrwt>
<rscale>  2 0.18157309E+03</rscale>
<asrwt>0</asrwt>
<pdfrwt beam="2">  1        1 0.10336234E+00 0.18157309E+03</pdfrwt>
<pdfrwt beam="1">  1       -1 0.10749335E-01 0.18157309E+03</pdfrwt>
<totfact> 0.16216009E+03</totfact>
</mgrwt>
</event>
<event>
12    1  0.5759937E-002  0.1918548E+03  0.7546771E-02  0.1156799E+00
          2   -1    0    0  503    0  0.00000000000E+00  0.00000000000E+00  0.68379159208E+03  0.68379159208E+03  0.00000000000E+00 0. -1.
         -2   -1    0    0    0  501 -0.00000000000E+00 -0.00000000000E+00 -0.55146433606E+02  0.55146433606E+02  0.00000000000E+00 0.  1.
          6    2    1    2  503    0 -0.83042366221E+02  0.81888550521E+01  0.25694072059E+03  0.32055762749E+03  0.17255598138E+03 0.  0.
         24    2    3    3    0    0 -0.58207737976E+02  0.69784788214E+02  0.13838349091E+03  0.18458437846E+03  0.81629313301E+02 0.  0.
         -6    2    1    2    0  501  0.83042366221E+02 -0.81888550521E+01  0.37170443788E+03  0.41838039819E+03  0.17295917586E+03 0.  0.
        -24    2    5    5    0    0  0.14947134568E+02 -0.41354965662E+02  0.97250345867E+02  0.13362771587E+03  0.80405762604E+02 0.  0.
          4    1    4    4  502    0  0.17258763288E+02  0.15731630075E+02  0.83159553077E+01  0.24789195383E+02  0.00000000000E+00 0. -1.
         -3    1    4    4    0  502 -0.75466501265E+02  0.54053158139E+02  0.13006753560E+03  0.15979518308E+03  0.00000000000E+00 0.  1.
          5    1    3    3  503    0 -0.24834628245E+02 -0.61595933162E+02  0.11855722968E+03  0.13597324903E+03  0.47000000000E+01 0. -1.
         11    1    6    6    0    0 -0.25318953794E+02  0.81517369908E+01  0.39119962924E+02  0.47306149033E+02  0.00000000000E+00 0. -1.
        -12    1    6    6    0    0  0.40266088362E+02 -0.49506702653E+02  0.58130382943E+02  0.86321566834E+02  0.00000000000E+00 0.  1.
         -5    1    5    5    0  501  0.68095231653E+02  0.33166110610E+02  0.27445409202E+03  0.28475268233E+03  0.47000000000E+01 0.  1.
<mgrwt>
<rscale>  2 0.19185476E+03</rscale>
<asrwt>0</asrwt>
<pdfrwt beam="1">  1        2 0.10519870E+00 0.19185476E+03</pdfrwt>
<pdfrwt beam="2">  1       -2 0.84840672E-02 0.19185476E+03</pdfrwt>
<totfact> 0.36703456E+03</totfact>
</mgrwt>
</event>
<event>
12    1  0.5759937E-002  0.2135276E+03  0.7546771E-02  0.1138803E+00
         -2   -1    0    0    0  501 -0.00000000000E+00  0.00000000000E+00  0.10278924160E+03  0.10278924160E+03  0.00000000000E+00 0. -1.
          2   -1    0    0  503    0  0.00000000000E+00 -0.00000000000E+00 -0.11542082497E+04  0.11542082497E+04  0.00000000000E+00 0.  1.
          6    2    1    2  503    0 -0.12314479495E+03  0.26378759595E+02 -0.10162060656E+04  0.10378348825E+04  0.16901478063E+03 0.  0.
         24    2    3    3    0    0 -0.10990186326E+03  0.52631728956E+02 -0.98091409905E+03  0.99165906043E+03  0.79666203409E+02 0.  0.
         -6    2    1    2    0  501  0.12314479495E+03 -0.26378759595E+02 -0.35212942532E+02  0.21916260884E+03  0.17587443904E+03 0.  0.
        -24    2    5    5    0    0  0.14562518942E+03 -0.18606890350E+02  0.87957430905E+01  0.16891696726E+03  0.83082275913E+02 0.  0.
          2    1    4    4  502    0 -0.27143612265E+02  0.44701227894E+02 -0.21602772995E+03  0.22226775648E+03  0.00000000000E+00 0. -1.
         -1    1    4    4    0  502 -0.82758250997E+02  0.79305010626E+01 -0.76488636910E+03  0.76939130395E+03  0.00000000000E+00 0.  1.
          5    1    3    3  503    0 -0.13242931690E+02 -0.26252969361E+02 -0.35291966521E+02  0.46175822039E+02  0.47000000000E+01 0. -1.
         13    1    6    6    0    0  0.74436341303E+02 -0.42871864496E+02  0.29642785043E+02  0.90870569367E+02  0.00000000000E+00 0. -1.
        -14    1    6    6    0    0  0.71188848116E+02  0.24264974146E+02 -0.20847041952E+02  0.78046397896E+02  0.00000000000E+00 0.  1.
         -5    1    5    5    0  501 -0.22480394467E+02 -0.77718692449E+01 -0.44008685622E+02  0.50245641573E+02  0.47000000000E+01 0.  1.
<mgrwt>
<rscale>  2 0.21352762E+03</rscale>
<asrwt>0</asrwt>
<pdfrwt beam="2">  1        2 0.17757049E+00 0.21352762E+03</pdfrwt>
<pdfrwt beam="1">  1       -2 0.15813730E-01 0.21352762E+03</pdfrwt>
<totfact> 0.67122486E+02</totfact>
</mgrwt>
</event>
<event>
12    1  0.5759937E-002  0.2109501E+03  0.7546771E-02  0.1140816E+00
          2   -1    0    0  503    0  0.00000000000E+00  0.00000000000E+00  0.12532514652E+04  0.12532514652E+04  0.00000000000E+00 0. -1.
         -2   -1    0    0    0  501 -0.00000000000E+00 -0.00000000000E+00 -0.37403396765E+02  0.37403396765E+02  0.00000000000E+00 0.  1.
          6    2    1    2  503    0 -0.12054662655E+03 -0.39644673130E+01  0.75361955893E+03  0.78262758956E+03  0.17325212310E+03 0.  0.
         24    2    3    3    0    0 -0.36118321839E+02  0.21690132745E+02  0.16686871875E+03  0.18926013545E+03  0.78735217928E+02 0.  0.
         -6    2    1    2    0  501  0.12054662655E+03  0.39644673130E+01  0.46222850952E+03  0.50802727242E+03  0.17288524616E+03 0.  0.
        -24    2    5    5    0    0  0.34329657671E+02 -0.33088509602E+02  0.11030931143E+03  0.14378078884E+03  0.78939192971E+02 0.  0.
          4    1    4    4  502    0 -0.57753256225E+02  0.26011082154E+02  0.95804082893E+02  0.11484962907E+03  0.00000000000E+00 0. -1.
         -3    1    4    4    0  502  0.21634934386E+02 -0.43209494089E+01  0.71064635857E+02  0.74410506376E+02  0.00000000000E+00 0.  1.
          5    1    3    3  503    0 -0.84428304713E+02 -0.25654600058E+02  0.58675084018E+03  0.59336745411E+03  0.47000000000E+01 0. -1.
         11    1    6    6    0    0  0.49685817866E+02 -0.22672010332E+01  0.92473693502E+02  0.10500097470E+03  0.00000000000E+00 0. -1.
        -12    1    6    6    0    0 -0.15356160196E+02 -0.30821308569E+02  0.17835617931E+02  0.38779814142E+02  0.00000000000E+00 0.  1.
         -5    1    5    5    0  501  0.86216968882E+02  0.37052976915E+02  0.35191919809E+03  0.36424648358E+03  0.47000000000E+01 0.  1.
<mgrwt>
<rscale>  2 0.21095015E+03</rscale>
<asrwt>0</asrwt>
<pdfrwt beam="1">  1        2 0.19280789E+00 0.21095015E+03</pdfrwt>
<pdfrwt beam="2">  1       -2 0.57543697E-02 0.21095015E+03</pdfrwt>
<totfact> 0.29331585E+03</totfact>
</mgrwt>
</event>
<event>
12    1  0.5759937E-002  0.1734725E+03  0.7546771E-02  0.1174274E+00
          1   -1    0    0  503    0  0.00000000000E+00  0.00000000000E+00  0.92459765073E+02  0.92459765073E+02  0.00000000000E+00 0. -1.
         -1   -1    0    0    0  501 -0.00000000000E+00 -0.00000000000E+00 -0.46997576234E+03  0.46997576234E+03  0.00000000000E+00 0.  1.
          6    2    1    2  503    0  0.17588938612E+01 -0.33755334289E+02 -0.34512796455E+03  0.38653197337E+03  0.17073704409E+03 0.  0.
         24    2    3    3    0    0 -0.47436391415E+02 -0.55959161559E+01 -0.29869163437E+03  0.31310478711E+03  0.80847942189E+02 0.  0.
         -6    2    1    2    0  501 -0.17588938612E+01  0.33755334289E+02 -0.32388032722E+02  0.17590355404E+03  0.16955989903E+03 0.  0.
        -24    2    5    5    0    0  0.50593804087E+02  0.48751228274E+02 -0.37478835873E+02  0.12100648585E+03  0.91112519504E+02 0.  0.
          2    1    4    4  502    0  0.14907235612E+02  0.18182542999E+02 -0.12176710019E+03  0.12401635872E+03  0.00000000000E+00 0. -1.
         -1    1    4    4    0  502 -0.62343627027E+02 -0.23778459155E+02 -0.17692453419E+03  0.18908842838E+03  0.00000000000E+00 0.  1.
          5    1    3    3  503    0  0.49195285276E+02 -0.28159418133E+02 -0.46436330175E+02  0.73427186268E+02  0.47000000000E+01 0. -1.
         11    1    6    6    0    0  0.54718551067E+02  0.11473851681E+02  0.13694192575E+02  0.57561271820E+02  0.00000000000E+00 0. -1.
        -12    1    6    6    0    0 -0.41247469806E+01  0.37277376593E+02 -0.51173028448E+02  0.63445214034E+02  0.00000000000E+00 0.  1.
         -5    1    5    5    0  501 -0.52352697948E+02 -0.14995893985E+02  0.50908031516E+01  0.54897068187E+02  0.47000000000E+01 0.  1.
<mgrwt>
<rscale>  2 0.17347247E+03</rscale>
<asrwt>0</asrwt>
<pdfrwt beam="1">  1        1 0.14224580E-01 0.17347247E+03</pdfrwt>
<pdfrwt beam="2">  1       -1 0.72303962E-01 0.17347247E+03</pdfrwt>
<totfact> 0.79920042E+02</totfact>
</mgrwt>
</event>
<event>
12    1  0.5759937E-002  0.1799353E+03  0.7546771E-02  0.1167866E+00
         -1   -1    0    0    0  501 -0.00000000000E+00  0.00000000000E+00  0.57161029149E+02  0.57161029149E+02  0.00000000000E+00 0. -1.
          1   -1    0    0  503    0  0.00000000000E+00 -0.00000000000E+00 -0.59057320922E+03  0.59057320922E+03  0.00000000000E+00 0.  1.
          6    2    1    2  503    0 -0.46154787483E+02 -0.25674872204E+02 -0.33417028546E+03  0.38020842386E+03  0.17349121711E+03 0.  0.
         24    2    3    3    0    0 -0.33172228906E+02  0.52332200038E+02 -0.16369308104E+03  0.19222380381E+03  0.79470183331E+02 0.  0.
         -6    2    1    2    0  501  0.46154787483E+02  0.25674872204E+02 -0.19924189460E+03  0.26752581451E+03  0.17053816404E+03 0.  0.
        -24    2    5    5    0    0  0.18436930113E+02 -0.16706519821E+02 -0.19978015955E+03  0.21666481043E+03  0.80078085206E+02 0.  0.
          2    1    4    4  502    0 -0.53957699083E+02  0.12138428356E+02 -0.96219311042E+02  0.11098166763E+03  0.00000000000E+00 0. -1.
         -1    1    4    4    0  502  0.20785470177E+02  0.40193771682E+02 -0.67473769995E+02  0.81242136172E+02  0.00000000000E+00 0.  1.
          5    1    3    3  503    0 -0.12982558577E+02 -0.78007072242E+02 -0.17047720443E+03  0.18798462005E+03  0.47000000000E+01 0. -1.
         11    1    6    6    0    0 -0.25123517297E+02 -0.41745505861E+01 -0.23510937982E+02  0.34660960730E+02  0.00000000000E+00 0. -1.
        -12    1    6    6    0    0  0.43560447410E+02 -0.12531969235E+02 -0.17626922157E+03  0.18200384970E+03  0.00000000000E+00 0.  1.
         -5    1    5    5    0  501  0.27717857370E+02  0.42381392025E+02  0.53826494817E+00  0.50861004082E+02  0.47000000000E+01 0.  1.
<mgrwt>
<rscale>  2 0.17993530E+03</rscale>
<asrwt>0</asrwt>
<pdfrwt beam="2">  1        1 0.90857424E-01 0.17993530E+03</pdfrwt>
<pdfrwt beam="1">  1       -1 0.87940038E-02 0.17993530E+03</pdfrwt>
<totfact> 0.26415520E+03</totfact>
</mgrwt>
</event>
<event>
12    1  0.5759937E-002  0.1849225E+03  0.7546771E-02  0.1163122E+00
          2   -1    0    0  503    0  0.00000000000E+00  0.00000000000E+00  0.67934412381E+03  0.67934412381E+03  0.00000000000E+00 0.  1.
         -2   -1    0    0    0  501 -0.00000000000E+00 -0.00000000000E+00 -0.70521067343E+02  0.70521067343E+02  0.00000000000E+00 0. -1.
          6    2    1    2  503    0 -0.47382315406E+02 -0.33191117426E+02  0.50813262571E+03  0.54168229551E+03  0.17853349788E+03 0.  0.
         24    2    3    3    0    0 -0.30753443783E+02  0.97645017741E+01  0.47874735598E+03  0.48684354398E+03  0.82319412402E+02 0.  0.
         -6    2    1    2    0  501  0.47382315406E+02  0.33191117426E+02  0.10069043075E+03  0.20818289564E+03  0.17278547712E+03 0.  0.
        -24    2    5    5    0    0 -0.26561831500E+02  0.52074390322E+02  0.28432117019E+02  0.10297990728E+03  0.79869913013E+02 0.  0.
          2    1    4    4  502    0 -0.27233686068E+02  0.41075536251E+02  0.18647312300E+03  0.19287586406E+03  0.00000000000E+00 0. -1.
         -1    1    4    4    0  502 -0.35197577147E+01 -0.31311034477E+02  0.29227423298E+03  0.29396767992E+03  0.00000000000E+00 0.  1.
          5    1    3    3  503    0 -0.16628871623E+02 -0.42955619200E+02  0.29385269736E+02  0.54838751534E+02  0.47000000000E+01 0. -1.
         11    1    6    6    0    0  0.22161367958E+02  0.11280225279E+02 -0.12051834820E+02  0.27633610597E+02  0.00000000000E+00 0. -1.
        -12    1    6    6    0    0 -0.48723199458E+02  0.40794165043E+02  0.40483951839E+02  0.75346296681E+02  0.00000000000E+00 0.  1.
         -5    1    5    5    0  501  0.73944146906E+02 -0.18883272896E+02  0.72258313732E+02  0.10520298836E+03  0.47000000000E+01 0.  1.
<mgrwt>
<rscale>  2 0.18492254E+03</rscale>
<asrwt>0</asrwt>
<pdfrwt beam="1">  1        2 0.10451448E+00 0.18492254E+03</pdfrwt>
<pdfrwt beam="2">  1       -2 0.10849395E-01 0.18492254E+03</pdfrwt>
<totfact> 0.25064135E+03</totfact>
</mgrwt>
</event>
<event>
12    1  0.5759937E-002  0.3301696E+03  0.7546771E-02  0.1071062E+00
         -2   -1    0    0    0  501 -0.00000000000E+00  0.00000000000E+00  0.35941433063E+03  0.35941433063E+03  0.00000000000E+00 0. -1.
          2   -1    0    0  503    0  0.00000000000E+00 -0.00000000000E+00 -0.49265828937E+03  0.49265828937E+03  0.00000000000E+00 0.  1.
          6    2    1    2  503    0  0.70418782759E+02 -0.27216479301E+03 -0.33075167244E+03  0.46736465357E+03  0.17320672927E+03 0.  0.
         24    2    3    3    0    0  0.39012352719E+02 -0.42632775008E+02 -0.98823048922E+02  0.13951668950E+03  0.79745811690E+02 0.  0.
         -6    2    1    2    0  501 -0.70418782759E+02  0.27216479301E+03  0.19750771370E+03  0.38470796642E+03  0.17308507428E+03 0.  0.
        -24    2    5    5    0    0 -0.59871575085E+02  0.12800882533E+03  0.33357000054E+02  0.16593929088E+03  0.80326172198E+02 0.  0.
          4    1    4    4  502    0  0.21982807599E+02 -0.56158768639E+02 -0.30036024988E+02  0.67373688648E+02  0.00000000000E+00 0. -1.
         -3    1    4    4    0  502  0.17029545120E+02  0.13525993631E+02 -0.68787023934E+02  0.72143000855E+02  0.00000000000E+00 0.  1.
          5    1    3    3  503    0  0.31406430040E+02 -0.22953201800E+03 -0.23192862352E+03  0.32784796407E+03  0.47000000000E+01 0. -1.
         13    1    6    6    0    0 -0.53722262858E+02  0.10966089213E+03  0.57520561391E+02  0.13498224984E+03  0.00000000000E+00 0. -1.
        -14    1    6    6    0    0 -0.61493122269E+01  0.18347933206E+02 -0.24163561337E+02  0.30957041045E+02  0.00000000000E+00 0.  1.
         -5    1    5    5    0  501 -0.10547207674E+02  0.14415596768E+03  0.16415071365E+03  0.21876867554E+03  0.47000000000E+01 0.  1.
<mgrwt>
<rscale>  2 0.33016963E+03</rscale>
<asrwt>0</asrwt>
<pdfrwt beam="2">  1        2 0.75793582E-01 0.33016963E+03</pdfrwt>
<pdfrwt beam="1">  1       -2 0.55294513E-01 0.33016963E+03</pdfrwt>
<totfact> 0.19901217E+02</totfact>
</mgrwt>
</event>
<event>
12    1  0.5759937E-002  0.1755635E+03  0.7546771E-02  0.1172167E+00
         -1   -1    0    0    0  501 -0.00000000000E+00  0.00000000000E+00  0.13639254135E+03  0.13639254135E+03  0.00000000000E+00 0. -1.
          1   -1    0    0  503    0  0.00000000000E+00 -0.00000000000E+00 -0.30573356018E+03  0.30573356018E+03  0.00000000000E+00 0.  1.
          6    2    1    2  503    0 -0.25698678174E+02  0.13405769744E+02 -0.19775948747E+03  0.26479442677E+03  0.17368689312E+03 0.  0.
         24    2    3    3    0    0 -0.63876256212E+02  0.43115455170E+02 -0.18036561440E+03  0.21317243830E+03  0.83496197598E+02 0.  0.
         -6    2    1    2    0  501  0.25698678174E+02 -0.13405769744E+02  0.28418468645E+02  0.17733167476E+03  0.17262322205E+03 0.  0.
        -24    2    5    5    0    0  0.19700470130E+02 -0.61996119805E+02 -0.23339663912E+02  0.10593143033E+03  0.80281384061E+02 0.  0.
          2    1    4    4  502    0 -0.51458328088E+02 -0.85585003615E+01 -0.49439714761E+02  0.71871363238E+02  0.00000000000E+00 0. -1.
         -1    1    4    4    0  502 -0.12417928124E+02  0.51673955531E+02 -0.13092589964E+03  0.14130107507E+03  0.00000000000E+00 0.  1.
          5    1    3    3  503    0  0.38177578038E+02 -0.29709685426E+02 -0.17393873077E+02  0.51621988470E+02  0.47000000000E+01 0. -1.
         11    1    6    6    0    0  0.15097046391E+02 -0.12785142799E+02  0.28248705641E+02  0.34487244838E+02  0.00000000000E+00 0. -1.
        -12    1    6    6    0    0  0.46034237391E+01 -0.49210977007E+02 -0.51588369553E+02  0.71444185496E+02  0.00000000000E+00 0.  1.
         -5    1    5    5    0  501  0.59982080438E+01  0.48590350061E+02  0.51758132557E+02  0.71400244430E+02  0.47000000000E+01 0.  1.
<mgrwt>
<rscale>  2 0.17556350E+03</rscale>
<asrwt>0</asrwt>
<pdfrwt beam="2">  1        1 0.47035932E-01 0.17556350E+03</pdfrwt>
<pdfrwt beam="1">  1       -1 0.20983468E-01 0.17556350E+03</pdfrwt>
<totfact> 0.15778158E+03</totfact>
</mgrwt>
</event>
<event>
12    1  0.5759937E-002  0.1842964E+03  0.7546771E-02  0.1163709E+00
          1   -1    0    0  503    0  0.00000000000E+00  0.00000000000E+00  0.40312835720E+02  0.40312835720E+02  0.00000000000E+00 0. -1.
         -1   -1    0    0    0  501 -0.00000000000E+00 -0.00000000000E+00 -0.13565833857E+04  0.13565833857E+04  0.00000000000E+00 0.  1.
          6    2    1    2  503    0  0.20863829363E+02  0.49057597559E+02 -0.10965093388E+04  0.11125491275E+04  0.18052945383E+03 0.  0.
         24    2    3    3    0    0  0.75626901560E+02  0.48972510199E+02 -0.93649064168E+03  0.94335375300E+03  0.69165355028E+02 0.  0.
         -6    2    1    2    0  501 -0.20863829363E+02 -0.49057597559E+02 -0.21976121111E+03  0.28434709388E+03  0.17238425867E+03 0.  0.
        -24    2    5    5    0    0  0.29263442727E+02 -0.72578254789E+02 -0.88315380962E+02  0.14163738508E+03  0.78342773688E+02 0.  0.
          4    1    4    4  502    0  0.51922799341E+02  0.39771953554E+01 -0.67221899646E+03  0.67423302676E+03  0.00000000000E+00 0. -1.
         -3    1    4    4    0  502  0.23704102219E+02  0.44995314843E+02 -0.26427164523E+03  0.26912072624E+03  0.00000000000E+00 0.  1.
          5    1    3    3  503    0 -0.54763072197E+02  0.85087359879E-01 -0.16001869716E+03  0.16919537452E+03  0.47000000000E+01 0. -1.
         11    1    6    6    0    0  0.14491565801E+02 -0.43201568730E+02 -0.97393068102E+02  0.10752576777E+03  0.00000000000E+00 0. -1.
        -12    1    6    6    0    0  0.14771876926E+02 -0.29376686058E+02  0.90776871395E+01  0.34111617310E+02  0.00000000000E+00 0.  1.
         -5    1    5    5    0  501 -0.50127272090E+02  0.23520657230E+02 -0.13144583015E+03  0.14270970880E+03  0.47000000000E+01 0.  1.
<mgrwt>
<rscale>  2 0.18429639E+03</rscale>
<asrwt>0</asrwt>
<pdfrwt beam="1">  1        1 0.62019754E-02 0.18429639E+03</pdfrwt>
<pdfrwt beam="2">  1       -1 0.20870511E+00 0.18429639E+03</pdfrwt>
<totfact> 0.18182239E+02</totfact>
</mgrwt>
</event>
<event>
12    1  0.5759937E-002  0.2859562E+03  0.7546771E-02  0.1092480E+00
          1   -1    0    0  503    0  0.00000000000E+00  0.00000000000E+00  0.83991186041E+03  0.83991186041E+03  0.00000000000E+00 0. -1.
         -1   -1    0    0    0  501 -0.00000000000E+00 -0.00000000000E+00 -0.11864436789E+03  0.11864436789E+03  0.00000000000E+00 0.  1.
          6    2    1    2  503    0  0.88520811207E+02  0.20199788596E+03  0.55733885130E+03  0.62378419195E+03  0.17274560200E+03 0.  0.
         24    2    3    3    0    0  0.10917666487E+03  0.10726160942E+03  0.28887338854E+03  0.33830666030E+03  0.87057250065E+02 0.  0.
         -6    2    1    2    0  501 -0.88520811207E+02 -0.20199788596E+03  0.16392864122E+03  0.33477203635E+03  0.19120836007E+03 0.  0.
        -24    2    5    5    0    0 -0.11488571997E+03 -0.10875960244E+03  0.15848700212E+03  0.23761140974E+03  0.79458620814E+02 0.  0.
          4    1    4    4  502    0  0.92308515386E+02  0.45989682017E+02  0.22829469828E+03  0.25050824763E+03  0.00000000000E+00 0. -1.
         -3    1    4    4    0  502  0.16868149486E+02  0.61271927403E+02  0.60578690259E+02  0.87798412675E+02  0.00000000000E+00 0.  1.
          5    1    3    3  503    0 -0.20655853665E+02  0.94736276538E+02  0.26846546275E+03  0.28547753165E+03  0.47000000000E+01 0. -1.
         13    1    6    6    0    0 -0.24976613649E+02 -0.52783117468E+02  0.10211673567E+03  0.11763382346E+03  0.00000000000E+00 0. -1.
        -14    1    6    6    0    0 -0.89909106319E+02 -0.55976484977E+02  0.56370266454E+02  0.11997758628E+03  0.00000000000E+00 0.  1.
         -5    1    5    5    0  501  0.26364908761E+02 -0.93238283513E+02  0.54416390993E+01  0.97160626606E+02  0.47000000000E+01 0.  1.
<mgrwt>
<rscale>  2 0.28595616E+03</rscale>
<asrwt>0</asrwt>
<pdfrwt beam="1">  1        1 0.12921721E+00 0.28595616E+03</pdfrwt>
<pdfrwt beam="2">  1       -1 0.18252980E-01 0.28595616E+03</pdfrwt>
<totfact> 0.50181958E+02</totfact>
</mgrwt>
</event>
<event>
12    1  0.5759937E-002  0.1926347E+03  0.7546771E-02  0.1156106E+00
         -2   -1    0    0    0  501 -0.00000000000E+00  0.00000000000E+00  0.24575471744E+03  0.24575471744E+03  0.00000000000E+00 0. -1.
          2   -1    0    0  503    0  0.00000000000E+00 -0.00000000000E+00 -0.35079860979E+03  0.35079860979E+03  0.00000000000E+00 0.  1.
          6    2    1    2  503    0  0.34062892160E+02 -0.73547098394E+02  0.17242550150E+03  0.25951460801E+03  0.17620392135E+03 0.  0.
         24    2    3    3    0    0  0.63405775586E+02 -0.75619346549E+02  0.18455484582E+03  0.22735080827E+03  0.88821849529E+02 0.  0.
         -6    2    1    2    0  501 -0.34062892160E+02  0.73547098394E+02 -0.27746939385E+03  0.33703871922E+03  0.17331006153E+03 0.  0.
        -24    2    5    5    0    0  0.15962952224E+02  0.89701265932E+02 -0.24808803473E+03  0.27663262269E+03  0.81711700537E+02 0.  0.
          4    1    4    4  502    0  0.84926322616E+02 -0.60001542397E+02  0.12844910452E+03  0.16526293539E+03  0.00000000000E+00 0. -1.
         -3    1    4    4    0  502 -0.21520547030E+02 -0.15617804152E+02  0.56105741304E+02  0.62087872876E+02  0.00000000000E+00 0.  1.
          5    1    3    3  503    0 -0.29342883426E+02  0.20722481545E+01 -0.12129344322E+02  0.32163799742E+02  0.47000000000E+01 0. -1.
         13    1    6    6    0    0 -0.21919722146E+02  0.72147568505E+02 -0.19515010283E+03  0.20921115767E+03  0.00000000000E+00 0. -1.
        -14    1    6    6    0    0  0.37882674370E+02  0.17553697428E+02 -0.52937931902E+02  0.67421465015E+02  0.00000000000E+00 0.  1.
         -5    1    5    5    0  501 -0.50025844384E+02 -0.16154167538E+02 -0.29381359120E+02  0.60406096537E+02  0.47000000000E+01 0.  1.
<mgrwt>
<rscale>  2 0.19263465E+03</rscale>
<asrwt>0</asrwt>
<pdfrwt beam="2">  1        2 0.53969017E-01 0.19263465E+03</pdfrwt>
<pdfrwt beam="1">  1       -2 0.37808418E-01 0.19263465E+03</pdfrwt>
<totfact> 0.61372550E+02</totfact>
</mgrwt>
</event>
<event>
12    1  0.5759937E-002  0.2353336E+03  0.7546771E-02  0.1122941E+00
         -1   -1    0    0    0  501 -0.00000000000E+00  0.00000000000E+00  0.16658560392E+03  0.16658560392E+03  0.00000000000E+00 0. -1.
          1   -1    0    0  503    0  0.00000000000E+00 -0.00000000000E+00 -0.39625708173E+03  0.39625708173E+03  0.00000000000E+00 0.  1.
          6    2    1    2  503    0  0.15995992215E+03 -0.14207460095E+01 -0.17493298405E+01  0.23494519694E+03  0.17206681899E+03 0.  0.
         24    2    3    3    0    0  0.24391721144E+02 -0.20495712938E+02 -0.36378568527E+02  0.93651652646E+02  0.80201006765E+02 0.  0.
         -6    2    1    2    0  501 -0.15995992215E+03  0.14207460095E+01 -0.22792214797E+03  0.32789748871E+03  0.17314462844E+03 0.  0.
        -24    2    5    5    0    0 -0.14467126215E+03  0.53679316863E+02 -0.13577058638E+03  0.22075878583E+03  0.80557719959E+02 0.  0.
          2    1    4    4  502    0 -0.18883564817E+01 -0.46577524741E+02 -0.86923063665E+01  0.47419277632E+02  0.00000000000E+00 0. -1.
         -1    1    4    4    0  502  0.26280077626E+02  0.26081811804E+02 -0.27686262161E+02  0.46232375014E+02  0.00000000000E+00 0.  1.
          5    1    3    3  503    0  0.13556820100E+03  0.19074966928E+02  0.34629238687E+02  0.14129354429E+03  0.47000000000E+01 0. -1.
         11    1    6    6    0    0 -0.44724545324E+02 -0.17706344770E+02 -0.20400890819E+02  0.52249363114E+02  0.00000000000E+00 0. -1.
        -12    1    6    6    0    0 -0.99946716823E+02  0.71385661632E+02 -0.11536969556E+03  0.16850942272E+03  0.00000000000E+00 0.  1.
         -5    1    5    5    0  501 -0.15288660000E+02 -0.52258570853E+02 -0.92151561585E+02  0.10713870288E+03  0.47000000000E+01 0.  1.
<mgrwt>
<rscale>  2 0.23533361E+03</rscale>
<asrwt>0</asrwt>
<pdfrwt beam="2">  1        1 0.60962627E-01 0.23533361E+03</pdfrwt>
<pdfrwt beam="1">  1       -1 0.25628555E-01 0.23533361E+03</pdfrwt>
<totfact> 0.82110998E+02</totfact>
</mgrwt>
</event>
<event>
12    1  0.5759937E-002  0.1837528E+03  0.7546771E-02  0.1164220E+00
          2   -1    0    0  503    0  0.00000000000E+00  0.00000000000E+00  0.18265670996E+04  0.18265670996E+04  0.00000000000E+00 0.  1.
         -2   -1    0    0    0  501 -0.00000000000E+00 -0.00000000000E+00 -0.25227120728E+02  0.25227120728E+02  0.00000000000E+00 0. -1.
          6    2    1    2  503    0 -0.16091652789E+02  0.65792693523E+02  0.42929282587E+03  0.46775908910E+03  0.17296998375E+03 0.  0.
         24    2    3    3    0    0  0.33893196987E+02  0.93618418854E+02  0.27174623407E+03  0.30008149732E+03  0.79307831581E+02 0.  0.
         -6    2    1    2    0  501  0.16091652789E+02 -0.65792693523E+02  0.13720471530E+04  0.13840351312E+04  0.16867790197E+03 0.  0.
        -24    2    5    5    0    0 -0.19978805947E+02 -0.81206372888E+02  0.60446977527E+03  0.61544175349E+03  0.79945075128E+02 0.  0.
          4    1    4    4  502    0  0.25828302666E+02  0.61743420589E+02  0.74641365998E+02  0.10025310331E+03  0.00000000000E+00 0. -1.
         -3    1    4    4    0  502  0.80648943211E+01  0.31874998264E+02  0.19710486807E+03  0.19982839401E+03  0.00000000000E+00 0.  1.
          5    1    3    3  503    0 -0.49984849776E+02 -0.27825725331E+02  0.15754659180E+03  0.16767759178E+03  0.47000000000E+01 0. -1.
         13    1    6    6    0    0 -0.46729162670E+02 -0.54257059566E+02  0.47991258127E+03  0.48522523514E+03  0.00000000000E+00 0. -1.
        -14    1    6    6    0    0  0.26750356723E+02 -0.26949313322E+02  0.12455719400E+03  0.13021651834E+03  0.00000000000E+00 0.  1.
         -5    1    5    5    0  501  0.36070458737E+02  0.15413679365E+02  0.76757737774E+03  0.76859337775E+03  0.47000000000E+01 0.  1.
<mgrwt>
<rscale>  2 0.18375278E+03</rscale>
<asrwt>0</asrwt>
<pdfrwt beam="1">  1        2 0.28101022E+00 0.18375278E+03</pdfrwt>
<pdfrwt beam="2">  1       -2 0.38810969E-02 0.18375278E+03</pdfrwt>
<totfact> 0.26405553E+03</totfact>
</mgrwt>
</event>
<event>
12    1  0.5759937E-002  0.2055367E+03  0.7546771E-02  0.1145150E+00
          2   -1    0    0  503    0  0.00000000000E+00  0.00000000000E+00  0.33874222680E+03  0.33874222680E+03  0.00000000000E+00 0.  1.
         -2   -1    0    0    0  501 -0.00000000000E+00 -0.00000000000E+00 -0.14221267393E+03  0.14221267393E+03  0.00000000000E+00 0. -1.
          6    2    1    2  503    0  0.11058809725E+03 -0.16424891001E+02  0.18246831346E+03  0.27457138860E+03  0.17203272283E+03 0.  0.
         24    2    3    3    0    0  0.12975795003E+03 -0.52251676116E+02  0.12412337023E+03  0.20331646465E+03  0.79772241459E+02 0.  0.
         -6    2    1    2    0  501 -0.11058809725E+03  0.16424891001E+02  0.14061239412E+02  0.20638351213E+03  0.17290729113E+03 0.  0.
        -24    2    5    5    0    0 -0.10128847281E+03  0.39726903170E+02  0.65500696109E+02  0.14895900089E+03  0.77851533038E+02 0.  0.
          2    1    4    4  502    0  0.39721896049E+02 -0.32444893522E+02  0.33756847784E+01  0.51399371486E+02  0.00000000000E+00 0. -1.
         -1    1    4    4    0  502  0.90036053976E+02 -0.19806782595E+02  0.12074768546E+03  0.15191709316E+03  0.00000000000E+00 0.  1.
          5    1    3    3  503    0 -0.19169852778E+02  0.35826785115E+02  0.58344943224E+02  0.71254923950E+02  0.47000000000E+01 0. -1.
         11    1    6    6    0    0 -0.73327148654E+01  0.34428254709E+02  0.16539419132E+01  0.35239309776E+02  0.00000000000E+00 0. -1.
        -12    1    6    6    0    0 -0.93955757940E+02  0.52986484610E+01  0.63846754195E+02  0.11371969111E+03  0.00000000000E+00 0.  1.
         -5    1    5    5    0  501 -0.92996244422E+01 -0.23302012169E+02 -0.51439456697E+02  0.57424511240E+02  0.47000000000E+01 0.  1.
<mgrwt>
<rscale>  2 0.20553669E+03</rscale>
<asrwt>0</asrwt>
<pdfrwt beam="1">  1        2 0.52114189E-01 0.20553669E+03</pdfrwt>
<pdfrwt beam="2">  1       -2 0.21878873E-01 0.20553669E+03</pdfrwt>
<totfact> 0.17092876E+03</totfact>
</mgrwt>
</event>
<event>
12    1  0.5759937E-002  0.2122618E+03  0.7546771E-02  0.1139787E+00
         -1   -1    0    0    0  501 -0.00000000000E+00  0.00000000000E+00  0.57850107730E+03  0.57850107730E+03  0.00000000000E+00 0.  1.
          1   -1    0    0  503    0  0.00000000000E+00 -0.00000000000E+00 -0.81112340243E+02  0.81112340243E+02  0.00000000000E+00 0. -1.
          6    2    1    2  503    0  0.96282201460E+02 -0.63477161484E+02  0.31120679027E+03  0.37513932126E+03  0.17487204380E+03 0.  0.
         24    2    3    3    0    0  0.72028884303E+02 -0.41588012436E+02  0.32042871560E+03  0.34086845687E+03  0.81234353298E+02 0.  0.
         -6    2    1    2    0  501 -0.96282201460E+02  0.63477161484E+02  0.18618194679E+03  0.28447409628E+03  0.18155490023E+03 0.  0.
        -24    2    5    5    0    0 -0.66171213724E+02  0.92674401690E+02  0.60450464223E+02  0.15184813304E+03  0.80227318461E+02 0.  0.
          2    1    4    4  502    0  0.42188226563E+02 -0.58243365815E+02  0.14174191759E+03  0.15894309461E+03  0.00000000000E+00 0. -1.
         -1    1    4    4    0  502  0.29840657741E+02  0.16655353379E+02  0.17868679801E+03  0.18192536227E+03  0.00000000000E+00 0.  1.
          5    1    3    3  503    0  0.24253317156E+02 -0.21889149048E+02 -0.92219253360E+01  0.34270864390E+02  0.47000000000E+01 0. -1.
         11    1    6    6    0    0 -0.50344382625E+01 -0.12063749436E+02  0.20212903078E+02  0.24071582206E+02  0.00000000000E+00 0. -1.
        -12    1    6    6    0    0 -0.61136775461E+02  0.10473815113E+03  0.40237561145E+02  0.12777655083E+03  0.00000000000E+00 0.  1.
         -5    1    5    5    0  501 -0.30110987736E+02 -0.29197240206E+02  0.12573148257E+03  0.13262596325E+03  0.47000000000E+01 0.  1.
<mgrwt>
<rscale>  2 0.21226182E+03</rscale>
<asrwt>0</asrwt>
<pdfrwt beam="2">  1        1 0.12478822E-01 0.21226182E+03</pdfrwt>
<pdfrwt beam="1">  1       -1 0.89000163E-01 0.21226182E+03</pdfrwt>
<totfact> 0.61941494E+02</totfact>
</mgrwt>
</event>
<event>
12    1  0.5759937E-002  0.1793155E+03  0.7546771E-02  0.1168467E+00
          2   -1    0    0  503    0  0.00000000000E+00  0.00000000000E+00  0.32824544823E+03  0.32824544823E+03  0.00000000000E+00 0.  1.
         -2   -1    0    0    0  501 -0.00000000000E+00 -0.00000000000E+00 -0.98857450516E+02  0.98857450516E+02  0.00000000000E+00 0. -1.
          6    2    1    2  503    0  0.79703745539E+01 -0.45987600316E+02  0.13597495352E+03  0.22628958644E+03  0.17475526513E+03 0.  0.
         24    2    3    3    0    0 -0.22019538684E+02  0.38051958609E+02  0.60225557956E+02  0.10914820481E+03  0.79708225074E+02 0.  0.
         -6    2    1    2    0  501 -0.79703745539E+01  0.45987600316E+02  0.93413044187E+02  0.20081331231E+03  0.17152726699E+03 0.  0.
        -24    2    5    5    0    0 -0.35520951216E+02  0.35819233718E+02 -0.87799350489E+01  0.94380587270E+02  0.79283368460E+02 0.  0.
          2    1    4    4  502    0 -0.63461028505E+01  0.35086479405E+02 -0.10082034950E+02  0.37053764818E+02  0.00000000000E+00 0. -1.
         -1    1    4    4    0  502 -0.15673435834E+02  0.29654792042E+01  0.70307592906E+02  0.72094439993E+02  0.00000000000E+00 0.  1.
          5    1    3    3  503    0  0.29989913238E+02 -0.84039558925E+02  0.75749395569E+02  0.11714138163E+03  0.47000000000E+01 0. -1.
         13    1    6    6    0    0 -0.53163481746E+02 -0.76580807752E+00 -0.79124614731E+01  0.53754528181E+02  0.00000000000E+00 0. -1.
        -14    1    6    6    0    0  0.17642530530E+02  0.36585041796E+02 -0.86747357585E+00  0.40626059089E+02  0.00000000000E+00 0.  1.
         -5    1    5    5    0  501  0.27550576662E+02  0.10168366598E+02  0.10219297924E+03  0.10643272504E+03  0.47000000000E+01 0.  1.
<mgrwt>
<rscale>  2 0.17931545E+03</rscale>
<asrwt>0</asrwt>
<pdfrwt beam="1">  1        2 0.50499299E-01 0.17931545E+03</pdfrwt>
<pdfrwt beam="2">  1       -2 0.15208839E-01 0.17931545E+03</pdfrwt>
<totfact> 0.32493469E+03</totfact>
</mgrwt>
</event>
<event>
12    1  0.5759937E-002  0.1739256E+03  0.7546771E-02  0.1173815E+00
          2   -1    0    0  503    0  0.00000000000E+00  0.00000000000E+00  0.41072008306E+03  0.41072008306E+03  0.00000000000E+00 0. -1.
         -2   -1    0    0    0  501 -0.00000000000E+00 -0.00000000000E+00 -0.75197282496E+02  0.75197282496E+02  0.00000000000E+00 0.  1.
          6    2    1    2  503    0  0.30094017962E+02  0.99868891093E+01  0.13027369957E+03  0.21486000228E+03  0.16789340639E+03 0.  0.
         24    2    3    3    0    0  0.19345884150E+02  0.72598743592E+02  0.72653962336E+02  0.12896535273E+03  0.75555431025E+02 0.  0.
         -6    2    1    2    0  501 -0.30094017962E+02 -0.99868891093E+01  0.20524910099E+03  0.27105736328E+03  0.17418241259E+03 0.  0.
        -24    2    5    5    0    0 -0.79309459631E+02  0.16293176986E+02  0.98996486000E+02  0.15095528267E+03  0.80198099246E+02 0.  0.
          4    1    4    4  502    0  0.76912994283E+01  0.80903207100E+02  0.78975361495E+02  0.11332075154E+03  0.00000000000E+00 0. -1.
         -3    1    4    4    0  502  0.11654584721E+02 -0.83044635079E+01 -0.63213991585E+01  0.15644601193E+02  0.00000000000E+00 0.  1.
          5    1    3    3  503    0  0.10748133812E+02 -0.62611854483E+02  0.57619737237E+02  0.85894649551E+02  0.47000000000E+01 0. -1.
         13    1    6    6    0    0 -0.92295987608E+02  0.17370591499E+02  0.10083292127E+03  0.13779537289E+03  0.00000000000E+00 0. -1.
        -14    1    6    6    0    0  0.12986527977E+02 -0.10774145131E+01 -0.18364352726E+01  0.13159909781E+02  0.00000000000E+00 0.  1.
         -5    1    5    5    0  501  0.49215441669E+02 -0.26280066095E+02  0.10625261499E+03  0.12010208061E+03  0.47000000000E+01 0.  1.
<mgrwt>
<rscale>  2 0.17392563E+03</rscale>
<asrwt>0</asrwt>
<pdfrwt beam="1">  1        2 0.63187704E-01 0.17392563E+03</pdfrwt>
<pdfrwt beam="2">  1       -2 0.11568813E-01 0.17392563E+03</pdfrwt>
<totfact> 0.39764686E+03</totfact>
</mgrwt>
</event>
<event>
12    1  0.5759937E-002  0.1777394E+03  0.7546771E-02  0.1170009E+00
         -1   -1    0    0    0  501 -0.00000000000E+00  0.00000000000E+00  0.13274873760E+02  0.13274873760E+02  0.00000000000E+00 0. -1.
          1   -1    0    0  503    0  0.00000000000E+00 -0.00000000000E+00 -0.23852000274E+04  0.23852000274E+04  0.00000000000E+00 0.  1.
          6    2    1    2  503    0 -0.93650981332E+00 -0.39693384556E+02 -0.12413756975E+04  0.12539989869E+04  0.17298379983E+03 0.  0.
         24    2    3    3    0    0 -0.45745239085E+02 -0.75216615175E+02 -0.88027802487E+03  0.88837166119E+03  0.81022473719E+02 0.  0.
         -6    2    1    2    0  501  0.93650981332E+00  0.39693384556E+02 -0.11305494562E+04  0.11444759143E+04  0.17351254619E+03 0.  0.
        -24    2    5    5    0    0  0.53732483245E+02  0.11514745228E+02 -0.93183865660E+03  0.93689575532E+03  0.80191054987E+02 0.  0.
          2    1    4    4  502    0 -0.64478091169E+02 -0.35379241993E+02 -0.46703271812E+03  0.47278819232E+03  0.00000000000E+00 0. -1.
         -1    1    4    4    0  502  0.18732852083E+02 -0.39837373182E+02 -0.41324530675E+03  0.41558346887E+03  0.00000000000E+00 0.  1.
          5    1    3    3  503    0  0.44808729272E+02  0.35523230619E+02 -0.36109767262E+03  0.36562732570E+03  0.47000000000E+01 0. -1.
         13    1    6    6    0    0  0.35073996253E+02 -0.28950587652E+02 -0.29338588377E+03  0.29688987610E+03  0.00000000000E+00 0. -1.
        -14    1    6    6    0    0  0.18658486992E+02  0.40465332880E+02 -0.63845277283E+03  0.64000587922E+03  0.00000000000E+00 0.  1.
         -5    1    5    5    0  501 -0.52795973431E+02  0.28178639328E+02 -0.19871079960E+03  0.20758015898E+03  0.47000000000E+01 0.  1.
<mgrwt>
<rscale>  2 0.17773944E+03</rscale>
<asrwt>0</asrwt>
<pdfrwt beam="2">  1        1 0.36695423E+00 0.17773944E+03</pdfrwt>
<pdfrwt beam="1">  1       -1 0.20422862E-02 0.17773944E+03</pdfrwt>
<totfact> 0.12668175E+03</totfact>
</mgrwt>
</event>
<event>
12    1  0.5759937E-002  0.2699157E+03  0.7546771E-02  0.1101328E+00
          2   -1    0    0  503    0  0.00000000000E+00  0.00000000000E+00  0.13385265979E+04  0.13385265979E+04  0.00000000000E+00 0.  1.
         -2   -1    0    0    0  501 -0.00000000000E+00 -0.00000000000E+00 -0.56327206280E+02  0.56327206280E+02  0.00000000000E+00 0. -1.
          6    2    1    2  503    0  0.20010534139E+03 -0.56125541197E+02  0.77029849465E+03  0.81638846660E+03  0.17302639542E+03 0.  0.
         24    2    3    3    0    0  0.10583060567E+03 -0.93443411846E+02  0.52032702738E+03  0.54659563179E+03  0.89971000653E+02 0.  0.
         -6    2    1    2    0  501 -0.20010534139E+03  0.56125541197E+02  0.51190089697E+03  0.57846533758E+03  0.17142751947E+03 0.  0.
        -24    2    5    5    0    0 -0.13187858371E+03  0.10018571549E+03  0.39841450090E+03  0.43883209828E+03  0.80064708377E+02 0.  0.
          4    1    4    4  502    0  0.47555563702E+02 -0.81289035722E+02  0.20364861412E+03  0.22437066876E+03  0.00000000000E+00 0. -1.
         -3    1    4    4    0  502  0.58275041972E+02 -0.12154376124E+02  0.31667841326E+03  0.32222496303E+03  0.00000000000E+00 0.  1.
          5    1    3    3  503    0  0.94274735720E+02  0.37317870649E+02  0.24997146727E+03  0.26979283481E+03  0.47000000000E+01 0. -1.
         13    1    6    6    0    0 -0.22643576704E+02  0.50556947150E+02  0.70521963590E+02  0.89677666225E+02  0.00000000000E+00 0. -1.
        -14    1    6    6    0    0 -0.10923500700E+03  0.49628768339E+02  0.32789253731E+03  0.34915443206E+03  0.00000000000E+00 0.  1.
         -5    1    5    5    0  501 -0.68226757687E+02 -0.44060174292E+02  0.11348639607E+03  0.13963323929E+03  0.47000000000E+01 0.  1.
<mgrwt>
<rscale>  2 0.26991567E+03</rscale>
<asrwt>0</asrwt>
<pdfrwt beam="1">  1        2 0.20592715E+00 0.26991567E+03</pdfrwt>
<pdfrwt beam="2">  1       -2 0.86657250E-02 0.26991567E+03</pdfrwt>
<totfact> 0.13935149E+03</totfact>
</mgrwt>
</event>
<event>
12    1  0.5759937E-002  0.1763378E+03  0.7546771E-02  0.1171395E+00
         -1   -1    0    0    0  501 -0.00000000000E+00  0.00000000000E+00  0.64135114527E+02  0.64135114527E+02  0.00000000000E+00 0.  1.
          1   -1    0    0  503    0  0.00000000000E+00 -0.00000000000E+00 -0.51550750493E+03  0.51550750493E+03  0.00000000000E+00 0. -1.
          6    2    1    2  503    0  0.30867266932E+02  0.13713956633E+02 -0.15437201082E+03  0.23397209716E+03  0.17254380241E+03 0.  0.
         24    2    3    3    0    0 -0.15095666279E+02 -0.49511319099E+02 -0.99675636543E+02  0.13845345981E+03  0.80962202015E+02 0.  0.
         -6    2    1    2    0  501 -0.30867266932E+02 -0.13713956633E+02 -0.29700037959E+03  0.34567052230E+03  0.17360306374E+03 0.  0.
        -24    2    5    5    0    0 -0.55099688346E+02  0.45465840336E+02 -0.22363110379E+03  0.24823028807E+03  0.80649160186E+02 0.  0.
          2    1    4    4  502    0 -0.15883726390E+02 -0.67638865355E+02 -0.98139051504E+02  0.12024384517E+03  0.00000000000E+00 0. -1.
         -1    1    4    4    0  502  0.78806011105E+00  0.18127546257E+02 -0.15365850397E+01  0.18209614647E+02  0.00000000000E+00 0.  1.
          5    1    3    3  503    0  0.45962933211E+02  0.63225275731E+02 -0.54696374274E+02  0.95518637341E+02  0.47000000000E+01 0. -1.
         13    1    6    6    0    0 -0.54166630716E+02 -0.34352848521E+00 -0.16594354807E+03  0.17456059991E+03  0.00000000000E+00 0. -1.
        -14    1    6    6    0    0 -0.93305763050E+00  0.45809368821E+02 -0.57687555721E+02  0.73669688158E+02  0.00000000000E+00 0.  1.
         -5    1    5    5    0  501  0.24232421414E+02 -0.59179796968E+02 -0.73369275792E+02  0.97440234231E+02  0.47000000000E+01 0.  1.
<mgrwt>
<rscale>  2 0.17633778E+03</rscale>
<asrwt>0</asrwt>
<pdfrwt beam="2">  1        1 0.79308845E-01 0.17633778E+03</pdfrwt>
<pdfrwt beam="1">  1       -1 0.98669410E-02 0.17633778E+03</pdfrwt>
<totfact> 0.26577991E+03</totfact>
</mgrwt>
</event>
<event>
12    1  0.5759937E-002  0.2298044E+03  0.7546771E-02  0.1126777E+00
         -2   -1    0    0    0  501 -0.00000000000E+00  0.00000000000E+00  0.31832432183E+02  0.31832432183E+02  0.00000000000E+00 0. -1.
          2   -1    0    0  503    0  0.00000000000E+00 -0.00000000000E+00 -0.16590425794E+04  0.16590425794E+04  0.00000000000E+00 0.  1.
          6    2    1    2  503    0 -0.14803379294E+03  0.24541367137E+02 -0.81292365438E+03  0.84453584836E+03  0.17285730750E+03 0.  0.
         24    2    3    3    0    0 -0.12806384097E+03  0.78040369928E+02 -0.56960593160E+03  0.59456275680E+03  0.81014244205E+02 0.  0.
         -6    2    1    2    0  501  0.14803379294E+03 -0.24541367137E+02 -0.81428649285E+03  0.84633916324E+03  0.17524612475E+03 0.  0.
        -24    2    5    5    0    0  0.14467929511E+02  0.29675901806E+02 -0.37499282502E+03  0.38397527113E+03  0.75679653104E+02 0.  0.
          2    1    4    4  502    0 -0.10716978033E+03  0.89096124707E+02 -0.40592381184E+03  0.42918250462E+03  0.00000000000E+00 0. -1.
         -1    1    4    4    0  502 -0.20894060643E+02 -0.11055754779E+02 -0.16368211976E+03  0.16538025219E+03  0.00000000000E+00 0.  1.
          5    1    3    3  503    0 -0.19969951975E+02 -0.53499002791E+02 -0.24331772278E+03  0.24997309156E+03  0.47000000000E+01 0. -1.
         11    1    6    6    0    0  0.13910959810E+02  0.54356631050E+02 -0.22073260176E+03  0.22775214515E+03  0.00000000000E+00 0. -1.
        -12    1    6    6    0    0  0.55696970052E+00 -0.24680729244E+02 -0.15426022326E+03  0.15622312598E+03  0.00000000000E+00 0.  1.
         -5    1    5    5    0  501  0.13356586343E+03 -0.54217268943E+02 -0.43929366783E+03  0.46236389211E+03  0.47000000000E+01 0.  1.
<mgrwt>
<rscale>  2 0.22980442E+03</rscale>
<asrwt>0</asrwt>
<pdfrwt beam="2">  1        2 0.25523732E+00 0.22980442E+03</pdfrwt>
<pdfrwt beam="1">  1       -2 0.48972972E-02 0.22980442E+03</pdfrwt>
<totfact> 0.22715237E+03</totfact>
</mgrwt>
</event>
<event>
12    1  0.5759937E-002  0.2065757E+03  0.7546771E-02  0.1144307E+00
         -1   -1    0    0    0  501 -0.00000000000E+00  0.00000000000E+00  0.34105593690E+02  0.34105593690E+02  0.00000000000E+00 0.  1.
          1   -1    0    0  503    0  0.00000000000E+00 -0.00000000000E+00 -0.14430435856E+04  0.14430435856E+04  0.00000000000E+00 0. -1.
          6    2    1    2  503    0  0.18433259646E+02  0.10998918025E+03 -0.43428598441E+03  0.48078259219E+03  0.17352285113E+03 0.  0.
         24    2    3    3    0    0  0.11970841945E+02 -0.12929348476E+02 -0.17879444961E+03  0.19714771792E+03  0.81174493292E+02 0.  0.
         -6    2    1    2    0  501 -0.18433259646E+02 -0.10998918025E+03 -0.97465200754E+03  0.99636658714E+03  0.17424820037E+03 0.  0.
        -24    2    5    5    0    0  0.30332824433E+02 -0.59130433849E+02 -0.81735554788E+03  0.82394556387E+03  0.79998200829E+02 0.  0.
          4    1    4    4  502    0  0.39794281174E+02 -0.13830972775E+01 -0.45370568252E+02  0.60365439084E+02  0.00000000000E+00 0. -1.
         -3    1    4    4    0  502 -0.27823439230E+02 -0.11546251198E+02 -0.13342388136E+03  0.13678227884E+03  0.00000000000E+00 0.  1.
          5    1    3    3  503    0  0.64624177010E+01  0.12291852873E+03 -0.25549153480E+03  0.28363487427E+03  0.47000000000E+01 0. -1.
         11    1    6    6    0    0  0.34103345563E+01 -0.26516572103E+02 -0.67279698437E+03  0.67332795958E+03  0.00000000000E+00 0. -1.
        -12    1    6    6    0    0  0.26922489877E+02 -0.32613861746E+02 -0.14455856351E+03  0.15061760429E+03  0.00000000000E+00 0.  1.
         -5    1    5    5    0  501 -0.48766084078E+02 -0.50858746401E+02 -0.15729645967E+03  0.17242102327E+03  0.47000000000E+01 0.  1.
<mgrwt>
<rscale>  2 0.20657572E+03</rscale>
<asrwt>0</asrwt>
<pdfrwt beam="2">  1        1 0.22200678E+00 0.20657572E+03</pdfrwt>
<pdfrwt beam="1">  1       -1 0.52470127E-02 0.20657572E+03</pdfrwt>
<totfact> 0.12820951E+03</totfact>
</mgrwt>
</event>
<event>
12    1  0.5759937E-002  0.2917668E+03  0.7546771E-02  0.1089430E+00
          1   -1    0    0  503    0  0.00000000000E+00  0.00000000000E+00  0.14858040547E+04  0.14858040547E+04  0.00000000000E+00 0.  1.
         -1   -1    0    0    0  501 -0.00000000000E+00 -0.00000000000E+00 -0.96202744484E+02  0.96202744484E+02  0.00000000000E+00 0. -1.
          6    2    1    2  503    0 -0.16678704279E+03  0.16176071994E+03  0.19101412065E+03  0.34829488069E+03  0.17560888779E+03 0.  0.
         24    2    3    3    0    0 -0.31705448120E+02  0.66402680391E+02  0.13582916428E+03  0.17391695108E+03  0.79893633044E+02 0.  0.
         -6    2    1    2    0  501  0.16678704279E+03 -0.16176071994E+03  0.11985871895E+04  0.12337119185E+04  0.17733978313E+03 0.  0.
        -24    2    5    5    0    0  0.13568345402E+03 -0.70459534368E+02  0.98790067828E+03  0.10019486001E+04  0.67666102224E+02 0.  0.
          2    1    4    4  502    0 -0.38069465852E+02  0.72292153639E+02  0.70205882517E+02  0.10772328276E+03  0.00000000000E+00 0. -1.
         -1    1    4    4    0  502  0.63640177322E+01 -0.58894732485E+01  0.65623281763E+02  0.66193668324E+02  0.00000000000E+00 0.  1.
          5    1    3    3  503    0 -0.13508159468E+03  0.95358039545E+02  0.55184956372E+02  0.17437792961E+03  0.47000000000E+01 0. -1.
         13    1    6    6    0    0  0.10339835861E+02 -0.22538635101E+01  0.13495743923E+02  0.17150137329E+02  0.00000000000E+00 0. -1.
        -14    1    6    6    0    0  0.12534361816E+03 -0.68205670858E+02  0.97440493435E+03  0.98479846275E+03  0.00000000000E+00 0.  1.
         -5    1    5    5    0  501  0.31103588771E+02 -0.91301185567E+02  0.21068651127E+03  0.23176331839E+03  0.47000000000E+01 0.  1.
<mgrwt>
<rscale>  2 0.29176676E+03</rscale>
<asrwt>0</asrwt>
<pdfrwt beam="1">  1        1 0.22858522E+00 0.29176676E+03</pdfrwt>
<pdfrwt beam="2">  1       -1 0.14800423E-01 0.29176676E+03</pdfrwt>
<totfact> 0.24056169E+02</totfact>
</mgrwt>
</event>
<event>
12    1  0.5759937E-002  0.2022106E+03  0.7546771E-02  0.1147887E+00
         -2   -1    0    0    0  501 -0.00000000000E+00  0.00000000000E+00  0.11570160891E+03  0.11570160891E+03  0.00000000000E+00 0. -1.
          2   -1    0    0  503    0  0.00000000000E+00 -0.00000000000E+00 -0.10736319604E+04  0.10736319604E+04  0.00000000000E+00 0.  1.
          6    2    1    2  503    0  0.17573892949E+02 -0.10244807399E+03 -0.96670215181E+03  0.98780423272E+03  0.17446977471E+03 0.  0.
         24    2    3    3    0    0  0.67473422922E+02 -0.11010942810E+03 -0.73196886470E+03  0.74765747443E+03  0.80848817112E+02 0.  0.
         -6    2    1    2    0  501 -0.17573892949E+02  0.10244807399E+03  0.87718003309E+01  0.20152933658E+03  0.17243166601E+03 0.  0.
        -24    2    5    5    0    0 -0.21665689560E+02  0.31367780561E+02  0.65374103975E+02  0.11045210731E+03  0.80452189389E+02 0.  0.
          2    1    4    4  502    0  0.35416984223E+02 -0.29608522791E+01 -0.10665783937E+03  0.11242341445E+03  0.00000000000E+00 0. -1.
         -1    1    4    4    0  502  0.32056438699E+02 -0.10714857582E+03 -0.62531102533E+03  0.63523405998E+03  0.00000000000E+00 0.  1.
          5    1    3    3  503    0 -0.49899529973E+02  0.76613541089E+01 -0.23473328711E+03  0.24014675829E+03  0.47000000000E+01 0. -1.
         13    1    6    6    0    0 -0.28988308852E+02 -0.11015808118E+02  0.59426709926E+02  0.67031365279E+02  0.00000000000E+00 0. -1.
        -14    1    6    6    0    0  0.73226192917E+01  0.42383588679E+02  0.59473940492E+01  0.43420742032E+02  0.00000000000E+00 0.  1.
         -5    1    5    5    0  501  0.40917966106E+01  0.71080293432E+02 -0.56602303644E+02  0.91077229271E+02  0.47000000000E+01 0.  1.
<mgrwt>
<rscale>  2 0.20221056E+03</rscale>
<asrwt>0</asrwt>
<pdfrwt beam="2">  1        2 0.16517414E+00 0.20221056E+03</pdfrwt>
<pdfrwt beam="1">  1       -2 0.17800248E-01 0.20221056E+03</pdfrwt>
<totfact> 0.61407709E+02</totfact>
</mgrwt>
</event>
<event>
12    1  0.5759937E-002  0.2441898E+03  0.7546771E-02  0.1117033E+00
          2   -1    0    0  503    0  0.00000000000E+00  0.00000000000E+00  0.98832767870E+03  0.98832767870E+03  0.00000000000E+00 0.  1.
         -2   -1    0    0    0  501 -0.00000000000E+00 -0.00000000000E+00 -0.60867384168E+02  0.60867384168E+02  0.00000000000E+00 0. -1.
          6    2    1    2  503    0 -0.12930032819E+03  0.11361441793E+03  0.41455146707E+03  0.48112018369E+03  0.17319613584E+03 0.  0.
         24    2    3    3    0    0  0.11318256139E+02  0.52755592979E+02  0.17178729914E+03  0.19400711525E+03  0.72226235620E+02 0.  0.
         -6    2    1    2    0  501  0.12930032819E+03 -0.11361441793E+03  0.51290882747E+03  0.56807487919E+03  0.17322468715E+03 0.  0.
        -24    2    5    5    0    0  0.10990216329E+03 -0.96593713067E+02  0.51532508125E+03  0.54173248982E+03  0.80655565548E+02 0.  0.
          2    1    4    4  502    0  0.10481883060E+02  0.13253182949E+02 -0.83777479188E+00  0.16917996258E+02  0.00000000000E+00 0. -1.
         -1    1    4    4    0  502  0.83637307946E+00  0.39502410029E+02  0.17262507393E+03  0.17708911899E+03  0.00000000000E+00 0.  1.
          5    1    3    3  503    0 -0.14061858433E+03  0.60858824952E+02  0.24276416793E+03  0.28711306843E+03  0.47000000000E+01 0. -1.
         11    1    6    6    0    0  0.86529777484E+02 -0.40455081878E+02  0.21426103185E+03  0.23458858841E+03  0.00000000000E+00 0. -1.
        -12    1    6    6    0    0  0.23372385807E+02 -0.56138631190E+02  0.30106404940E+03  0.30714390141E+03  0.00000000000E+00 0.  1.
         -5    1    5    5    0  501  0.19398164895E+02 -0.17020704863E+02 -0.24162537868E+01  0.26342389369E+02  0.47000000000E+01 0.  1.
<mgrwt>
<rscale>  2 0.24418980E+03</rscale>
<asrwt>0</asrwt>
<pdfrwt beam="1">  1        2 0.15205040E+00 0.24418980E+03</pdfrwt>
<pdfrwt beam="2">  1       -2 0.93642137E-02 0.24418980E+03</pdfrwt>
<totfact> 0.19649355E+03</totfact>
</mgrwt>
</event>
<event>
12    1  0.5759937E-002  0.1873933E+03  0.7546771E-02  0.1160834E+00
         -1   -1    0    0    0  501 -0.00000000000E+00  0.00000000000E+00  0.30328918414E+03  0.30328918414E+03  0.00000000000E+00 0.  1.
          1   -1    0    0  503    0  0.00000000000E+00 -0.00000000000E+00 -0.13472688514E+03  0.13472688514E+03  0.00000000000E+00 0. -1.
          6    2    1    2  503    0  0.73450798286E+02  0.24382886371E+01  0.16616638104E+03  0.25000738571E+03  0.17173078262E+03 0.  0.
         24    2    3    3    0    0  0.97168086217E+02  0.36801800873E+02  0.16152335459E+03  0.20773436341E+03  0.79169199415E+02 0.  0.
         -6    2    1    2    0  501 -0.73450798286E+02 -0.24382886371E+01  0.23959179568E+01  0.18800868357E+03  0.17303340618E+03 0.  0.
        -24    2    5    5    0    0 -0.45675141690E+02  0.70972598286E+02 -0.10266697689E+01  0.10930385827E+03  0.69447470124E+02 0.  0.
          2    1    4    4  502    0  0.72827275186E+02  0.54508165523E+02  0.15015283133E+03  0.17555860809E+03  0.00000000000E+00 0. -1.
         -1    1    4    4    0  502  0.24340811031E+02 -0.17706364650E+02  0.11370523258E+02  0.32175755313E+02  0.00000000000E+00 0.  1.
          5    1    3    3  503    0 -0.23717287931E+02 -0.34363512236E+02  0.46430264566E+01  0.42273022304E+02  0.47000000000E+01 0. -1.
         11    1    6    6    0    0 -0.44555466713E+01  0.19270548573E+02 -0.30946549821E+02  0.36727304343E+02  0.00000000000E+00 0. -1.
        -12    1    6    6    0    0 -0.41219595019E+02  0.51702049713E+02  0.29919880052E+02  0.72576553930E+02  0.00000000000E+00 0.  1.
         -5    1    5    5    0  501 -0.27775656595E+02 -0.73410886923E+02  0.34225877257E+01  0.78704825296E+02  0.47000000000E+01 0.  1.
<mgrwt>
<rscale>  2 0.18739332E+03</rscale>
<asrwt>0</asrwt>
<pdfrwt beam="2">  1        1 0.20727213E-01 0.18739332E+03</pdfrwt>
<pdfrwt beam="1">  1       -1 0.46659874E-01 0.18739332E+03</pdfrwt>
<totfact> 0.11308363E+03</totfact>
</mgrwt>
</event>
<event>
12    1  0.5759937E-002  0.2758664E+03  0.7546771E-02  0.1097968E+00
         -1   -1    0    0    0  501 -0.00000000000E+00  0.00000000000E+00  0.26136429935E+03  0.26136429935E+03  0.00000000000E+00 0.  1.
          1   -1    0    0  503    0  0.00000000000E+00 -0.00000000000E+00 -0.30773449564E+03  0.30773449564E+03  0.00000000000E+00 0. -1.
          6    2    1    2  503    0 -0.16836734616E+03 -0.13327124267E+03 -0.89191441561E+02  0.28986951001E+03  0.17309082070E+03 0.  0.
         24    2    3    3    0    0 -0.80734665070E+02 -0.27985434984E+02 -0.97713077820E+02  0.15254035659E+03  0.80121433436E+02 0.  0.
         -6    2    1    2    0  501  0.16836734616E+03  0.13327124267E+03  0.42821245277E+02  0.27922928498E+03  0.17328169889E+03 0.  0.
        -24    2    5    5    0    0  0.54280927203E+02 -0.50708398829E+00  0.52338517374E+01  0.99375861811E+02  0.83075222025E+02 0.  0.
          4    1    4    4  502    0 -0.42448764667E+02  0.21847961279E+02 -0.67850600481E+02  0.82963455928E+02  0.00000000000E+00 0. -1.
         -3    1    4    4    0  502 -0.38285900402E+02 -0.49833396263E+02 -0.29862477339E+02  0.69576900661E+02  0.00000000000E+00 0.  1.
          5    1    3    3  503    0 -0.87632681089E+02 -0.10528580768E+03  0.85216362588E+01  0.13732915342E+03  0.47000000000E+01 0. -1.
         13    1    6    6    0    0  0.47568685055E+02  0.59434889883E+01 -0.34181010858E+02  0.58876534906E+02  0.00000000000E+00 0. -1.
        -14    1    6    6    0    0  0.67122421475E+01 -0.64505729766E+01  0.39414862595E+02  0.40499326905E+02  0.00000000000E+00 0.  1.
         -5    1    5    5    0  501  0.11408641896E+03  0.13377832665E+03  0.37587393540E+02  0.17985342317E+03  0.47000000000E+01 0.  1.
<mgrwt>
<rscale>  2 0.27586640E+03</rscale>
<asrwt>0</asrwt>
<pdfrwt beam="2">  1        1 0.47343769E-01 0.27586640E+03</pdfrwt>
<pdfrwt beam="1">  1       -1 0.40209892E-01 0.27586640E+03</pdfrwt>
<totfact> 0.52114614E+02</totfact>
</mgrwt>
</event>
<event>
12    1  0.5759937E-002  0.2537407E+03  0.7546771E-02  0.1110963E+00
         -2   -1    0    0    0  501 -0.00000000000E+00  0.00000000000E+00  0.17609690263E+03  0.17609690263E+03  0.00000000000E+00 0. -1.
          2   -1    0    0  503    0  0.00000000000E+00 -0.00000000000E+00 -0.36745487580E+03  0.36745487580E+03  0.00000000000E+00 0.  1.
          6    2    1    2  503    0  0.15249387369E+03 -0.10018480309E+03 -0.11568691382E+03  0.28135121369E+03  0.18023225886E+03 0.  0.
         24    2    3    3    0    0  0.73140126985E+02 -0.81245031140E+02  0.46347691772E+01  0.13590318353E+03  0.80609930832E+02 0.  0.
         -6    2    1    2    0  501 -0.15249387369E+03  0.10018480309E+03 -0.75671059351E+02  0.26220056473E+03  0.17242868276E+03 0.  0.
        -24    2    5    5    0    0 -0.15648739568E+03  0.28747134658E+02 -0.60553274185E+02  0.18892078501E+03  0.81912521848E+02 0.  0.
          2    1    4    4  502    0  0.57905381478E+02 -0.43527360343E+02  0.39338523680E+02  0.82432904522E+02  0.00000000000E+00 0. -1.
         -1    1    4    4    0  502  0.15234745506E+02 -0.37717670797E+02 -0.34703754502E+02  0.53470279011E+02  0.00000000000E+00 0.  1.
          5    1    3    3  503    0  0.79353746708E+02 -0.18939771948E+02 -0.12032168300E+03  0.14544803016E+03  0.47000000000E+01 0. -1.
         11    1    6    6    0    0 -0.24252631572E+02  0.78681082733E+01  0.20243062570E+02  0.32555780565E+02  0.00000000000E+00 0. -1.
        -12    1    6    6    0    0 -0.13223476411E+03  0.20879026385E+02 -0.80796336754E+02  0.15636500444E+03  0.00000000000E+00 0.  1.
         -5    1    5    5    0  501  0.39935219850E+01  0.71437668430E+02 -0.15117785166E+02  0.73279779727E+02  0.47000000000E+01 0.  1.
<mgrwt>
<rscale>  2 0.25374068E+03</rscale>
<asrwt>0</asrwt>
<pdfrwt beam="2">  1        2 0.56531519E-01 0.25374068E+03</pdfrwt>
<pdfrwt beam="1">  1       -2 0.27091831E-01 0.25374068E+03</pdfrwt>
<totfact> 0.10788777E+03</totfact>
</mgrwt>
</event>
<event>
12    1  0.5759937E-002  0.1838211E+03  0.7546771E-02  0.1164155E+00
          1   -1    0    0  503    0  0.00000000000E+00  0.00000000000E+00  0.16407001817E+04  0.16407001817E+04  0.00000000000E+00 0.  1.
         -1   -1    0    0    0  501 -0.00000000000E+00 -0.00000000000E+00 -0.30157787249E+02  0.30157787249E+02  0.00000000000E+00 0. -1.
          6    2    1    2  503    0 -0.43048523158E+01  0.52386109552E+02  0.32579113080E+03  0.37257860589E+03  0.17295120824E+03 0.  0.
         24    2    3    3    0    0  0.53173673452E+02  0.30548140723E+02  0.27485261912E+03  0.29259423380E+03  0.79415332038E+02 0.  0.
         -6    2    1    2    0  501  0.43048523158E+01 -0.52386109552E+02  0.12847512637E+04  0.12982793631E+04  0.17938968440E+03 0.  0.
        -24    2    5    5    0    0 -0.25899547243E+02 -0.27427015401E+02  0.12142270033E+04  0.12174646154E+04  0.80310937130E+02 0.  0.
          4    1    4    4  502    0  0.56646124500E+02 -0.11321213582E+02  0.14367907298E+03  0.15485680260E+03  0.00000000000E+00 0. -1.
         -3    1    4    4    0  502 -0.34724510488E+01  0.41869354305E+02  0.13117354614E+03  0.13773743120E+03  0.00000000000E+00 0.  1.
          5    1    3    3  503    0 -0.57478525767E+02  0.21837968829E+02  0.50938511679E+02  0.79984372092E+02  0.47000000000E+01 0. -1.
         11    1    6    6    0    0 -0.30632635228E+02  0.19806295503E+02  0.34034614422E+03  0.34229540687E+03  0.00000000000E+00 0. -1.
        -12    1    6    6    0    0  0.47330879841E+01 -0.47233310905E+02  0.87388085904E+03  0.87516920854E+03  0.00000000000E+00 0.  1.
         -5    1    5    5    0  501  0.30204399559E+02 -0.24959094151E+02  0.70524260405E+02  0.80814747659E+02  0.47000000000E+01 0.  1.
<mgrwt>
<rscale>  2 0.18382109E+03</rscale>
<asrwt>0</asrwt>
<pdfrwt beam="1">  1        1 0.25241534E+00 0.18382109E+03</pdfrwt>
<pdfrwt beam="2">  1       -1 0.46396609E-02 0.18382109E+03</pdfrwt>
<totfact> 0.11452884E+03</totfact>
</mgrwt>
</event>
<event>
12    1  0.5759937E-002  0.4814230E+03  0.7546771E-02  0.1018745E+00
         -1   -1    0    0    0  501 -0.00000000000E+00  0.00000000000E+00  0.43897738606E+03  0.43897738606E+03  0.00000000000E+00 0. -1.
          1   -1    0    0  503    0  0.00000000000E+00 -0.00000000000E+00 -0.54603917710E+03  0.54603917710E+03  0.00000000000E+00 0.  1.
          6    2    1    2  503    0 -0.14607395048E+03 -0.42505028746E+03 -0.14311114275E+03  0.50219561979E+03  0.17237834978E+03 0.  0.
         24    2    3    3    0    0 -0.92517798499E+02 -0.18920649336E+03 -0.13041690884E+03  0.25996888674E+03  0.78845493153E+02 0.  0.
         -6    2    1    2    0  501  0.14607395048E+03  0.42505028746E+03  0.36049351715E+02  0.48282094337E+03  0.17265909104E+03 0.  0.
        -24    2    5    5    0    0  0.11259326341E+03  0.15173037290E+03  0.10060695109E+01  0.20519736057E+03  0.80034964743E+02 0.  0.
          2    1    4    4  502    0 -0.10493926273E+03 -0.17252544162E+03 -0.10658023567E+03  0.22833445536E+03  0.00000000000E+00 0. -1.
         -1    1    4    4    0  502  0.12421464231E+02 -0.16681051741E+02 -0.23836673166E+02  0.31634431376E+02  0.00000000000E+00 0.  1.
          5    1    3    3  503    0 -0.53556151984E+02 -0.23584379410E+03 -0.12694233912E+02  0.24222673305E+03  0.47000000000E+01 0. -1.
         13    1    6    6    0    0 -0.17596304943E+01  0.58671649475E+01  0.18059266120E+02  0.19069793308E+02  0.00000000000E+00 0. -1.
        -14    1    6    6    0    0  0.11435289390E+03  0.14586320796E+03 -0.17053196610E+02  0.18612756726E+03  0.00000000000E+00 0.  1.
         -5    1    5    5    0  501  0.33480687073E+02  0.27331991456E+03  0.35043282204E+02  0.27762358280E+03  0.47000000000E+01 0.  1.
<mgrwt>
<rscale>  2 0.48142296E+03</rscale>
<asrwt>0</asrwt>
<pdfrwt beam="2">  1        1 0.84006027E-01 0.48142296E+03</pdfrwt>
<pdfrwt beam="1">  1       -1 0.67534983E-01 0.48142296E+03</pdfrwt>
<totfact> 0.90743894E+01</totfact>
</mgrwt>
</event>
<event>
12    1  0.5759937E-002  0.2179849E+03  0.7546771E-02  0.1135394E+00
         -1   -1    0    0    0  501 -0.00000000000E+00  0.00000000000E+00  0.30017459403E+03  0.30017459403E+03  0.00000000000E+00 0.  1.
          1   -1    0    0  503    0  0.00000000000E+00 -0.00000000000E+00 -0.19766353928E+03  0.19766353928E+03  0.00000000000E+00 0. -1.
          6    2    1    2  503    0 -0.71220955199E+00  0.13174437932E+03  0.16241452711E+03  0.27216747961E+03  0.17418257551E+03 0.  0.
         24    2    3    3    0    0 -0.43935177549E+02  0.25773327290E+02  0.34484562784E+02  0.10045185829E+03  0.79415530834E+02 0.  0.
         -6    2    1    2    0  501  0.71220955199E+00 -0.13174437932E+03 -0.59903472363E+02  0.22567065371E+03  0.17315232953E+03 0.  0.
        -24    2    5    5    0    0 -0.46782417429E+02 -0.39284735803E+02 -0.69970430005E+02  0.12113377549E+03  0.77753748736E+02 0.  0.
          4    1    4    4  502    0 -0.52394054914E+02 -0.11969878815E+02  0.99779147805E+01  0.54662361571E+02  0.00000000000E+00 0. -1.
         -3    1    4    4    0  502  0.84588773657E+01  0.37743206104E+02  0.24506648004E+02  0.45789496718E+02  0.00000000000E+00 0.  1.
          5    1    3    3  503    0  0.43222967997E+02  0.10597105203E+03  0.12792996433E+03  0.17171562132E+03  0.47000000000E+01 0. -1.
         11    1    6    6    0    0 -0.24093971357E+02 -0.51882490601E+02 -0.75376684992E+02  0.94625350340E+02  0.00000000000E+00 0. -1.
        -12    1    6    6    0    0 -0.22688446073E+02  0.12597754797E+02  0.54062549863E+01  0.26508425153E+02  0.00000000000E+00 0.  1.
         -5    1    5    5    0  501  0.47494626981E+02 -0.92459643514E+02  0.10066957643E+02  0.10453687822E+03  0.47000000000E+01 0.  1.
<mgrwt>
<rscale>  2 0.21798486E+03</rscale>
<asrwt>0</asrwt>
<pdfrwt beam="2">  1        1 0.30409775E-01 0.21798486E+03</pdfrwt>
<pdfrwt beam="1">  1       -1 0.46180707E-01 0.21798486E+03</pdfrwt>
<totfact> 0.70958466E+02</totfact>
</mgrwt>
</event>
<event>
12    1  0.5759937E-002  0.3213527E+03  0.7546771E-02  0.1075028E+00
          1   -1    0    0  503    0  0.00000000000E+00  0.00000000000E+00  0.85133865625E+03  0.85133865625E+03  0.00000000000E+00 0. -1.
         -1   -1    0    0    0  501 -0.00000000000E+00 -0.00000000000E+00 -0.12722799326E+03  0.12722799326E+03  0.00000000000E+00 0.  1.
          6    2    1    2  503    0 -0.57771830792E+02 -0.26490815549E+03  0.46875141439E+03  0.56890483261E+03  0.17438722657E+03 0.  0.
         24    2    3    3    0    0  0.30223231916E+01 -0.17574074088E+03  0.19437229947E+03  0.27402732297E+03  0.80102687146E+02 0.  0.
         -6    2    1    2    0  501  0.57771830792E+02  0.26490815549E+03  0.25535924860E+03  0.40966181690E+03  0.17058881293E+03 0.  0.
        -24    2    5    5    0    0 -0.21168115536E+02  0.15323583760E+03  0.10688684805E+03  0.20775004053E+03  0.88351400748E+02 0.  0.
          2    1    4    4  502    0 -0.27702227110E+02 -0.15123522738E+03  0.15106337650E+03  0.21554500947E+03  0.00000000000E+00 0. -1.
         -1    1    4    4    0  502  0.30724550302E+02 -0.24505513502E+02  0.43308922969E+02  0.58482313497E+02  0.00000000000E+00 0.  1.
          5    1    3    3  503    0 -0.60794153984E+02 -0.89167414610E+02  0.27437911492E+03  0.29487750964E+03  0.47000000000E+01 0. -1.
         11    1    6    6    0    0 -0.29736008612E+02  0.41689288459E+02  0.76084629939E+02  0.91712037887E+02  0.00000000000E+00 0. -1.
        -12    1    6    6    0    0  0.85678930760E+01  0.11154654914E+03  0.30802218113E+02  0.11603800265E+03  0.00000000000E+00 0.  1.
         -5    1    5    5    0  501  0.78939946328E+02  0.11167231789E+03  0.14847240055E+03  0.20191177636E+03  0.47000000000E+01 0.  1.
<mgrwt>
<rscale>  2 0.32135270E+03</rscale>
<asrwt>0</asrwt>
<pdfrwt beam="1">  1        1 0.13097517E+00 0.32135270E+03</pdfrwt>
<pdfrwt beam="2">  1       -1 0.19573538E-01 0.32135270E+03</pdfrwt>
<totfact> 0.43714200E+02</totfact>
</mgrwt>
</event>
<event>
12    1  0.5759937E-002  0.1898347E+03  0.7546771E-02  0.1158610E+00
         -1   -1    0    0    0  501 -0.00000000000E+00  0.00000000000E+00  0.44783058325E+02  0.44783058325E+02  0.00000000000E+00 0. -1.
          1   -1    0    0  503    0  0.00000000000E+00 -0.00000000000E+00 -0.85914567980E+03  0.85914567980E+03  0.00000000000E+00 0.  1.
          6    2    1    2  503    0 -0.39473657182E+02  0.76567363049E+02 -0.52128123071E+03  0.55482787126E+03  0.16934909074E+03 0.  0.
         24    2    3    3    0    0  0.31195610243E+02  0.13907966274E+02 -0.33492039102E+03  0.34584749435E+03  0.79197369907E+02 0.  0.
         -6    2    1    2    0  501  0.39473657182E+02 -0.76567363049E+02 -0.29308139076E+03  0.34910086687E+03  0.16897923820E+03 0.  0.
        -24    2    5    5    0    0  0.73822521519E+02 -0.69954701910E+01 -0.19428130238E+03  0.22338833678E+03  0.81599162176E+02 0.  0.
          4    1    4    4  502    0  0.29944135757E+02 -0.19948783071E+02 -0.69384014729E+02  0.78158471788E+02  0.00000000000E+00 0. -1.
         -3    1    4    4    0  502  0.12514744859E+01  0.33856749345E+02 -0.26553637629E+03  0.26768902256E+03  0.00000000000E+00 0.  1.
          5    1    3    3  503    0 -0.70669267425E+02  0.62659396776E+02 -0.18636083969E+03  0.20898037691E+03  0.47000000000E+01 0. -1.
         13    1    6    6    0    0  0.38593761588E+02 -0.36018109887E+02 -0.15297942119E+03  0.16183165939E+03  0.00000000000E+00 0. -1.
        -14    1    6    6    0    0  0.35228759931E+02  0.29022639696E+02 -0.41301881188E+02  0.61556677386E+02  0.00000000000E+00 0.  1.
         -5    1    5    5    0  501 -0.34348864337E+02 -0.69571892858E+02 -0.98800088381E+02  0.12571253009E+03  0.47000000000E+01 0.  1.
<mgrwt>
<rscale>  2 0.18983473E+03</rscale>
<asrwt>0</asrwt>
<pdfrwt beam="2">  1        1 0.13217626E+00 0.18983473E+03</pdfrwt>
<pdfrwt beam="1">  1       -1 0.68897015E-02 0.18983473E+03</pdfrwt>
<totfact> 0.22156729E+03</totfact>
</mgrwt>
</event>
<event>
12    1  0.5759937E-002  0.2109365E+03  0.7546771E-02  0.1140827E+00
          1   -1    0    0  503    0  0.00000000000E+00  0.00000000000E+00  0.11973146026E+04  0.11973146026E+04  0.00000000000E+00 0.  1.
         -1   -1    0    0    0  501 -0.00000000000E+00 -0.00000000000E+00 -0.40508471122E+02  0.40508471122E+02  0.00000000000E+00 0. -1.
          6    2    1    2  503    0  0.44508221660E+02 -0.11242068421E+03  0.39828684600E+03  0.45028099637E+03  0.17175905204E+03 0.  0.
         24    2    3    3    0    0  0.71622070164E+02 -0.18968673977E+02  0.26736142223E+03  0.28708787278E+03  0.73809112393E+02 0.  0.
         -6    2    1    2    0  501 -0.44508221660E+02  0.11242068421E+03  0.75851928547E+03  0.78754207735E+03  0.17392994316E+03 0.  0.
        -24    2    5    5    0    0 -0.60296668745E+02  0.40034787651E+02  0.24857908015E+03  0.27222654674E+03  0.84126459441E+02 0.  0.
          4    1    4    4  502    0  0.44538450662E+02  0.14128830570E+02  0.63788591580E+02  0.79071371914E+02  0.00000000000E+00 0. -1.
         -3    1    4    4    0  502  0.27083619502E+02 -0.33097504547E+02  0.20357283065E+03  0.20801650086E+03  0.00000000000E+00 0.  1.
          5    1    3    3  503    0 -0.27113848504E+02 -0.93452010235E+02  0.13092542377E+03  0.16319312359E+03  0.47000000000E+01 0. -1.
         13    1    6    6    0    0 -0.26242222298E+02 -0.23800381326E+02  0.53536420143E+02  0.64197045603E+02  0.00000000000E+00 0. -1.
        -14    1    6    6    0    0 -0.34054446447E+02  0.63835168976E+02  0.19504266000E+03  0.20802950113E+03  0.00000000000E+00 0.  1.
         -5    1    5    5    0  501  0.15788447085E+02  0.72385896562E+02  0.50994020533E+03  0.51531553061E+03  0.47000000000E+01 0.  1.
<mgrwt>
<rscale>  2 0.21093650E+03</rscale>
<asrwt>0</asrwt>
<pdfrwt beam="1">  1        1 0.18420222E+00 0.21093650E+03</pdfrwt>
<pdfrwt beam="2">  1       -1 0.62320734E-02 0.21093650E+03</pdfrwt>
<totfact> 0.14521295E+03</totfact>
</mgrwt>
</event>
<event>
12    1  0.5759937E-002  0.2132677E+03  0.7546771E-02  0.1139004E+00
         -1   -1    0    0    0  501 -0.00000000000E+00  0.00000000000E+00  0.93144510636E+02  0.93144510636E+02  0.00000000000E+00 0.  1.
          1   -1    0    0  503    0  0.00000000000E+00 -0.00000000000E+00 -0.48857332619E+03  0.48857332619E+03  0.00000000000E+00 0. -1.
          6    2    1    2  503    0  0.47113978546E+02  0.11533438093E+03 -0.19096164603E+03  0.28629926135E+03  0.17314494044E+03 0.  0.
         24    2    3    3    0    0  0.17337397720E+02  0.67445052470E+02 -0.22778750126E+02  0.10885177893E+03  0.80501042578E+02 0.  0.
         -6    2    1    2    0  501 -0.47113978546E+02 -0.11533438093E+03 -0.20446716952E+03  0.29541857547E+03  0.17304209002E+03 0.  0.
        -24    2    5    5    0    0 -0.97293709818E+02 -0.67365130236E+02 -0.11212989608E+03  0.17980146381E+03  0.75837497648E+02 0.  0.
          4    1    4    4  502    0 -0.27111270011E+02  0.21103621435E+02 -0.28148597279E+02  0.44415395170E+02  0.00000000000E+00 0. -1.
         -3    1    4    4    0  502  0.44448667731E+02  0.46341431035E+02  0.53698471525E+01  0.64436383759E+02  0.00000000000E+00 0.  1.
          5    1    3    3  503    0  0.29776580826E+02  0.47889328457E+02 -0.16818289590E+03  0.17744748243E+03  0.47000000000E+01 0. -1.
         11    1    6    6    0    0 -0.99389125457E+02 -0.43789595830E+02 -0.11216850799E+03  0.15613295984E+03  0.00000000000E+00 0. -1.
        -12    1    6    6    0    0  0.20954156390E+01 -0.23575534406E+02  0.38611911701E-01  0.23668503968E+02  0.00000000000E+00 0.  1.
         -5    1    5    5    0  501  0.50179731272E+02 -0.47969250691E+02 -0.92337273442E+02  0.11561711166E+03  0.47000000000E+01 0.  1.
<mgrwt>
<rscale>  2 0.21326770E+03</rscale>
<asrwt>0</asrwt>
<pdfrwt beam="2">  1        1 0.75165126E-01 0.21326770E+03</pdfrwt>
<pdfrwt beam="1">  1       -1 0.14329925E-01 0.21326770E+03</pdfrwt>
<totfact> 0.16034503E+03</totfact>
</mgrwt>
</event>
<event>
12    1  0.5759937E-002  0.2146557E+03  0.7546771E-02  0.1137931E+00
         -2   -1    0    0    0  501 -0.00000000000E+00  0.00000000000E+00  0.66533431163E+02  0.66533431163E+02  0.00000000000E+00 0. -1.
          2   -1    0    0  503    0  0.00000000000E+00 -0.00000000000E+00 -0.77725338013E+03  0.77725338013E+03  0.00000000000E+00 0.  1.
          6    2    1    2  503    0 -0.47445683476E+02 -0.11867012876E+03 -0.21734851251E+03  0.30608171412E+03  0.17352794439E+03 0.  0.
         24    2    3    3    0    0 -0.40780022128E+02  0.62569946388E+01 -0.81066009072E+02  0.12102435018E+03  0.79831292887E+02 0.  0.
         -6    2    1    2    0  501  0.47445683476E+02  0.11867012876E+03 -0.49337143645E+03  0.53770509718E+03  0.17139925577E+03 0.  0.
        -24    2    5    5    0    0  0.23280174849E+02  0.22153482922E+02 -0.10211303167E+03  0.13396673629E+03  0.80543602169E+02 0.  0.
          4    1    4    4  502    0 -0.27019260745E+02  0.23463674481E+02  0.12536895699E+01  0.35807208895E+02  0.00000000000E+00 0. -1.
         -3    1    4    4    0  502 -0.13760761384E+02 -0.17206679842E+02 -0.82319698642E+02  0.85217141290E+02  0.00000000000E+00 0.  1.
          5    1    3    3  503    0 -0.66656613476E+01 -0.12492712340E+03 -0.13628250344E+03  0.18505736393E+03  0.47000000000E+01 0. -1.
         13    1    6    6    0    0  0.34652490043E+02  0.21024465110E+02 -0.10806285432E+02  0.41947574473E+02  0.00000000000E+00 0. -1.
        -14    1    6    6    0    0 -0.11372315194E+02  0.11290178119E+01 -0.91306746236E+02  0.92019161822E+02  0.00000000000E+00 0.  1.
         -5    1    5    5    0  501  0.24165508627E+02  0.96516645837E+02 -0.39125840479E+03  0.40373836088E+03  0.47000000000E+01 0.  1.
<mgrwt>
<rscale>  2 0.21465567E+03</rscale>
<asrwt>0</asrwt>
<pdfrwt beam="2">  1        2 0.11957745E+00 0.21465567E+03</pdfrwt>
<pdfrwt beam="1">  1       -2 0.10235912E-01 0.21465567E+03</pdfrwt>
<totfact> 0.23402333E+03</totfact>
</mgrwt>
</event>
<event>
12    1  0.5759937E-002  0.2013374E+03  0.7546771E-02  0.1148616E+00
          1   -1    0    0  503    0  0.00000000000E+00  0.00000000000E+00  0.38125681526E+03  0.38125681526E+03  0.00000000000E+00 0.  1.
         -1   -1    0    0    0  501 -0.00000000000E+00 -0.00000000000E+00 -0.11809245435E+03  0.11809245435E+03  0.00000000000E+00 0. -1.
          6    2    1    2  503    0  0.84960086418E+02  0.66556389380E+02  0.52706228853E+02  0.20802590560E+03  0.16984952631E+03 0.  0.
         24    2    3    3    0    0 -0.18289805851E+02  0.45680720547E+02  0.38237209488E+01  0.91802313408E+02  0.77406709511E+02 0.  0.
         -6    2    1    2    0  501 -0.84960086418E+02 -0.66556389380E+02  0.21045813206E+03  0.29132336401E+03  0.17008441379E+03 0.  0.
        -24    2    5    5    0    0 -0.10732930873E+03 -0.22887036598E+02  0.97906813475E+02  0.16845235931E+03  0.82140466739E+02 0.  0.
          2    1    4    4  502    0 -0.26990437451E+02 -0.74628862035E+01 -0.18441199742E+02  0.33529930394E+02  0.00000000000E+00 0. -1.
         -1    1    4    4    0  502  0.87006316004E+01  0.53143606751E+02  0.22264920691E+02  0.58272383014E+02  0.00000000000E+00 0.  1.
          5    1    3    3  503    0  0.10324989227E+03  0.20875668832E+02  0.48882507905E+02  0.11622359219E+03  0.47000000000E+01 0. -1.
         13    1    6    6    0    0 -0.55805790936E+02 -0.49631043757E+01 -0.39587952743E+00  0.56027452447E+02  0.00000000000E+00 0. -1.
        -14    1    6    6    0    0 -0.51523517795E+02 -0.17923932223E+02  0.98302693002E+02  0.11242490687E+03  0.00000000000E+00 0.  1.
         -5    1    5    5    0  501  0.22369222313E+02 -0.43669352782E+02  0.11255131859E+03  0.12287100470E+03  0.47000000000E+01 0.  1.
<mgrwt>
<rscale>  2 0.20133736E+03</rscale>
<asrwt>0</asrwt>
<pdfrwt beam="1">  1        1 0.58654894E-01 0.20133736E+03</pdfrwt>
<pdfrwt beam="2">  1       -1 0.18168070E-01 0.20133736E+03</pdfrwt>
<totfact> 0.15123984E+03</totfact>
</mgrwt>
</event>
<event>
12    1  0.5759937E-002  0.1754005E+03  0.7546771E-02  0.1172330E+00
          2   -1    0    0  503    0  0.00000000000E+00  0.00000000000E+00  0.40792622898E+03  0.40792622898E+03  0.00000000000E+00 0.  1.
         -2   -1    0    0    0  501 -0.00000000000E+00 -0.00000000000E+00 -0.75895670194E+02  0.75895670194E+02  0.00000000000E+00 0. -1.
          6    2    1    2  503    0  0.23361516053E+02 -0.19764117502E+02  0.14731949968E+03  0.22944032985E+03  0.17321503746E+03 0.  0.
         24    2    3    3    0    0 -0.64376308354E+01 -0.16159708386E+01  0.16961650196E+03  0.18776790860E+03  0.80268146289E+02 0.  0.
         -6    2    1    2    0  501 -0.23361516053E+02  0.19764117502E+02  0.18471105910E+03  0.25438156932E+03  0.17220751053E+03 0.  0.
        -24    2    5    5    0    0  0.54948407697E+02 -0.86745668800E+01  0.67956520908E+02  0.11087228350E+03  0.67675689111E+02 0.  0.
          4    1    4    4  502    0 -0.27276401974E+02 -0.28956174140E+02  0.53493626515E+02  0.66663559786E+02  0.00000000000E+00 0. -1.
         -3    1    4    4    0  502  0.20838771139E+02  0.27340203302E+02  0.11612287545E+03  0.12110434881E+03  0.00000000000E+00 0.  1.
          5    1    3    3  503    0  0.29799146888E+02 -0.18148146664E+02 -0.22297002278E+02  0.41672421254E+02  0.47000000000E+01 0. -1.
         11    1    6    6    0    0  0.32499099416E+02 -0.28601484657E+02  0.68285861586E+02  0.80852923756E+02  0.00000000000E+00 0. -1.
        -12    1    6    6    0    0  0.22449308281E+02  0.19926917777E+02 -0.32934067797E+00  0.30019359748E+02  0.00000000000E+00 0.  1.
         -5    1    5    5    0  501 -0.78309923750E+02  0.28438684382E+02  0.11675453819E+03  0.14350928582E+03  0.47000000000E+01 0.  1.
<mgrwt>
<rscale>  2 0.17540047E+03</rscale>
<asrwt>0</asrwt>
<pdfrwt beam="1">  1        2 0.62757880E-01 0.17540047E+03</pdfrwt>
<pdfrwt beam="2">  1       -2 0.11676257E-01 0.17540047E+03</pdfrwt>
<totfact> 0.39484781E+03</totfact>
</mgrwt>
</event>
<event>
12    1  0.5759937E-002  0.1797902E+03  0.7546771E-02  0.1168006E+00
         -1   -1    0    0    0  501 -0.00000000000E+00  0.00000000000E+00  0.18166459710E+03  0.18166459710E+03  0.00000000000E+00 0. -1.
          1   -1    0    0  503    0  0.00000000000E+00 -0.00000000000E+00 -0.18721378173E+03  0.18721378173E+03  0.00000000000E+00 0.  1.
          6    2    1    2  503    0 -0.25600737533E+02 -0.45821364733E+02  0.38290290093E+02  0.18335330241E+03  0.17145638501E+03 0.  0.
         24    2    3    3    0    0 -0.79731868749E+02 -0.28521378954E+02  0.38215036501E+01  0.11672255790E+03  0.80242829473E+02 0.  0.
         -6    2    1    2    0  501  0.25600737533E+02  0.45821364733E+02 -0.43839474722E+02  0.18552507642E+03  0.17246060190E+03 0.  0.
        -24    2    5    5    0    0 -0.10668727421E+02 -0.15630251540E+02  0.25190223265E+02  0.86132096610E+02  0.80162735796E+02 0.  0.
          4    1    4    4  502    0 -0.78123572980E+02  0.54986266649E+01  0.17109782056E+02  0.80164033035E+02  0.00000000000E+00 0. -1.
         -3    1    4    4    0  502 -0.16082957688E+01 -0.34020005619E+02 -0.13288278406E+02  0.36558524869E+02  0.00000000000E+00 0.  1.
          5    1    3    3  503    0  0.54131131217E+02 -0.17299985779E+02  0.34468786442E+02  0.66630744507E+02  0.47000000000E+01 0. -1.
         11    1    6    6    0    0  0.33838073753E+01 -0.44999842850E+02  0.28551644081E+02  0.53400677792E+02  0.00000000000E+00 0. -1.
        -12    1    6    6    0    0 -0.14052534796E+02  0.29369591310E+02 -0.33614208168E+01  0.32731418818E+02  0.00000000000E+00 0.  1.
         -5    1    5    5    0  501  0.36269464954E+02  0.61451616273E+02 -0.69029697987E+02  0.99392979806E+02  0.47000000000E+01 0.  1.
<mgrwt>
<rscale>  2 0.17979018E+03</rscale>
<asrwt>0</asrwt>
<pdfrwt beam="2">  1        1 0.28802120E-01 0.17979018E+03</pdfrwt>
<pdfrwt beam="1">  1       -1 0.27948399E-01 0.17979018E+03</pdfrwt>
<totfact> 0.18160300E+03</totfact>
</mgrwt>
</event>
<event>
12    1  0.5759937E-002  0.2611002E+03  0.7546771E-02  0.1106484E+00
         -2   -1    0    0    0  501 -0.00000000000E+00  0.00000000000E+00  0.40869237472E+02  0.40869237472E+02  0.00000000000E+00 0. -1.
          2   -1    0    0  503    0  0.00000000000E+00 -0.00000000000E+00 -0.20631970437E+04  0.20631970437E+04  0.00000000000E+00 0.  1.
          6    2    1    2  503    0 -0.17744853094E+03  0.81894084332E+02 -0.14706598319E+04  0.14936084086E+04  0.17271686405E+03 0.  0.
         24    2    3    3    0    0 -0.19211402652E+02 -0.71719680208E+01 -0.38582156260E+03  0.39366845077E+03  0.75472219079E+02 0.  0.
         -6    2    1    2    0  501  0.17744853094E+03 -0.81894084332E+02 -0.55166797433E+03  0.61045787249E+03  0.17357026822E+03 0.  0.
        -24    2    5    5    0    0  0.33044671547E+02 -0.13988169666E+02 -0.29853275412E+03  0.31118672861E+03  0.80173284645E+02 0.  0.
          2    1    4    4  502    0 -0.23059057668E+02 -0.16769695989E+02 -0.49025466803E+02  0.56713660077E+02  0.00000000000E+00 0. -1.
         -1    1    4    4    0  502  0.38476550163E+01  0.95977279680E+01 -0.33679609579E+03  0.33695479070E+03  0.00000000000E+00 0.  1.
          5    1    3    3  503    0 -0.15823712828E+03  0.89066052353E+02 -0.10848382693E+04  0.10999399579E+04  0.47000000000E+01 0. -1.
         11    1    6    6    0    0  0.54386056624E+02 -0.28174691662E+02 -0.18817306179E+03  0.19789077187E+03  0.00000000000E+00 0. -1.
        -12    1    6    6    0    0 -0.21341385077E+02  0.14186521996E+02 -0.11035969233E+03  0.11329595674E+03  0.00000000000E+00 0.  1.
         -5    1    5    5    0  501  0.14440385939E+03 -0.67905914666E+02 -0.25313522020E+03  0.29927114388E+03  0.47000000000E+01 0.  1.
<mgrwt>
<rscale>  2 0.26110025E+03</rscale>
<asrwt>0</asrwt>
<pdfrwt beam="2">  1        2 0.31741499E+00 0.26110025E+03</pdfrwt>
<pdfrwt beam="1">  1       -2 0.62875738E-02 0.26110025E+03</pdfrwt>
<totfact> 0.94877797E+02</totfact>
</mgrwt>
</event>
<event>
12    1  0.5759937E-002  0.2033745E+03  0.7546771E-02  0.1146923E+00
          1   -1    0    0  503    0  0.00000000000E+00  0.00000000000E+00  0.18150243578E+03  0.18150243578E+03  0.00000000000E+00 0.  1.
         -1   -1    0    0    0  501 -0.00000000000E+00 -0.00000000000E+00 -0.23427728569E+03  0.23427728569E+03  0.00000000000E+00 0. -1.
          6    2    1    2  503    0  0.51993284095E+02  0.94371650039E+02  0.79815105502E+01  0.20335145717E+03  0.17227536301E+03 0.  0.
         24    2    3    3    0    0  0.61867780405E+02  0.94259182939E+02 -0.47975199260E+02  0.14633600577E+03  0.80001193860E+02 0.  0.
         -6    2    1    2    0  501 -0.51993284095E+02 -0.94371650039E+02 -0.60756360461E+02  0.21242826430E+03  0.17269951423E+03 0.  0.
        -24    2    5    5    0    0  0.13602732577E+02  0.53361517673E+01 -0.73497865513E+01  0.81589297320E+02  0.79933004608E+02 0.  0.
          4    1    4    4  502    0  0.15315103251E+02  0.35655038158E+02 -0.59068265370E+02  0.70674564785E+02  0.00000000000E+00 0. -1.
         -3    1    4    4    0  502  0.46552677155E+02  0.58604144780E+02  0.11093066110E+02  0.75661440982E+02  0.00000000000E+00 0.  1.
          5    1    3    3  503    0 -0.98744963105E+01  0.11246710047E+00  0.55956709810E+02  0.57015451406E+02  0.47000000000E+01 0. -1.
         13    1    6    6    0    0  0.27646223839E+02 -0.31305505643E+02 -0.58308975030E+00  0.41769466956E+02  0.00000000000E+00 0. -1.
        -14    1    6    6    0    0 -0.14043491262E+02  0.36641657411E+02 -0.67666968010E+01  0.39819830364E+02  0.00000000000E+00 0.  1.
         -5    1    5    5    0  501 -0.65596016672E+02 -0.99707801806E+02 -0.53406573910E+02  0.13083896698E+03  0.47000000000E+01 0.  1.
<mgrwt>
<rscale>  2 0.20337455E+03</rscale>
<asrwt>0</asrwt>
<pdfrwt beam="1">  1        1 0.27923451E-01 0.20337455E+03</pdfrwt>
<pdfrwt beam="2">  1       -1 0.36042660E-01 0.20337455E+03</pdfrwt>
<totfact> 0.12268070E+03</totfact>
</mgrwt>
</event>
<event>
12    1  0.5759937E-002  0.1726692E+03  0.7546771E-02  0.1175093E+00
         -2   -1    0    0    0  501 -0.00000000000E+00  0.00000000000E+00  0.53905812216E+02  0.53905812216E+02  0.00000000000E+00 0. -1.
          2   -1    0    0  503    0  0.00000000000E+00 -0.00000000000E+00 -0.56871188428E+03  0.56871188428E+03  0.00000000000E+00 0.  1.
          6    2    1    2  503    0  0.44954479317E+01 -0.54203067856E+01 -0.20719409180E+03  0.27031511107E+03  0.17346837988E+03 0.  0.
         24    2    3    3    0    0 -0.26793311881E+02  0.57780413527E+02 -0.13207012860E+03  0.16716949853E+03  0.80291124177E+02 0.  0.
         -6    2    1    2    0  501 -0.44954479317E+01  0.54203067856E+01 -0.30761198026E+03  0.35230258542E+03  0.17158785656E+03 0.  0.
        -24    2    5    5    0    0 -0.21751617853E+02  0.37761377694E+02 -0.29823291570E+03  0.31417415614E+03  0.88676230486E+02 0.  0.
          2    1    4    4  502    0  0.28870482633E+02  0.21629650355E+02 -0.48689870309E+02  0.60597442295E+02  0.00000000000E+00 0. -1.
         -1    1    4    4    0  502 -0.55663794514E+02  0.36150763172E+02 -0.83380258294E+02  0.10657205624E+03  0.00000000000E+00 0.  1.
          5    1    3    3  503    0  0.31288759813E+02 -0.63200720313E+02 -0.75123963195E+02  0.10314561253E+03  0.47000000000E+01 0. -1.
         13    1    6    6    0    0  0.31731034241E+02  0.26853821294E+02 -0.94160849193E+02  0.10292838176E+03  0.00000000000E+00 0. -1.
        -14    1    6    6    0    0 -0.53482652094E+02  0.10907556401E+02 -0.20407206651E+03  0.21124577437E+03  0.00000000000E+00 0.  1.
         -5    1    5    5    0  501  0.17256169922E+02 -0.32341070909E+02 -0.93790645620E+01  0.38128429288E+02  0.47000000000E+01 0.  1.
<mgrwt>
<rscale>  2 0.17266922E+03</rscale>
<asrwt>0</asrwt>
<pdfrwt beam="2">  1        2 0.87494130E-01 0.17266922E+03</pdfrwt>
<pdfrwt beam="1">  1       -2 0.82932024E-02 0.17266922E+03</pdfrwt>
<totfact> 0.46932215E+03</totfact>
</mgrwt>
</event>
<event>
12    1  0.5759937E-002  0.1798556E+03  0.7546771E-02  0.1167943E+00
         -2   -1    0    0    0  501 -0.00000000000E+00  0.00000000000E+00  0.22409191267E+02  0.22409191267E+02  0.00000000000E+00 0. -1.
          2   -1    0    0  503    0  0.00000000000E+00 -0.00000000000E+00 -0.19294125078E+04  0.19294125078E+04  0.00000000000E+00 0.  1.
          6    2    1    2  503    0 -0.44335256973E+01 -0.48747336500E+02 -0.45798962170E+03  0.49150610200E+03  0.17154531691E+03 0.  0.
         24    2    3    3    0    0  0.18883201074E+02 -0.94987133187E+02 -0.35035969624E+03  0.37197334750E+03  0.78950134544E+02 0.  0.
         -6    2    1    2    0  501  0.44335256973E+01  0.48747336500E+02 -0.14490136948E+04  0.14603155971E+04  0.17459953108E+03 0.  0.
        -24    2    5    5    0    0 -0.59609707968E+02  0.41483916924E+02 -0.11051580669E+04  0.11104397964E+04  0.80174534042E+02 0.  0.
          2    1    4    4  502    0  0.43269270371E+02 -0.81512285569E+02 -0.21827171872E+03  0.23697895613E+03  0.00000000000E+00 0. -1.
         -1    1    4    4    0  502 -0.24386069297E+02 -0.13474847617E+02 -0.13208797752E+03  0.13499439137E+03  0.00000000000E+00 0.  1.
          5    1    3    3  503    0 -0.23316726771E+02  0.46239796687E+02 -0.10762992545E+03  0.11953275450E+03  0.47000000000E+01 0. -1.
         13    1    6    6    0    0 -0.15570659500E+02 -0.24388135144E+02 -0.29120998953E+03  0.29264395530E+03  0.00000000000E+00 0. -1.
        -14    1    6    6    0    0 -0.44039048468E+02  0.65872052068E+02 -0.81394807741E+03  0.81779584112E+03  0.00000000000E+00 0.  1.
         -5    1    5    5    0  501  0.64043233666E+02  0.72634195763E+01 -0.34385562791E+03  0.34987580066E+03  0.47000000000E+01 0.  1.
<mgrwt>
<rscale>  2 0.17985560E+03</rscale>
<asrwt>0</asrwt>
<pdfrwt beam="2">  1        2 0.29683277E+00 0.17985560E+03</pdfrwt>
<pdfrwt beam="1">  1       -2 0.34475670E-02 0.17985560E+03</pdfrwt>
<totfact> 0.27878305E+03</totfact>
</mgrwt>
</event>
<event>
12    1  0.5759937E-002  0.2440981E+03  0.7546771E-02  0.1117093E+00
         -1   -1    0    0    0  501 -0.00000000000E+00  0.00000000000E+00  0.57755595835E+02  0.57755595835E+02  0.00000000000E+00 0.  1.
          1   -1    0    0  503    0  0.00000000000E+00 -0.00000000000E+00 -0.12922590212E+04  0.12922590212E+04  0.00000000000E+00 0. -1.
          6    2    1    2  503    0 -0.14805621241E+03 -0.88484905531E+02 -0.31544146511E+03  0.39925567693E+03  0.17364203729E+03 0.  0.
         24    2    3    3    0    0 -0.30032099931E+02 -0.58265963318E+02 -0.73823867621E+02  0.12861933604E+03  0.82438587239E+02 0.  0.
         -6    2    1    2    0  501  0.14805621241E+03  0.88484905531E+02 -0.91906196024E+03  0.95075894008E+03  0.17180644591E+03 0.  0.
        -24    2    5    5    0    0  0.13460695751E+03  0.10326164875E+02 -0.71269722249E+03  0.72962964265E+03  0.78717353849E+02 0.  0.
          2    1    4    4  502    0  0.24415136428E+02 -0.37587575456E+02 -0.45453399935E+02  0.63835227587E+02  0.00000000000E+00 0. -1.
         -1    1    4    4    0  502 -0.54447236359E+02 -0.20678387862E+02 -0.28370467686E+02  0.64784108456E+02  0.00000000000E+00 0.  1.
          5    1    3    3  503    0 -0.11802411248E+03 -0.30218942213E+02 -0.24161759749E+03  0.27063634089E+03  0.47000000000E+01 0. -1.
         13    1    6    6    0    0  0.38394200419E+02  0.38984055324E+02 -0.29557920891E+03  0.30060096463E+03  0.00000000000E+00 0. -1.
        -14    1    6    6    0    0  0.96212757094E+02 -0.28657890449E+02 -0.41711801357E+03  0.42902867801E+03  0.00000000000E+00 0.  1.
         -5    1    5    5    0  501  0.13449254896E+02  0.78158740656E+02 -0.20636473775E+03  0.22112929744E+03  0.47000000000E+01 0.  1.
<mgrwt>
<rscale>  2 0.24409810E+03</rscale>
<asrwt>0</asrwt>
<pdfrwt beam="2">  1        1 0.19880909E+00 0.24409810E+03</pdfrwt>
<pdfrwt beam="1">  1       -1 0.88854758E-02 0.24409810E+03</pdfrwt>
<totfact> 0.72648974E+02</totfact>
</mgrwt>
</event>
<event>
12    1  0.5759937E-002  0.1962247E+03  0.7546771E-02  0.1152964E+00
          1   -1    0    0  503    0  0.00000000000E+00  0.00000000000E+00  0.13252752180E+04  0.13252752180E+04  0.00000000000E+00 0. -1.
         -1   -1    0    0    0  501 -0.00000000000E+00 -0.00000000000E+00 -0.29341780435E+02  0.29341780435E+02  0.00000000000E+00 0.  1.
          6    2    1    2  503    0 -0.80030073245E+02  0.50547542521E+02  0.70947987777E+03  0.73568176817E+03  0.17001794134E+03 0.  0.
         24    2    3    3    0    0 -0.15146083713E+02  0.30073369859E+02  0.15953699230E+03  0.18152620236E+03  0.79786582850E+02 0.  0.
         -6    2    1    2    0  501  0.80030073245E+02 -0.50547542521E+02  0.58645355975E+03  0.61893523022E+03  0.17376183352E+03 0.  0.
        -24    2    5    5    0    0  0.10735912560E+03 -0.11061300868E+02  0.51815654943E+03  0.53531339096E+03  0.80161603031E+02 0.  0.
          4    1    4    4  502    0 -0.22554526690E+01 -0.79014655780E+00 -0.92004193103E+01  0.95057410974E+01  0.00000000000E+00 0. -1.
         -3    1    4    4    0  502 -0.12890631044E+02  0.30863516416E+02  0.16873741161E+03  0.17202046126E+03  0.00000000000E+00 0.  1.
          5    1    3    3  503    0 -0.64883989532E+02  0.20474172662E+02  0.54994288547E+03  0.55415556581E+03  0.47000000000E+01 0. -1.
         13    1    6    6    0    0  0.50937660223E+02  0.20661743709E+01  0.40495112919E+03  0.40814743824E+03  0.00000000000E+00 0. -1.
        -14    1    6    6    0    0  0.56421465376E+02 -0.13127475239E+02  0.11320542023E+03  0.12716595272E+03  0.00000000000E+00 0.  1.
         -5    1    5    5    0  501 -0.27329052354E+02 -0.39486241653E+02  0.68297010321E+02  0.83621839260E+02  0.47000000000E+01 0.  1.
<mgrwt>
<rscale>  2 0.19622468E+03</rscale>
<asrwt>0</asrwt>
<pdfrwt beam="1">  1        1 0.20388845E+00 0.19622468E+03</pdfrwt>
<pdfrwt beam="2">  1       -1 0.45141211E-02 0.19622468E+03</pdfrwt>
<totfact> 0.19238914E+03</totfact>
</mgrwt>
</event>
<event>
12    1  0.5759937E-002  0.2163079E+03  0.7546771E-02  0.1136666E+00
         -1   -1    0    0    0  501 -0.00000000000E+00  0.00000000000E+00  0.29868181661E+02  0.29868181661E+02  0.00000000000E+00 0. -1.
          1   -1    0    0  503    0  0.00000000000E+00 -0.00000000000E+00 -0.16097919148E+04  0.16097919148E+04  0.00000000000E+00 0.  1.
          6    2    1    2  503    0 -0.87643687856E+02  0.94718235795E+02 -0.92537266089E+03  0.95038200282E+03  0.17394950283E+03 0.  0.
         24    2    3    3    0    0 -0.19491475697E+02 -0.15011434325E+02 -0.40314575573E+03  0.41239654297E+03  0.83301545644E+02 0.  0.
         -6    2    1    2    0  501  0.87643687856E+02 -0.94718235795E+02 -0.65455107227E+03  0.68927809367E+03  0.17324613701E+03 0.  0.
        -24    2    5    5    0    0  0.10047531089E+03 -0.93006417585E+02 -0.36488967882E+03  0.39928948402E+03  0.86845451978E+02 0.  0.
          4    1    4    4  502    0 -0.52335673363E+02 -0.10352001576E+02 -0.26583511353E+03  0.27113556430E+03  0.00000000000E+00 0. -1.
         -3    1    4    4    0  502  0.32844197666E+02 -0.46594327488E+01 -0.13731064220E+03  0.14126097867E+03  0.00000000000E+00 0.  1.
          5    1    3    3  503    0 -0.68152212159E+02  0.10972967012E+03 -0.52222690516E+03  0.53798545984E+03  0.47000000000E+01 0. -1.
         11    1    6    6    0    0  0.18177135876E+02 -0.12874402467E+02 -0.68935528408E+01  0.23316937584E+02  0.00000000000E+00 0. -1.
        -12    1    6    6    0    0  0.82298175015E+02 -0.80132015118E+02 -0.35799612598E+03  0.37597254644E+03  0.00000000000E+00 0.  1.
         -5    1    5    5    0  501 -0.12831623035E+02 -0.17118182094E+01 -0.28966139345E+03  0.28998860965E+03  0.47000000000E+01 0.  1.
<mgrwt>
<rscale>  2 0.21630795E+03</rscale>
<asrwt>0</asrwt>
<pdfrwt beam="2">  1        1 0.24766030E+00 0.21630795E+03</pdfrwt>
<pdfrwt beam="1">  1       -1 0.45951047E-02 0.21630795E+03</pdfrwt>
<totfact> 0.12141629E+03</totfact>
</mgrwt>
</event>
<event>
12    1  0.5759937E-002  0.2859802E+03  0.7546771E-02  0.1092467E+00
         -2   -1    0    0    0  501 -0.00000000000E+00  0.00000000000E+00  0.95266662010E+02  0.95266662010E+02  0.00000000000E+00 0. -1.
          2   -1    0    0  503    0  0.00000000000E+00 -0.00000000000E+00 -0.98275575545E+03  0.98275575545E+03  0.00000000000E+00 0.  1.
          6    2    1    2  503    0  0.19579949397E+03 -0.11671868996E+03 -0.25191520934E+03  0.38102594969E+03  0.17250741206E+03 0.  0.
         24    2    3    3    0    0  0.65516228277E+02  0.47407546885E+01 -0.11094064437E+03  0.15382109943E+03  0.83894297387E+02 0.  0.
         -6    2    1    2    0  501 -0.19579949397E+03  0.11671868996E+03 -0.63557388410E+03  0.69699646777E+03  0.17288498925E+03 0.  0.
        -24    2    5    5    0    0 -0.66934088513E+02  0.36945997056E+02 -0.41662746906E+03  0.43067035580E+03  0.77803139317E+02 0.  0.
          2    1    4    4  502    0  0.81554536194E+02  0.52387900841E+01 -0.62766095251E+02  0.10304450499E+03  0.00000000000E+00 0. -1.
         -1    1    4    4    0  502 -0.16038307917E+02 -0.49803539562E+00 -0.48174549123E+02  0.50776594444E+02  0.00000000000E+00 0.  1.
          5    1    3    3  503    0  0.13028326569E+03 -0.12145944465E+03 -0.14097456497E+03  0.22720485026E+03  0.47000000000E+01 0. -1.
         11    1    6    6    0    0  0.11474652250E+02  0.27878478987E+02 -0.11612225382E+03  0.11997189282E+03  0.00000000000E+00 0. -1.
        -12    1    6    6    0    0 -0.78408740764E+02  0.90675180689E+01 -0.30050521524E+03  0.31069846298E+03  0.00000000000E+00 0.  1.
         -5    1    5    5    0  501 -0.12886540546E+03  0.79772692903E+02 -0.21894641504E+03  0.26632611196E+03  0.47000000000E+01 0.  1.
<mgrwt>
<rscale>  2 0.28598021E+03</rscale>
<asrwt>0</asrwt>
<pdfrwt beam="2">  1        2 0.15119320E+00 0.28598021E+03</pdfrwt>
<pdfrwt beam="1">  1       -2 0.14656409E-01 0.28598021E+03</pdfrwt>
<totfact> 0.95884504E+02</totfact>
</mgrwt>
</event>
<event>
12    1  0.5759937E-002  0.1905732E+03  0.7546771E-02  0.1157945E+00
         -1   -1    0    0    0  501 -0.00000000000E+00  0.00000000000E+00  0.20007307500E+02  0.20007307500E+02  0.00000000000E+00 0. -1.
          1   -1    0    0  503    0  0.00000000000E+00 -0.00000000000E+00 -0.23925727235E+04  0.23925727235E+04  0.00000000000E+00 0.  1.
          6    2    1    2  503    0  0.77817103428E+02  0.18668072806E+02 -0.17767904579E+04  0.17869353425E+04  0.17248068968E+03 0.  0.
         24    2    3    3    0    0  0.81875387428E+02 -0.28162582264E+01 -0.17386805996E+04  0.17427482691E+04  0.86312176529E+02 0.  0.
         -6    2    1    2    0  501 -0.77817103428E+02 -0.18668072806E+02 -0.59577495805E+03  0.62564468849E+03  0.17343435954E+03 0.  0.
        -24    2    5    5    0    0 -0.99801059226E+02 -0.11824826082E+02 -0.25956535167E+03  0.28861484744E+03  0.76316973472E+02 0.  0.
          2    1    4    4  502    0  0.66801338913E+02 -0.40520908509E+02 -0.11979691069E+04  0.12005141998E+04  0.00000000000E+00 0. -1.
         -1    1    4    4    0  502  0.15074048515E+02  0.37704650283E+02 -0.54071149269E+03  0.54223406931E+03  0.00000000000E+00 0.  1.
          5    1    3    3  503    0 -0.40582839998E+01  0.21484331032E+02 -0.38109858379E+02  0.44187073388E+02  0.47000000000E+01 0. -1.
         13    1    6    6    0    0 -0.40114641809E+02 -0.23190797815E+02 -0.19302193925E+03  0.19850558335E+03  0.00000000000E+00 0. -1.
        -14    1    6    6    0    0 -0.59686417417E+02  0.11365971734E+02 -0.66543412422E+02  0.90109264087E+02  0.00000000000E+00 0.  1.
         -5    1    5    5    0  501  0.21983955798E+02 -0.68432467245E+01 -0.33620960638E+03  0.33702984105E+03  0.47000000000E+01 0.  1.
<mgrwt>
<rscale>  2 0.19057323E+03</rscale>
<asrwt>0</asrwt>
<pdfrwt beam="2">  1        1 0.36808794E+00 0.19057323E+03</pdfrwt>
<pdfrwt beam="1">  1       -1 0.30780488E-02 0.19057323E+03</pdfrwt>
<totfact> 0.68670845E+02</totfact>
</mgrwt>
</event>
<event>
12    1  0.5759937E-002  0.1837551E+03  0.7546771E-02  0.1164218E+00
         -1   -1    0    0    0  501 -0.00000000000E+00  0.00000000000E+00  0.73727328381E+02  0.73727328381E+02  0.00000000000E+00 0. -1.
          1   -1    0    0  503    0  0.00000000000E+00 -0.00000000000E+00 -0.54916597023E+03  0.54916597023E+03  0.00000000000E+00 0.  1.
          6    2    1    2  503    0 -0.60643198082E+02  0.21068577192E+02 -0.11023239794E+03  0.21382028991E+03  0.17159968648E+03 0.  0.
         24    2    3    3    0    0 -0.13232622935E+02 -0.36455011813E+02 -0.10517048122E+03  0.13895748921E+03  0.82123586680E+02 0.  0.
         -6    2    1    2    0  501  0.60643198082E+02 -0.21068577192E+02 -0.36520624391E+03  0.40907300870E+03  0.17275312861E+03 0.  0.
        -24    2    5    5    0    0  0.79058159285E+02 -0.33049973403E+02 -0.14090869197E+03  0.18365307512E+03  0.80812741804E+02 0.  0.
          4    1    4    4  502    0  0.19084348158E+02 -0.41221654553E+02 -0.23816339034E+02  0.51289912786E+02  0.00000000000E+00 0. -1.
         -3    1    4    4    0  502 -0.32316971092E+02  0.47666427392E+01 -0.81354142191E+02  0.87667576419E+02  0.00000000000E+00 0.  1.
          5    1    3    3  503    0 -0.47410575147E+02  0.57523589005E+02 -0.50619167154E+01  0.74862800700E+02  0.47000000000E+01 0. -1.
         13    1    6    6    0    0 -0.12248728465E+02 -0.24135890623E+01 -0.48859536135E+02  0.50429267619E+02  0.00000000000E+00 0. -1.
        -14    1    6    6    0    0  0.91306887750E+02 -0.30636384341E+02 -0.92049155836E+02  0.13322380751E+03  0.00000000000E+00 0.  1.
         -5    1    5    5    0  501 -0.18414961203E+02  0.11981396212E+02 -0.22429755193E+03  0.22541993358E+03  0.47000000000E+01 0.  1.
<mgrwt>
<rscale>  2 0.18375513E+03</rscale>
<asrwt>0</asrwt>
<pdfrwt beam="2">  1        1 0.84487072E-01 0.18375513E+03</pdfrwt>
<pdfrwt beam="1">  1       -1 0.11342666E-01 0.18375513E+03</pdfrwt>
<totfact> 0.19724197E+03</totfact>
</mgrwt>
</event>
<event>
12    1  0.5759937E-002  0.1785938E+03  0.7546771E-02  0.1169171E+00
          3   -1    0    0  503    0  0.00000000000E+00  0.00000000000E+00  0.67387387377E+02  0.67387387377E+02  0.00000000000E+00 0.  1.
         -3   -1    0    0    0  501 -0.00000000000E+00 -0.00000000000E+00 -0.64992418121E+03  0.64992418121E+03  0.00000000000E+00 0. -1.
          6    2    1    2  503    0 -0.33557049066E+02  0.26095687858E+02 -0.10514806684E+03  0.20785518801E+03  0.17418554118E+03 0.  0.
         24    2    3    3    0    0  0.18516570937E+02 -0.11908315538E+02 -0.11593908672E+03  0.14232273586E+03  0.79556382129E+02 0.  0.
         -6    2    1    2    0  501  0.33557049066E+02 -0.26095687858E+02 -0.47738872700E+03  0.50945638058E+03  0.17273895502E+03 0.  0.
        -24    2    5    5    0    0  0.75909165522E+01  0.50825350306E+02 -0.23313156485E+03  0.25201757735E+03  0.80757009066E+02 0.  0.
          4    1    4    4  502    0  0.64010436102E+01  0.27866415023E+02 -0.87226928017E+02  0.91793504219E+02  0.00000000000E+00 0. -1.
         -3    1    4    4    0  502  0.12115527327E+02 -0.39774730561E+02 -0.28712158698E+02  0.50529231646E+02  0.00000000000E+00 0.  1.
          5    1    3    3  503    0 -0.52073620003E+02  0.38004003395E+02  0.10791019879E+02  0.65532452146E+02  0.47000000000E+01 0. -1.
         11    1    6    6    0    0  0.37339332165E+02  0.43021466112E+02 -0.19432045314E+03  0.20249817476E+03  0.00000000000E+00 0. -1.
        -12    1    6    6    0    0 -0.29748415613E+02  0.78038841936E+01 -0.38811111708E+02  0.49519402581E+02  0.00000000000E+00 0.  1.
         -5    1    5    5    0  501  0.25966132514E+02 -0.76921038164E+02 -0.24425716215E+03  0.25743880323E+03  0.47000000000E+01 0.  1.
<mgrwt>
<rscale>  2 0.17859381E+03</rscale>
<asrwt>0</asrwt>
<pdfrwt beam="1">  1        3 0.10367291E-01 0.17859381E+03</pdfrwt>
<pdfrwt beam="2">  1       -3 0.99988334E-01 0.17859381E+03</pdfrwt>
<totfact> 0.15184177E+02</totfact>
</mgrwt>
</event>
<event>
12    1  0.5759937E-002  0.2350954E+03  0.7546771E-02  0.1123104E+00
          2   -1    0    0  503    0  0.00000000000E+00  0.00000000000E+00  0.35677321989E+03  0.35677321989E+03  0.00000000000E+00 0. -1.
         -2   -1    0    0    0  501 -0.00000000000E+00 -0.00000000000E+00 -0.15612441657E+03  0.15612441657E+03  0.00000000000E+00 0.  1.
          6    2    1    2  503    0 -0.43954857753E+02  0.15170350641E+03  0.12271801585E+03  0.26485092065E+03  0.17360966384E+03 0.  0.
         24    2    3    3    0    0 -0.37100932884E+02  0.92367354003E+02 -0.15154400833E+01  0.12692413992E+03  0.78735210865E+02 0.  0.
         -6    2    1    2    0  501  0.43954857753E+02 -0.15170350641E+03  0.77930787474E+02  0.24804671581E+03  0.17466534347E+03 0.  0.
        -24    2    5    5    0    0 -0.20008853471E+02 -0.14646979889E+03  0.71616359990E+02  0.18338830535E+03  0.81539017154E+02 0.  0.
          2    1    4    4  502    0 -0.37561208529E+02  0.63481542583E+01 -0.12754957665E+02  0.40172532826E+02  0.00000000000E+00 0. -1.
         -1    1    4    4    0  502  0.46027564405E+00  0.86019199745E+02  0.11239517581E+02  0.86751607097E+02  0.00000000000E+00 0.  1.
          5    1    3    3  503    0 -0.68539248682E+01  0.59336152406E+02  0.12423345593E+03  0.13792678072E+03  0.47000000000E+01 0. -1.
         11    1    6    6    0    0 -0.44439074239E+00 -0.61776776036E+02  0.74043086660E+02  0.96431043874E+02  0.00000000000E+00 0. -1.
        -12    1    6    6    0    0 -0.19564462729E+02 -0.84693022849E+02 -0.24267266697E+01  0.86957261477E+02  0.00000000000E+00 0.  1.
         -5    1    5    5    0  501  0.63963711224E+02 -0.52337075235E+01  0.63144274840E+01  0.64658410454E+02  0.47000000000E+01 0.  1.
<mgrwt>
<rscale>  2 0.23509536E+03</rscale>
<asrwt>0</asrwt>
<pdfrwt beam="1">  1        2 0.54888188E-01 0.23509536E+03</pdfrwt>
<pdfrwt beam="2">  1       -2 0.24019141E-01 0.23509536E+03</pdfrwt>
<totfact> 0.13776096E+03</totfact>
</mgrwt>
</event>
<event>
12    1  0.5759937E-002  0.1993304E+03  0.7546771E-02  0.1150305E+00
         -2   -1    0    0    0  501 -0.00000000000E+00  0.00000000000E+00  0.75874771186E+02  0.75874771186E+02  0.00000000000E+00 0.  1.
          2   -1    0    0  503    0  0.00000000000E+00 -0.00000000000E+00 -0.58390896749E+03  0.58390896749E+03  0.00000000000E+00 0. -1.
          6    2    1    2  503    0 -0.92510120156E+02 -0.15570713510E+02 -0.14547842490E+03  0.24492163960E+03  0.17326877382E+03 0.  0.
         24    2    3    3    0    0 -0.31480257246E+02 -0.26702838670E+02 -0.15806861620E+03  0.18144588600E+03  0.78948552439E+02 0.  0.
         -6    2    1    2    0  501  0.92510120156E+02  0.15570713510E+02 -0.36255577141E+03  0.41486209908E+03  0.17850295354E+03 0.  0.
        -24    2    5    5    0    0 -0.76032518508E+00  0.16355744388E+02 -0.27475363256E+03  0.28667747506E+03  0.80164378850E+02 0.  0.
          4    1    4    4  502    0 -0.19783103903E+02 -0.54967923661E+02 -0.10735263344E+03  0.12221878635E+03  0.00000000000E+00 0. -1.
         -3    1    4    4    0  502 -0.11697153343E+02  0.28265084991E+02 -0.50715982759E+02  0.59227099651E+02  0.00000000000E+00 0.  1.
          5    1    3    3  503    0 -0.61029862910E+02  0.11132125160E+02  0.12590191298E+02  0.63475753593E+02  0.47000000000E+01 0. -1.
         13    1    6    6    0    0 -0.13871073164E+02 -0.15198903023E+02 -0.22714805052E+03  0.22807816682E+03  0.00000000000E+00 0. -1.
        -14    1    6    6    0    0  0.13110747979E+02  0.31554647411E+02 -0.47605582036E+02  0.58599308245E+02  0.00000000000E+00 0.  1.
         -5    1    5    5    0  501  0.93270445341E+02 -0.78503087741E+00 -0.87802138851E+02  0.12818462402E+03  0.47000000000E+01 0.  1.
<mgrwt>
<rscale>  2 0.19933036E+03</rscale>
<asrwt>0</asrwt>
<pdfrwt beam="2">  1        2 0.89832150E-01 0.19933036E+03</pdfrwt>
<pdfrwt beam="1">  1       -2 0.11673042E-01 0.19933036E+03</pdfrwt>
<totfact> 0.26658760E+03</totfact>
</mgrwt>
</event>
<event>
12    1  0.5759937E-002  0.3414829E+03  0.7546771E-02  0.1066166E+00
          1   -1    0    0  503    0  0.00000000000E+00  0.00000000000E+00  0.18837299871E+03  0.18837299871E+03  0.00000000000E+00 0.  1.
         -1   -1    0    0    0  501 -0.00000000000E+00 -0.00000000000E+00 -0.66256200997E+03  0.66256200997E+03  0.00000000000E+00 0. -1.
          6    2    1    2  503    0  0.18493056905E+03  0.22763691373E+03 -0.34600777618E+03  0.48599825155E+03  0.17451372286E+03 0.  0.
         24    2    3    3    0    0  0.73531516120E+02  0.97915760855E+02 -0.72817837662E+02  0.16367518535E+03  0.80577594466E+02 0.  0.
         -6    2    1    2    0  501 -0.18493056905E+03 -0.22763691373E+03 -0.12818123509E+03  0.36493675713E+03  0.17530124875E+03 0.  0.
        -24    2    5    5    0    0 -0.37626277902E+02 -0.15075045276E+03 -0.53112388166E+02  0.18254294186E+03  0.79746874853E+02 0.  0.
          2    1    4    4  502    0  0.64943514060E+02  0.10298730146E+03 -0.38134632785E+02  0.12758641973E+03  0.00000000000E+00 0. -1.
         -1    1    4    4    0  502  0.85880020603E+01 -0.50715406074E+01 -0.34683204877E+02  0.36088765621E+02  0.00000000000E+00 0.  1.
          5    1    3    3  503    0  0.11139905293E+03  0.12972115288E+03 -0.27318993852E+03  0.32232306620E+03  0.47000000000E+01 0. -1.
         13    1    6    6    0    0 -0.18599310702E+02 -0.12069643256E+03 -0.43671079895E+01  0.12219916048E+03  0.00000000000E+00 0. -1.
        -14    1    6    6    0    0 -0.19026967200E+02 -0.30054020208E+02 -0.48745280176E+02  0.60343781377E+02  0.00000000000E+00 0.  1.
         -5    1    5    5    0  501 -0.14730429115E+03 -0.76886460968E+02 -0.75068846921E+02  0.18239381527E+03  0.47000000000E+01 0.  1.
<mgrwt>
<rscale>  2 0.34148292E+03</rscale>
<asrwt>0</asrwt>
<pdfrwt beam="1">  1        1 0.28980461E-01 0.34148292E+03</pdfrwt>
<pdfrwt beam="2">  1       -1 0.10193262E+00 0.34148292E+03</pdfrwt>
<totfact> 0.15277945E+02</totfact>
</mgrwt>
</event>
<event>
12    1  0.5759937E-002  0.1734049E+03  0.7546771E-02  0.1174343E+00
         -1   -1    0    0    0  501 -0.00000000000E+00  0.00000000000E+00  0.13774331598E+03  0.13774331598E+03  0.00000000000E+00 0.  1.
          1   -1    0    0  503    0  0.00000000000E+00 -0.00000000000E+00 -0.23675613946E+03  0.23675613946E+03  0.00000000000E+00 0. -1.
          6    2    1    2  503    0 -0.10335557947E+02 -0.15499377028E+02  0.27869506647E+01  0.17338278743E+03  0.17235651841E+03 0.  0.
         24    2    3    3    0    0  0.31801994139E+02  0.44281420236E+02  0.16106148106E+02  0.98892465659E+02  0.80920335813E+02 0.  0.
         -6    2    1    2    0  501  0.10335557947E+02  0.15499377028E+02 -0.10179977414E+03  0.20111666801E+03  0.17244612402E+03 0.  0.
        -24    2    5    5    0    0 -0.14681721659E+02  0.63243251821E+02 -0.21650887614E+02  0.10441467283E+03  0.78856839377E+02 0.  0.
          4    1    4    4  502    0  0.34233180562E+02  0.66070976146E+02  0.18939589815E+02  0.76785367113E+02  0.00000000000E+00 0. -1.
         -3    1    4    4    0  502 -0.24311864231E+01 -0.21789555911E+02 -0.28334417089E+01  0.22107098546E+02  0.00000000000E+00 0.  1.
          5    1    3    3  503    0 -0.42137552087E+02 -0.59780797263E+02 -0.13319197441E+02  0.74490321773E+02  0.47000000000E+01 0. -1.
         11    1    6    6    0    0  0.23442517762E+02  0.30367112209E+02 -0.35430529956E+02  0.52221026377E+02  0.00000000000E+00 0. -1.
        -12    1    6    6    0    0 -0.38124239421E+02  0.32876139612E+02  0.13779642343E+02  0.52193646455E+02  0.00000000000E+00 0.  1.
         -5    1    5    5    0  501  0.25017279606E+02 -0.47743874793E+02 -0.80148886528E+02  0.96701995176E+02  0.47000000000E+01 0.  1.
<mgrwt>
<rscale>  2 0.17340493E+03</rscale>
<asrwt>0</asrwt>
<pdfrwt beam="2">  1        1 0.36424021E-01 0.17340493E+03</pdfrwt>
<pdfrwt beam="1">  1       -1 0.21191280E-01 0.17340493E+03</pdfrwt>
<totfact> 0.21346389E+03</totfact>
</mgrwt>
</event>
<event>
12    1  0.5759937E-002  0.3397720E+03  0.7546771E-02  0.1066893E+00
          2   -1    0    0  503    0  0.00000000000E+00  0.00000000000E+00  0.10368304278E+04  0.10368304278E+04  0.00000000000E+00 0.  1.
         -2   -1    0    0    0  501 -0.00000000000E+00 -0.00000000000E+00 -0.11947872231E+03  0.11947872231E+03  0.00000000000E+00 0. -1.
          6    2    1    2  503    0 -0.87541405669E+02  0.28012471241E+03  0.30819749676E+03  0.45894991637E+03  0.17180214351E+03 0.  0.
         24    2    3    3    0    0 -0.45345767365E+02  0.13117308799E+03  0.24298791200E+03  0.29089802482E+03  0.79472748997E+02 0.  0.
         -6    2    1    2    0  501  0.87541405669E+02 -0.28012471241E+03  0.60915420869E+03  0.69735923370E+03  0.17060978473E+03 0.  0.
        -24    2    5    5    0    0 -0.16921617575E+02 -0.15834261570E+03  0.29746031335E+03  0.34676177692E+03  0.80014791303E+02 0.  0.
          2    1    4    4  502    0 -0.67399119376E+02  0.84717800591E+02  0.15698670429E+03  0.19069497202E+03  0.00000000000E+00 0. -1.
         -1    1    4    4    0  502  0.22053352011E+02  0.46455287401E+02  0.86001207715E+02  0.10020305280E+03  0.00000000000E+00 0.  1.
          5    1    3    3  503    0 -0.42195638303E+02  0.14895162442E+03  0.65209584756E+02  0.16805189155E+03  0.47000000000E+01 0. -1.
         11    1    6    6    0    0  0.40678472643E+01 -0.70932733358E+02  0.20857142952E+03  0.22034073898E+03  0.00000000000E+00 0. -1.
        -12    1    6    6    0    0 -0.20989464839E+02 -0.87409882339E+02  0.88888883830E+02  0.12642103794E+03  0.00000000000E+00 0.  1.
         -5    1    5    5    0  501  0.10446302324E+03 -0.12178209671E+03  0.31169389534E+03  0.35059745677E+03  0.47000000000E+01 0.  1.
<mgrwt>
<rscale>  2 0.33977200E+03</rscale>
<asrwt>0</asrwt>
<pdfrwt beam="1">  1        2 0.15951237E+00 0.33977200E+03</pdfrwt>
<pdfrwt beam="2">  1       -2 0.18381343E-01 0.33977200E+03</pdfrwt>
<totfact> 0.60520976E+02</totfact>
</mgrwt>
</event>
<event>
12    1  0.5759937E-002  0.2202420E+03  0.7546771E-02  0.1133703E+00
         -3   -1    0    0    0  501 -0.00000000000E+00  0.00000000000E+00  0.64150948447E+03  0.64150948447E+03  0.00000000000E+00 0.  1.
          3   -1    0    0  503    0  0.00000000000E+00 -0.00000000000E+00 -0.12208132460E+03  0.12208132460E+03  0.00000000000E+00 0. -1.
          6    2    1    2  503    0  0.87197512066E+02  0.10398655500E+03  0.24230164286E+02  0.22166144388E+03  0.17358019792E+03 0.  0.
         24    2    3    3    0    0  0.77727489886E+02  0.19501418139E+02  0.61843369734E+02  0.12857942148E+03  0.79285542534E+02 0.  0.
         -6    2    1    2    0  501 -0.87197512066E+02 -0.10398655500E+03  0.49519799559E+03  0.54192936519E+03  0.17334870145E+03 0.  0.
        -24    2    5    5    0    0  0.69518489567E+00 -0.60646444288E+02  0.14736511322E+03  0.18052475062E+03  0.84818833442E+02 0.  0.
          4    1    4    4  502    0  0.67220527060E+02  0.43179295074E+02  0.64305169546E+02  0.10255830347E+03  0.00000000000E+00 0. -1.
         -3    1    4    4    0  502  0.10506962826E+02 -0.23677876934E+02 -0.24617998126E+01  0.26021118006E+02  0.00000000000E+00 0.  1.
          5    1    3    3  503    0  0.94700221799E+01  0.84485136858E+02 -0.37613205448E+02  0.93082022400E+02  0.47000000000E+01 0. -1.
         13    1    6    6    0    0  0.89168261512E+01  0.20113709768E+02  0.21572147435E+02  0.30812800168E+02  0.00000000000E+00 0. -1.
        -14    1    6    6    0    0 -0.82216412555E+01 -0.80760154056E+02  0.12579296578E+03  0.14971195045E+03  0.00000000000E+00 0.  1.
         -5    1    5    5    0  501 -0.87892696961E+02 -0.43340110710E+02  0.34783288237E+03  0.36140461457E+03  0.47000000000E+01 0.  1.
<mgrwt>
<rscale>  2 0.22024196E+03</rscale>
<asrwt>0</asrwt>
<pdfrwt beam="2">  1        3 0.18781743E-01 0.22024196E+03</pdfrwt>
<pdfrwt beam="1">  1       -3 0.98693765E-01 0.22024196E+03</pdfrwt>
<totfact> 0.57545144E+01</totfact>
</mgrwt>
</event>
<event>
12    1  0.5759937E-002  0.1949274E+03  0.7546771E-02  0.1154091E+00
         -2   -1    0    0    0  501 -0.00000000000E+00  0.00000000000E+00  0.48656587040E+03  0.48656587040E+03  0.00000000000E+00 0.  1.
          2   -1    0    0  503    0  0.00000000000E+00 -0.00000000000E+00 -0.79519190145E+02  0.79519190145E+02  0.00000000000E+00 0. -1.
          6    2    1    2  503    0  0.24482827179E+02 -0.90238370049E+02  0.16414083238E+03  0.25370390675E+03  0.16935491487E+03 0.  0.
         24    2    3    3    0    0 -0.17247872556E+02 -0.11074611028E+03  0.84949105760E+02  0.16175044964E+03  0.79904113411E+02 0.  0.
         -6    2    1    2    0  501 -0.24482827179E+02  0.90238370049E+02  0.24290584787E+03  0.31238115379E+03  0.17273205278E+03 0.  0.
        -24    2    5    5    0    0  0.46612141973E+02  0.76684528015E+02  0.17101832516E+03  0.21026304964E+03  0.83126854204E+02 0.  0.
          2    1    4    4  502    0 -0.44042066801E+02 -0.43487274289E+02  0.21618164266E+02  0.65560595631E+02  0.00000000000E+00 0. -1.
         -1    1    4    4    0  502  0.26794194245E+02 -0.67258835989E+02  0.63330941494E+02  0.96189854009E+02  0.00000000000E+00 0.  1.
          5    1    3    3  503    0  0.41730699735E+02  0.20507740229E+02  0.79191726624E+02  0.91953457115E+02  0.47000000000E+01 0. -1.
         11    1    6    6    0    0  0.16871716775E+02  0.11080045991E+01 -0.39501959679E+01  0.17363368029E+02  0.00000000000E+00 0. -1.
        -12    1    6    6    0    0  0.29740425199E+02  0.75576523416E+02  0.17496852112E+03  0.19289968162E+03  0.00000000000E+00 0.  1.
         -5    1    5    5    0  501 -0.71094969152E+02  0.13553842033E+02  0.71887522717E+02  0.10211810415E+03  0.47000000000E+01 0.  1.
<mgrwt>
<rscale>  2 0.19492744E+03</rscale>
<asrwt>0</asrwt>
<pdfrwt beam="2">  1        2 0.12233722E-01 0.19492744E+03</pdfrwt>
<pdfrwt beam="1">  1       -2 0.74856286E-01 0.19492744E+03</pdfrwt>
<totfact> 0.81610916E+02</totfact>
</mgrwt>
</event>
<event>
12    1  0.5759937E-002  0.1799390E+03  0.7546771E-02  0.1167862E+00
          1   -1    0    0  503    0  0.00000000000E+00  0.00000000000E+00  0.26281030005E+03  0.26281030005E+03  0.00000000000E+00 0.  1.
         -1   -1    0    0    0  501 -0.00000000000E+00 -0.00000000000E+00 -0.37218320050E+03  0.37218320050E+03  0.00000000000E+00 0. -1.
          6    2    1    2  503    0  0.25426630806E+02 -0.47693899575E+02 -0.31429357740E+03  0.36178530138E+03  0.17084182711E+03 0.  0.
         24    2    3    3    0    0 -0.22558353321E+02 -0.82156271804E+02 -0.23761757077E+03  0.26487547838E+03  0.80239496549E+02 0.  0.
         -6    2    1    2    0  501 -0.25426630806E+02  0.47693899575E+02  0.20492067694E+03  0.27320819917E+03  0.17242103888E+03 0.  0.
        -24    2    5    5    0    0 -0.27648573150E+02 -0.30658061114E+02  0.15514165614E+03  0.18023504346E+03  0.81922995020E+02 0.  0.
          4    1    4    4  502    0 -0.22097841727E+02 -0.96469678465E+02 -0.17904050046E+03  0.20457324918E+03  0.00000000000E+00 0. -1.
         -3    1    4    4    0  502 -0.46051159459E+00  0.14313406661E+02 -0.58577070307E+02  0.60302229203E+02  0.00000000000E+00 0.  1.
          5    1    3    3  503    0  0.47984984127E+02  0.34462372229E+02 -0.76676006626E+02  0.96909822998E+02  0.47000000000E+01 0. -1.
         13    1    6    6    0    0 -0.37275927456E+02 -0.29418982727E+02  0.33279801959E+02  0.57987210063E+02  0.00000000000E+00 0. -1.
        -14    1    6    6    0    0  0.96273543055E+01 -0.12390783862E+01  0.12186185418E+03  0.12224783340E+03  0.00000000000E+00 0.  1.
         -5    1    5    5    0  501  0.22219423446E+01  0.78351960689E+02  0.49779020796E+02  0.92973155712E+02  0.47000000000E+01 0.  1.
<mgrwt>
<rscale>  2 0.17993904E+03</rscale>
<asrwt>0</asrwt>
<pdfrwt beam="1">  1        1 0.40432354E-01 0.17993904E+03</pdfrwt>
<pdfrwt beam="2">  1       -1 0.57258954E-01 0.17993904E+03</pdfrwt>
<totfact> 0.33366292E+02</totfact>
</mgrwt>
</event>
<event>
12    1  0.5759937E-002  0.3059106E+03  0.7546771E-02  0.1082323E+00
         -2   -1    0    0    0  501 -0.00000000000E+00  0.00000000000E+00  0.26484172938E+03  0.26484172938E+03  0.00000000000E+00 0. -1.
          2   -1    0    0  503    0  0.00000000000E+00 -0.00000000000E+00 -0.51540090225E+03  0.51540090225E+03  0.00000000000E+00 0.  1.
          6    2    1    2  503    0  0.20618005034E+02  0.25210327675E+03 -0.34409848482E+03  0.46057302400E+03  0.17246036909E+03 0.  0.
         24    2    3    3    0    0 -0.61012920827E+01  0.15268002233E+03 -0.30485924380E+03  0.35029740388E+03  0.80129255886E+02 0.  0.
         -6    2    1    2    0  501 -0.20618005034E+02 -0.25210327675E+03  0.93539311948E+02  0.31966960763E+03  0.17163301222E+03 0.  0.
        -24    2    5    5    0    0 -0.75299995506E+02 -0.17832202983E+03  0.41169985912E+02  0.21384697873E+03  0.81035343672E+02 0.  0.
          2    1    4    4  502    0 -0.22172889216E+02  0.36266462031E+01 -0.44893919935E+02  0.50202127704E+02  0.00000000000E+00 0. -1.
         -1    1    4    4    0  502  0.16071597133E+02  0.14905337612E+03 -0.25996532387E+03  0.30009527617E+03  0.00000000000E+00 0.  1.
          5    1    3    3  503    0  0.26719297116E+02  0.99423254425E+02 -0.39239241015E+02  0.11027562013E+03  0.47000000000E+01 0. -1.
         11    1    6    6    0    0 -0.17600387337E+02 -0.65449376049E+02  0.53691148910E+02  0.86464639772E+02  0.00000000000E+00 0. -1.
        -12    1    6    6    0    0 -0.57699608169E+02 -0.11287265378E+03 -0.12521162998E+02  0.12738233896E+03  0.00000000000E+00 0.  1.
         -5    1    5    5    0  501  0.54681990472E+02 -0.73781246919E+02  0.52369326036E+02  0.10582262891E+03  0.47000000000E+01 0.  1.
<mgrwt>
<rscale>  2 0.30591059E+03</rscale>
<asrwt>0</asrwt>
<pdfrwt beam="2">  1        2 0.79292446E-01 0.30591059E+03</pdfrwt>
<pdfrwt beam="1">  1       -2 0.40744882E-01 0.30591059E+03</pdfrwt>
<totfact> 0.34754624E+02</totfact>
</mgrwt>
</event>
<event>
12    1  0.5759937E-002  0.2629620E+03  0.7546771E-02  0.1105377E+00
         -2   -1    0    0    0  501 -0.00000000000E+00  0.00000000000E+00  0.10647072185E+03  0.10647072185E+03  0.00000000000E+00 0. -1.
          2   -1    0    0  503    0  0.00000000000E+00 -0.00000000000E+00 -0.10032157894E+04  0.10032157894E+04  0.00000000000E+00 0.  1.
          6    2    1    2  503    0  0.19200485497E+03  0.38040585076E+02 -0.12064308381E+03  0.29074592088E+03  0.17794798788E+03 0.  0.
         24    2    3    3    0    0  0.19476407318E+03  0.32215648246E+02 -0.14773167638E+03  0.26250720594E+03  0.90080479408E+02 0.  0.
         -6    2    1    2    0  501 -0.19200485497E+03 -0.38040585076E+02 -0.77610198375E+03  0.81894059038E+03  0.17325256403E+03 0.  0.
        -24    2    5    5    0    0 -0.61508843550E+02  0.38473783938E+02 -0.29488949456E+03  0.31448919786E+03  0.81731705495E+02 0.  0.
          2    1    4    4  502    0  0.12375574913E+03 -0.19458822533E+02 -0.62001722122E+02  0.13977962928E+03  0.00000000000E+00 0. -1.
         -1    1    4    4    0  502  0.71008324056E+02  0.51674470779E+02 -0.85729954255E+02  0.12272757666E+03  0.00000000000E+00 0.  1.
          5    1    3    3  503    0 -0.27592182102E+01  0.58249368304E+01  0.27088592568E+02  0.28238714941E+02  0.47000000000E+01 0. -1.
         11    1    6    6    0    0  0.97431938646E+01 -0.16533853515E+02 -0.47355872846E+02  0.51096739933E+02  0.00000000000E+00 0. -1.
        -12    1    6    6    0    0 -0.71252037415E+02  0.55007637453E+02 -0.24753362171E+03  0.26339245793E+03  0.00000000000E+00 0.  1.
         -5    1    5    5    0  501 -0.13049601142E+03 -0.76514369014E+02 -0.48121248919E+03  0.50445139252E+03  0.47000000000E+01 0.  1.
<mgrwt>
<rscale>  2 0.26296198E+03</rscale>
<asrwt>0</asrwt>
<pdfrwt beam="2">  1        2 0.15434089E+00 0.26296198E+03</pdfrwt>
<pdfrwt beam="1">  1       -2 0.16380111E-01 0.26296198E+03</pdfrwt>
<totfact> 0.77472479E+02</totfact>
</mgrwt>
</event>
<event>
12    1  0.5759937E-002  0.1746140E+03  0.7546771E-02  0.1173120E+00
         -1   -1    0    0    0  501 -0.00000000000E+00  0.00000000000E+00  0.16970917052E+03  0.16970917052E+03  0.00000000000E+00 0. -1.
          1   -1    0    0  503    0  0.00000000000E+00 -0.00000000000E+00 -0.19989782655E+03  0.19989782655E+03  0.00000000000E+00 0.  1.
          6    2    1    2  503    0  0.34993536516E+00  0.28087677416E+02 -0.73925009759E+02  0.18999169405E+03  0.17275096718E+03 0.  0.
         24    2    3    3    0    0 -0.60369808668E+02  0.47513054295E+02 -0.49800185379E+02  0.12166651762E+03  0.80129139012E+02 0.  0.
         -6    2    1    2    0  501 -0.34993536516E+00 -0.28087677416E+02  0.43736353737E+02  0.17961530302E+03  0.17192948660E+03 0.  0.
        -24    2    5    5    0    0 -0.58144653977E+02 -0.51781487497E+02  0.22988218625E+02  0.11362893135E+03  0.79504418814E+02 0.  0.
          4    1    4    4  502    0 -0.69725067959E+02  0.57573991993E+02 -0.25832858194E+02  0.94040875253E+02  0.00000000000E+00 0. -1.
         -3    1    4    4    0  502  0.93552592905E+01 -0.10060937698E+02 -0.23967327185E+02  0.27625642366E+02  0.00000000000E+00 0.  1.
          5    1    3    3  503    0  0.60719744034E+02 -0.19425376879E+02 -0.24124824381E+02  0.68325176427E+02  0.47000000000E+01 0. -1.
         11    1    6    6    0    0 -0.24892270274E+02 -0.56552237752E+02  0.42300298048E+02  0.74880544397E+02  0.00000000000E+00 0. -1.
        -12    1    6    6    0    0 -0.33252383703E+02  0.47707502549E+01 -0.19312079423E+02  0.38748386955E+02  0.00000000000E+00 0.  1.
         -5    1    5    5    0  501  0.57794718612E+02  0.23693810081E+02  0.20748135112E+02  0.65986371671E+02  0.47000000000E+01 0.  1.
<mgrwt>
<rscale>  2 0.17461396E+03</rscale>
<asrwt>0</asrwt>
<pdfrwt beam="2">  1        1 0.30753512E-01 0.17461396E+03</pdfrwt>
<pdfrwt beam="1">  1       -1 0.26109103E-01 0.17461396E+03</pdfrwt>
<totfact> 0.18722798E+03</totfact>
</mgrwt>
</event>
<event>
12    1  0.5759937E-002  0.2110601E+03  0.7546771E-02  0.1140729E+00
         -2   -1    0    0    0  501 -0.00000000000E+00  0.00000000000E+00  0.26742924672E+02  0.26742924672E+02  0.00000000000E+00 0.  1.
          2   -1    0    0  503    0  0.00000000000E+00 -0.00000000000E+00 -0.17333984311E+04  0.17333984311E+04  0.00000000000E+00 0. -1.
          6    2    1    2  503    0 -0.15540840316E+02 -0.11096711052E+03 -0.66065774561E+03  0.69201333479E+03  0.17279635806E+03 0.  0.
         24    2    3    3    0    0  0.19505390496E+02 -0.13180102562E+03 -0.41869648771E+03  0.44659607656E+03  0.79933323264E+02 0.  0.
         -6    2    1    2    0  501  0.15540840316E+02  0.11096711052E+03 -0.10459977609E+04  0.10681280210E+04  0.18501604318E+03 0.  0.
        -24    2    5    5    0    0  0.66097670961E+02  0.69165794817E+02 -0.89695590576E+03  0.90522035487E+03  0.75770605885E+02 0.  0.
          4    1    4    4  502    0 -0.28252954775E+02 -0.79677275841E+02 -0.21848172943E+03  0.23426686457E+03  0.00000000000E+00 0. -1.
         -3    1    4    4    0  502  0.47758345271E+02 -0.52123749775E+02 -0.20021475827E+03  0.21232921199E+03  0.00000000000E+00 0.  1.
          5    1    3    3  503    0 -0.35046230812E+02  0.20833915093E+02 -0.24196125790E+03  0.24541725823E+03  0.47000000000E+01 0. -1.
         13    1    6    6    0    0 -0.39513268329E+01  0.48374932020E+02 -0.39607232461E+03  0.39903512797E+03  0.00000000000E+00 0. -1.
        -14    1    6    6    0    0  0.70048997794E+02  0.20790862797E+02 -0.50088358115E+03  0.50618522690E+03  0.00000000000E+00 0.  1.
         -5    1    5    5    0  501 -0.50556830645E+02  0.41801315705E+02 -0.14904185510E+03  0.16290766615E+03  0.47000000000E+01 0.  1.
<mgrwt>
<rscale>  2 0.21106009E+03</rscale>
<asrwt>0</asrwt>
<pdfrwt beam="2">  1        2 0.26667673E+00 0.21106009E+03</pdfrwt>
<pdfrwt beam="1">  1       -2 0.41142953E-02 0.21106009E+03</pdfrwt>
<totfact> 0.27034369E+03</totfact>
</mgrwt>
</event>
<event>
12    1  0.5759937E-002  0.1753046E+03  0.7546771E-02  0.1172426E+00
          2   -1    0    0  503    0  0.00000000000E+00  0.00000000000E+00  0.97755483150E+02  0.97755483150E+02  0.00000000000E+00 0. -1.
         -2   -1    0    0    0  501 -0.00000000000E+00 -0.00000000000E+00 -0.31480992934E+03  0.31480992934E+03  0.00000000000E+00 0.  1.
          6    2    1    2  503    0 -0.19405129411E+02 -0.24833932542E+02 -0.10099602986E+03  0.20252311732E+03  0.17269085601E+03 0.  0.
         24    2    3    3    0    0  0.36310246317E+01 -0.64270385216E+02 -0.11533316352E+03  0.15442382841E+03  0.80006958558E+02 0.  0.
         -6    2    1    2    0  501  0.19405129411E+02  0.24833932542E+02 -0.11605841633E+03  0.21004229517E+03  0.17220605827E+03 0.  0.
        -24    2    5    5    0    0 -0.52219075516E+02  0.22409123372E+02 -0.88257227348E+02  0.13302994200E+03  0.81722864809E+02 0.  0.
          4    1    4    4  502    0  0.27456925562E+02  0.56013419710E+01 -0.41000360327E+02  0.49661729130E+02  0.00000000000E+00 0. -1.
         -3    1    4    4    0  502 -0.23825900930E+02 -0.69871727187E+02 -0.74332803191E+02  0.10476209928E+03  0.00000000000E+00 0.  1.
          5    1    3    3  503    0 -0.23036154043E+02  0.39436452674E+02  0.14337133656E+02  0.48099288914E+02  0.47000000000E+01 0. -1.
         11    1    6    6    0    0 -0.42494767529E+02 -0.22990641213E+02 -0.24538100277E+02  0.54189419779E+02  0.00000000000E+00 0. -1.
        -12    1    6    6    0    0 -0.97243079873E+01  0.45399764585E+02 -0.63719127071E+02  0.78840522226E+02  0.00000000000E+00 0.  1.
         -5    1    5    5    0  501  0.71624204927E+02  0.24248091706E+01 -0.27801188982E+02  0.77012353164E+02  0.47000000000E+01 0.  1.
<mgrwt>
<rscale>  2 0.17530459E+03</rscale>
<asrwt>0</asrwt>
<pdfrwt beam="1">  1        2 0.15039305E-01 0.17530459E+03</pdfrwt>
<pdfrwt beam="2">  1       -2 0.48432297E-01 0.17530459E+03</pdfrwt>
<totfact> 0.15640546E+03</totfact>
</mgrwt>
</event>
<event>
12    1  0.5759937E-002  0.1875175E+03  0.7546771E-02  0.1160720E+00
         -2   -1    0    0    0  501 -0.00000000000E+00  0.00000000000E+00  0.42302226166E+02  0.42302226166E+02  0.00000000000E+00 0. -1.
          2   -1    0    0  503    0  0.00000000000E+00 -0.00000000000E+00 -0.84591195214E+03  0.84591195214E+03  0.00000000000E+00 0.  1.
          6    2    1    2  503    0  0.53486511785E+02  0.51899546552E+02 -0.46351552599E+03  0.50060495704E+03  0.17379387301E+03 0.  0.
         24    2    3    3    0    0 -0.25315522701E+02 -0.90662344451E+01 -0.16549351652E+03  0.18633469879E+03  0.81298485003E+02 0.  0.
         -6    2    1    2    0  501 -0.53486511785E+02 -0.51899546552E+02 -0.34009419998E+03  0.38760922127E+03  0.17035983587E+03 0.  0.
        -24    2    5    5    0    0  0.31951466495E+02 -0.39240213500E+02 -0.21999428145E+03  0.23960250765E+03  0.80319283078E+02 0.  0.
          4    1    4    4  502    0 -0.14476483215E+02  0.61931573416E+01  0.36463989038E+01  0.16162301479E+02  0.00000000000E+00 0. -1.
         -3    1    4    4    0  502 -0.10839039486E+02 -0.15259391787E+02 -0.16913991543E+03  0.17017239731E+03  0.00000000000E+00 0.  1.
          5    1    3    3  503    0  0.78802034486E+02  0.60965780997E+02 -0.29802200947E+03  0.31427025825E+03  0.47000000000E+01 0. -1.
         11    1    6    6    0    0  0.22878415281E+02 -0.61050942155E+02 -0.19308716887E+03  0.20379718891E+03  0.00000000000E+00 0. -1.
        -12    1    6    6    0    0  0.90730512142E+01  0.21810728655E+02 -0.26907112574E+02  0.35805318737E+02  0.00000000000E+00 0.  1.
         -5    1    5    5    0  501 -0.85437978280E+02 -0.12659333052E+02 -0.12009991853E+03  0.14800671362E+03  0.47000000000E+01 0.  1.
<mgrwt>
<rscale>  2 0.18751746E+03</rscale>
<asrwt>0</asrwt>
<pdfrwt beam="2">  1        2 0.13014030E+00 0.18751746E+03</pdfrwt>
<pdfrwt beam="1">  1       -2 0.65080348E-02 0.18751746E+03</pdfrwt>
<totfact> 0.42489947E+03</totfact>
</mgrwt>
</event>
<event>
12    1  0.5759937E-002  0.2160371E+03  0.7546771E-02  0.1136873E+00
          1   -1    0    0  503    0  0.00000000000E+00  0.00000000000E+00  0.77798316532E+03  0.77798316532E+03  0.00000000000E+00 0. -1.
         -1   -1    0    0    0  501 -0.00000000000E+00 -0.00000000000E+00 -0.91373999662E+02  0.91373999662E+02  0.00000000000E+00 0.  1.
          6    2    1    2  503    0 -0.47626172152E+02  0.12084918349E+03  0.59780459321E+03  0.63556398529E+03  0.17233244127E+03 0.  0.
         24    2    3    3    0    0  0.22888938331E+02  0.11289548582E+03  0.45577481790E+03  0.47672384809E+03  0.79155849349E+02 0.  0.
         -6    2    1    2    0  501  0.47626172152E+02 -0.12084918349E+03  0.88804572448E+02  0.23379317969E+03  0.17291680473E+03 0.  0.
        -24    2    5    5    0    0 -0.67117762953E+01 -0.39358391035E+02 -0.14604560380E+02  0.91283879472E+02  0.80779468813E+02 0.  0.
          4    1    4    4  502    0 -0.27970812474E+02  0.46770486487E+02  0.14354004597E+03  0.15353693221E+03  0.00000000000E+00 0. -1.
         -3    1    4    4    0  502  0.50859750805E+02  0.66124999331E+02  0.31223477193E+03  0.32318691587E+03  0.00000000000E+00 0.  1.
          5    1    3    3  503    0 -0.70515110483E+02  0.79536976709E+01  0.14202977531E+03  0.15884013721E+03  0.47000000000E+01 0. -1.
         11    1    6    6    0    0 -0.31846347707E+02  0.57620249717E+01  0.10274622163E+02  0.33955244876E+02  0.00000000000E+00 0. -1.
        -12    1    6    6    0    0  0.25134571411E+02 -0.45120416007E+02 -0.24879182543E+02  0.57328634596E+02  0.00000000000E+00 0.  1.
         -5    1    5    5    0  501  0.54337948448E+02 -0.81490792454E+02  0.10340913283E+03  0.14250930022E+03  0.47000000000E+01 0.  1.
<mgrwt>
<rscale>  2 0.21603707E+03</rscale>
<asrwt>0</asrwt>
<pdfrwt beam="1">  1        1 0.11968971E+00 0.21603707E+03</pdfrwt>
<pdfrwt beam="2">  1       -1 0.14057539E-01 0.21603707E+03</pdfrwt>
<totfact> 0.86101752E+02</totfact>
</mgrwt>
</event>
<event>
12    1  0.5759937E-002  0.1763523E+03  0.7546771E-02  0.1171381E+00
          1   -1    0    0  503    0  0.00000000000E+00  0.00000000000E+00  0.50955553163E+03  0.50955553163E+03  0.00000000000E+00 0. -1.
         -1   -1    0    0    0  501 -0.00000000000E+00 -0.00000000000E+00 -0.69943510556E+02  0.69943510556E+02  0.00000000000E+00 0.  1.
          6    2    1    2  503    0  0.31119418305E+02 -0.16549493356E+02  0.11593357815E+03  0.21069330135E+03  0.17236231829E+03 0.  0.
         24    2    3    3    0    0  0.70738608975E+01 -0.42409707490E+02  0.14059735786E+03  0.16736511728E+03  0.79967760043E+02 0.  0.
         -6    2    1    2    0  501 -0.31119418305E+02  0.16549493356E+02  0.32367844292E+03  0.36880574083E+03  0.17322712296E+03 0.  0.
        -24    2    5    5    0    0 -0.84000065932E+02  0.12843384461E+01  0.25422724443E+03  0.28006484372E+03  0.82141124143E+02 0.  0.
          4    1    4    4  502    0  0.37147097243E+02 -0.28591802172E+02  0.11885833983E+03  0.12776816087E+03  0.00000000000E+00 0. -1.
         -3    1    4    4    0  502 -0.30073236345E+02 -0.13817905318E+02  0.21739018027E+02  0.39596956404E+02  0.00000000000E+00 0.  1.
          5    1    3    3  503    0  0.24045557408E+02  0.25860214134E+02 -0.24663779710E+02  0.43328184080E+02  0.47000000000E+01 0. -1.
         11    1    6    6    0    0 -0.70340972607E+01  0.24241853818E+02  0.19262344449E+02  0.31751911981E+02  0.00000000000E+00 0. -1.
        -12    1    6    6    0    0 -0.76965968672E+02 -0.22957515372E+02  0.23496489998E+03  0.24831293173E+03  0.00000000000E+00 0.  1.
         -5    1    5    5    0  501  0.52880647627E+02  0.15265154910E+02  0.69451198498E+02  0.88740897114E+02  0.47000000000E+01 0.  1.
<mgrwt>
<rscale>  2 0.17635234E+03</rscale>
<asrwt>0</asrwt>
<pdfrwt beam="1">  1        1 0.78393156E-01 0.17635234E+03</pdfrwt>
<pdfrwt beam="2">  1       -1 0.10760540E-01 0.17635234E+03</pdfrwt>
<totfact> 0.23618548E+03</totfact>
</mgrwt>
</event>
<event>
12    1  0.5759937E-002  0.2063857E+03  0.7546771E-02  0.1144460E+00
          1   -1    0    0  503    0  0.00000000000E+00  0.00000000000E+00  0.12450487960E+04  0.12450487960E+04  0.00000000000E+00 0.  1.
         -1   -1    0    0    0  501 -0.00000000000E+00 -0.00000000000E+00 -0.39265280827E+02  0.39265280827E+02  0.00000000000E+00 0. -1.
          6    2    1    2  503    0  0.11147564389E+03 -0.23415671408E+02  0.37491866618E+03  0.42842504767E+03  0.17323077780E+03 0.  0.
         24    2    3    3    0    0  0.12072250350E+02 -0.58325132984E+02  0.17294706016E+03  0.20057789541E+03  0.82299733568E+02 0.  0.
         -6    2    1    2    0  501 -0.11147564389E+03  0.23415671408E+02  0.83086484896E+03  0.85588902912E+03  0.17098105182E+03 0.  0.
        -24    2    5    5    0    0 -0.43076542367E+02  0.76398587534E+02  0.45907926609E+03  0.47414011148E+03  0.79766785564E+02 0.  0.
          4    1    4    4  502    0  0.11958101799E+02 -0.37343013662E+02  0.16188454983E+02  0.42421255789E+02  0.00000000000E+00 0. -1.
         -3    1    4    4    0  502  0.11414855073E+00 -0.20982119322E+02  0.15675860517E+03  0.15815663962E+03  0.00000000000E+00 0.  1.
          5    1    3    3  503    0  0.99403393538E+02  0.34909461576E+02  0.20197160602E+03  0.22784715226E+03  0.47000000000E+01 0. -1.
         11    1    6    6    0    0  0.14038551899E+02 -0.83598336501E+01  0.61323317641E+02  0.63462721692E+02  0.00000000000E+00 0. -1.
        -12    1    6    6    0    0 -0.57115094266E+02  0.84758421184E+02  0.39775594845E+03  0.41067738979E+03  0.00000000000E+00 0.  1.
         -5    1    5    5    0  501 -0.68399101521E+02 -0.52982916126E+02  0.37178558287E+03  0.38174891764E+03  0.47000000000E+01 0.  1.
<mgrwt>
<rscale>  2 0.20638572E+03</rscale>
<asrwt>0</asrwt>
<pdfrwt beam="1">  1        1 0.19154594E+00 0.20638572E+03</pdfrwt>
<pdfrwt beam="2">  1       -1 0.60408134E-02 0.20638572E+03</pdfrwt>
<totfact> 0.14107019E+03</totfact>
</mgrwt>
</event>
<event>
12    1  0.5759937E-002  0.1756643E+03  0.7546771E-02  0.1172066E+00
          1   -1    0    0  503    0  0.00000000000E+00  0.00000000000E+00  0.22268488244E+04  0.22268488244E+04  0.00000000000E+00 0.  1.
         -1   -1    0    0    0  501 -0.00000000000E+00 -0.00000000000E+00 -0.17384445538E+02  0.17384445538E+02  0.00000000000E+00 0. -1.
          6    2    1    2  503    0 -0.54130649581E+02  0.22865102142E+02  0.15615833789E+04  0.15704716041E+04  0.15615847714E+03 0.  0.
         24    2    3    3    0    0 -0.34163335540E+02  0.62687933665E+02  0.73676608857E+03  0.74443879365E+03  0.79170308273E+02 0.  0.
         -6    2    1    2    0  501  0.54130649581E+02 -0.22865102142E+02  0.64788099997E+03  0.67376166583E+03  0.17536263026E+03 0.  0.
        -24    2    5    5    0    0  0.38839128113E+02  0.19141791827E+02  0.15310739955E+03  0.17695041852E+03  0.77425375374E+02 0.  0.
          4    1    4    4  502    0 -0.18109488243E+02 -0.13658146672E+02  0.83331286709E+02  0.86363197483E+02  0.00000000000E+00 0. -1.
         -3    1    4    4    0  502 -0.16053847296E+02  0.76346080338E+02  0.65343480186E+03  0.65807559617E+03  0.00000000000E+00 0.  1.
          5    1    3    3  503    0 -0.19967314041E+02 -0.39822831523E+02  0.82481729033E+03  0.82603281047E+03  0.47000000000E+01 0. -1.
         13    1    6    6    0    0  0.66973900021E+00  0.41349529468E+02  0.50698101419E+02  0.65425756587E+02  0.00000000000E+00 0. -1.
        -14    1    6    6    0    0  0.38169389113E+02 -0.22207737641E+02  0.10240929813E+03  0.11152466193E+03  0.00000000000E+00 0.  1.
         -5    1    5    5    0  501  0.15291521468E+02 -0.42006893969E+02  0.49477360043E+03  0.49681124731E+03  0.47000000000E+01 0.  1.
<mgrwt>
<rscale>  2 0.17566429E+03</rscale>
<asrwt>0</asrwt>
<pdfrwt beam="1">  1        1 0.34259190E+00 0.17566429E+03</pdfrwt>
<pdfrwt beam="2">  1       -1 0.26745318E-02 0.17566429E+03</pdfrwt>
<totfact> 0.10836178E+03</totfact>
</mgrwt>
</event>
<event>
12    1  0.5759937E-002  0.3035397E+03  0.7546771E-02  0.1083484E+00
         -2   -1    0    0    0  501 -0.00000000000E+00  0.00000000000E+00  0.35245122117E+02  0.35245122117E+02  0.00000000000E+00 0.  1.
          2   -1    0    0  503    0  0.00000000000E+00 -0.00000000000E+00 -0.34290577501E+04  0.34290577501E+04  0.00000000000E+00 0. -1.
          6    2    1    2  503    0 -0.12013161031E+03 -0.21869846885E+03 -0.25417352707E+04  0.25598076398E+04  0.17302121886E+03 0.  0.
         24    2    3    3    0    0 -0.12860561946E+03 -0.22466346310E+03 -0.20580302846E+04  0.20759688303E+04  0.84527243671E+02 0.  0.
         -6    2    1    2    0  501  0.12013161031E+03  0.21869846885E+03 -0.85207735721E+03  0.90449523238E+03  0.17267072323E+03 0.  0.
        -24    2    5    5    0    0  0.20545800762E+02  0.33253149480E+02 -0.31366076136E+03  0.32637602268E+03  0.81303954913E+02 0.  0.
          4    1    4    4  502    0 -0.62313862063E+02 -0.85944394275E+02 -0.11624843703E+04  0.11673214499E+04  0.00000000000E+00 0. -1.
         -3    1    4    4    0  502 -0.66291757397E+02 -0.13871906883E+03 -0.89554591435E+03  0.90864738037E+03  0.00000000000E+00 0.  1.
          5    1    3    3  503    0  0.84740091490E+01  0.59649942489E+01 -0.48370498610E+03  0.48383880948E+03  0.47000000000E+01 0. -1.
         11    1    6    6    0    0  0.51296610171E+02  0.11963632140E+02 -0.19222063911E+03  0.19930691109E+03  0.00000000000E+00 0. -1.
        -12    1    6    6    0    0 -0.30750809409E+02  0.21289517340E+02 -0.12144012225E+03  0.12706911159E+03  0.00000000000E+00 0.  1.
         -5    1    5    5    0  501  0.99585809550E+02  0.18544531937E+03 -0.53841659585E+03  0.57811920970E+03  0.47000000000E+01 0.  1.
<mgrwt>
<rscale>  2 0.30353972E+03</rscale>
<asrwt>0</asrwt>
<pdfrwt beam="2">  1        2 0.52754742E+00 0.30353972E+03</pdfrwt>
<pdfrwt beam="1">  1       -2 0.54223257E-02 0.30353972E+03</pdfrwt>
<totfact> 0.19334345E+02</totfact>
</mgrwt>
</event>
<event>
12    1  0.5759937E-002  0.2812088E+03  0.7546771E-02  0.1095031E+00
         -2   -1    0    0    0  501 -0.00000000000E+00  0.00000000000E+00  0.16169414780E+03  0.16169414780E+03  0.00000000000E+00 0.  1.
          2   -1    0    0  503    0  0.00000000000E+00 -0.00000000000E+00 -0.51345570804E+03  0.51345570804E+03  0.00000000000E+00 0. -1.
          6    2    1    2  503    0 -0.42001424416E+02 -0.21385305435E+03 -0.25161124441E+03  0.38024097815E+03  0.18378719936E+03 0.  0.
         24    2    3    3    0    0  0.46760970477E+02 -0.86943227537E+02 -0.14163528429E+03  0.19023658691E+03  0.79898010422E+02 0.  0.
         -6    2    1    2    0  501  0.42001424416E+02  0.21385305435E+03 -0.10015031583E+03  0.29490887768E+03  0.17159228382E+03 0.  0.
        -24    2    5    5    0    0  0.97524448602E+01  0.33083087756E+02 -0.64789478013E+02  0.10785205114E+03  0.79023968500E+02 0.  0.
          4    1    4    4  502    0  0.20418193766E+01  0.57548706312E+01 -0.56045412025E+02  0.56377085517E+02  0.00000000000E+00 0. -1.
         -3    1    4    4    0  502  0.44719151100E+02 -0.92698098168E+02 -0.85589872260E+02  0.13385950139E+03  0.00000000000E+00 0.  1.
          5    1    3    3  503    0 -0.88762394892E+02 -0.12690982681E+03 -0.10997596012E+03  0.19000439125E+03  0.47000000000E+01 0. -1.
         13    1    6    6    0    0  0.40536799242E+02  0.29577823090E+02 -0.21440783885E+02  0.54569102294E+02  0.00000000000E+00 0. -1.
        -14    1    6    6    0    0 -0.30784354382E+02  0.35052646660E+01 -0.43348694127E+02  0.53282948845E+02  0.00000000000E+00 0.  1.
         -5    1    5    5    0  501  0.32248979555E+02  0.18076996659E+03 -0.35360837820E+02  0.18705682654E+03  0.47000000000E+01 0.  1.
<mgrwt>
<rscale>  2 0.28120880E+03</rscale>
<asrwt>0</asrwt>
<pdfrwt beam="2">  1        2 0.78993187E-01 0.28120880E+03</pdfrwt>
<pdfrwt beam="1">  1       -2 0.24876022E-01 0.28120880E+03</pdfrwt>
<totfact> 0.86848547E+02</totfact>
</mgrwt>
</event>
<event>
12    1  0.5759937E-002  0.1916290E+03  0.7546771E-02  0.1157000E+00
          1   -1    0    0  503    0  0.00000000000E+00  0.00000000000E+00  0.11819246992E+04  0.11819246992E+04  0.00000000000E+00 0. -1.
         -1   -1    0    0    0  501 -0.00000000000E+00 -0.00000000000E+00 -0.32145390420E+02  0.32145390420E+02  0.00000000000E+00 0.  1.
          6    2    1    2  503    0  0.77627138018E+02 -0.24974781498E+02  0.68631361411E+03  0.71259815190E+03  0.17355125156E+03 0.  0.
         24    2    3    3    0    0  0.67152114751E+02  0.47989237615E+01  0.66344478524E+03  0.67333910236E+03  0.93242305405E+02 0.  0.
         -6    2    1    2    0  501 -0.77627138018E+02  0.24974781498E+02  0.46346569462E+03  0.50147193767E+03  0.17327418131E+03 0.  0.
        -24    2    5    5    0    0  0.16081550141E+02 -0.14685360132E+02  0.27477514488E+03  0.28704139266E+03  0.80106833664E+02 0.  0.
          4    1    4    4  502    0 -0.23499370748E+02  0.62920780374E+01  0.14497615072E+03  0.14700304401E+03  0.00000000000E+00 0. -1.
         -3    1    4    4    0  502  0.90651485498E+02 -0.14931542759E+01  0.51846863452E+03  0.52633605835E+03  0.00000000000E+00 0.  1.
          5    1    3    3  503    0  0.10475023267E+02 -0.29773705260E+02  0.22868828868E+02  0.39259049544E+02  0.47000000000E+01 0. -1.
         11    1    6    6    0    0 -0.27384335358E+02  0.92043657949E+01  0.15024867716E+03  0.15300093843E+03  0.00000000000E+00 0. -1.
        -12    1    6    6    0    0  0.43465885499E+02 -0.23889725927E+02  0.12452646772E+03  0.13404045423E+03  0.00000000000E+00 0.  1.
         -5    1    5    5    0  501 -0.93708688158E+02  0.39660141631E+02  0.18869054975E+03  0.21443054501E+03  0.47000000000E+01 0.  1.
<mgrwt>
<rscale>  2 0.19162899E+03</rscale>
<asrwt>0</asrwt>
<pdfrwt beam="1">  1        1 0.18183454E+00 0.19162899E+03</pdfrwt>
<pdfrwt beam="2">  1       -1 0.49454456E-02 0.19162899E+03</pdfrwt>
<totfact> 0.21047294E+03</totfact>
</mgrwt>
</event>
<event>
12    1  0.5759937E-002  0.2006682E+03  0.7546771E-02  0.1149176E+00
          2   -1    0    0  503    0  0.00000000000E+00  0.00000000000E+00  0.68412830457E+03  0.68412830457E+03  0.00000000000E+00 0.  1.
         -2   -1    0    0    0  501 -0.00000000000E+00 -0.00000000000E+00 -0.62982750857E+02  0.62982750857E+02  0.00000000000E+00 0. -1.
          6    2    1    2  503    0 -0.34958656567E+02  0.94638922804E+02  0.20876866830E+03  0.28646241657E+03  0.16821927911E+03 0.  0.
         24    2    3    3    0    0 -0.76561303325E+02  0.45208699720E+02  0.80638540580E+02  0.14288823086E+03  0.77517821143E+02 0.  0.
         -6    2    1    2    0  501  0.34958656567E+02 -0.94638922804E+02  0.41237688541E+03  0.46064863885E+03  0.17878433791E+03 0.  0.
        -24    2    5    5    0    0  0.74775000433E+02 -0.15631455496E+02  0.15423408574E+03  0.18772499358E+03  0.74945826570E+02 0.  0.
          4    1    4    4  502    0 -0.64864605937E+02  0.61593295622E+02  0.83727688183E+02  0.12252133258E+03  0.00000000000E+00 0. -1.
         -3    1    4    4    0  502 -0.11696697388E+02 -0.16384595902E+02 -0.30891476034E+01  0.20366898281E+02  0.00000000000E+00 0.  1.
          5    1    3    3  503    0  0.41602646758E+02  0.49430223083E+02  0.12813012772E+03  0.14357418571E+03  0.47000000000E+01 0. -1.
         13    1    6    6    0    0  0.44968449617E+02  0.18431823669E+02  0.34161818221E+02  0.59404742310E+02  0.00000000000E+00 0. -1.
        -14    1    6    6    0    0  0.29806550816E+02 -0.34063279165E+02  0.12007226752E+03  0.12832025127E+03  0.00000000000E+00 0.  1.
         -5    1    5    5    0  501 -0.39816343866E+02 -0.79007467307E+02  0.25814279966E+03  0.27292364527E+03  0.47000000000E+01 0.  1.
<mgrwt>
<rscale>  2 0.20066817E+03</rscale>
<asrwt>0</asrwt>
<pdfrwt beam="1">  1        2 0.10525050E+00 0.20066817E+03</pdfrwt>
<pdfrwt beam="2">  1       -2 0.96896545E-02 0.20066817E+03</pdfrwt>
<totfact> 0.29803264E+03</totfact>
</mgrwt>
</event>
<event>
12    1  0.5759937E-002  0.1889814E+03  0.7546771E-02  0.1159383E+00
          1   -1    0    0  503    0  0.00000000000E+00  0.00000000000E+00  0.20273504467E+02  0.20273504467E+02  0.00000000000E+00 0. -1.
         -1   -1    0    0    0  501 -0.00000000000E+00 -0.00000000000E+00 -0.20209136643E+04  0.20209136643E+04  0.00000000000E+00 0.  1.
          6    2    1    2  503    0 -0.55774414712E+02  0.51516774278E+02 -0.13684103075E+04  0.13814730293E+04  0.17365539876E+03 0.  0.
         24    2    3    3    0    0 -0.32413711656E+02  0.65688581235E+02 -0.13277139813E+04  0.13322303290E+04  0.81532785058E+02 0.  0.
         -6    2    1    2    0  501  0.55774414712E+02 -0.51516774278E+02 -0.63222985232E+03  0.65971413950E+03  0.17246273894E+03 0.  0.
        -24    2    5    5    0    0  0.48679172994E+02 -0.80520426907E+02 -0.28436013161E+03  0.31053368914E+03  0.81959054493E+02 0.  0.
          2    1    4    4  502    0 -0.13276317706E+02  0.55544787684E+02 -0.37987036057E+03  0.38413926496E+03  0.00000000000E+00 0. -1.
         -1    1    4    4    0  502 -0.19137393950E+02  0.10143793551E+02 -0.94784362075E+03  0.94809106408E+03  0.00000000000E+00 0.  1.
          5    1    3    3  503    0 -0.23360703057E+02 -0.14171806957E+02 -0.40696326228E+02  0.49242700253E+02  0.47000000000E+01 0. -1.
         13    1    6    6    0    0  0.51569230105E+02 -0.15160909316E+02 -0.83661034174E+02  0.99440471157E+02  0.00000000000E+00 0. -1.
        -14    1    6    6    0    0 -0.28900571108E+01 -0.65359517591E+02 -0.20069909743E+03  0.21109321799E+03  0.00000000000E+00 0.  1.
         -5    1    5    5    0  501  0.70952417185E+01  0.29003652629E+02 -0.34786972071E+03  0.34918045036E+03  0.47000000000E+01 0.  1.
<mgrwt>
<rscale>  2 0.18898138E+03</rscale>
<asrwt>0</asrwt>
<pdfrwt beam="1">  1        1 0.31190011E-02 0.18898138E+03</pdfrwt>
<pdfrwt beam="2">  1       -1 0.31090975E+00 0.18898138E+03</pdfrwt>
<totfact> 0.10761025E+02</totfact>
</mgrwt>
</event>
<event>
12    1  0.5759937E-002  0.2003864E+03  0.7546771E-02  0.1149413E+00
         -2   -1    0    0    0  501 -0.00000000000E+00  0.00000000000E+00  0.10244355651E+03  0.10244355651E+03  0.00000000000E+00 0. -1.
          2   -1    0    0  503    0  0.00000000000E+00 -0.00000000000E+00 -0.82823953411E+03  0.82823953411E+03  0.00000000000E+00 0.  1.
          6    2    1    2  503    0 -0.10145371896E+03 -0.23943420155E+02 -0.70170621176E+03  0.73010773719E+03  0.17262547849E+03 0.  0.
         24    2    3    3    0    0 -0.21728931012E+02 -0.63410542567E+02 -0.28720484244E+03  0.30614173533E+03  0.82116364017E+02 0.  0.
         -6    2    1    2    0  501  0.10145371896E+03  0.23943420155E+02 -0.24089765835E+02  0.20057535342E+03  0.16965851326E+03 0.  0.
        -24    2    5    5    0    0  0.79151010766E+02 -0.49953354211E+02 -0.45717631033E+02  0.12027592249E+03  0.60132982976E+02 0.  0.
          4    1    4    4  502    0 -0.40647744730E+02 -0.53308949576E+02 -0.11907028980E+03  0.13664485782E+03  0.00000000000E+00 0. -1.
         -3    1    4    4    0  502  0.18918813717E+02 -0.10101592991E+02 -0.16813455264E+03  0.16949687751E+03  0.00000000000E+00 0.  1.
          5    1    3    3  503    0 -0.79724787946E+02  0.39467122411E+02 -0.41450136932E+03  0.42396600186E+03  0.47000000000E+01 0. -1.
         11    1    6    6    0    0  0.31799421530E+02  0.16749283934E+01  0.69971878874E+01  0.32603208939E+02  0.00000000000E+00 0. -1.
        -12    1    6    6    0    0  0.47351589236E+02 -0.51628282604E+02 -0.52714818920E+02  0.87672713552E+02  0.00000000000E+00 0.  1.
         -5    1    5    5    0  501  0.22302708192E+02  0.73896774366E+02  0.21627865198E+02  0.80299430928E+02  0.47000000000E+01 0.  1.
<mgrwt>
<rscale>  2 0.20038642E+03</rscale>
<asrwt>0</asrwt>
<pdfrwt beam="2">  1        2 0.12742146E+00 0.20038642E+03</pdfrwt>
<pdfrwt beam="1">  1       -2 0.15760548E-01 0.20038642E+03</pdfrwt>
<totfact> 0.10713318E+03</totfact>
</mgrwt>
</event>
<event>
12    1  0.5759937E-002  0.2542792E+03  0.7546771E-02  0.1110630E+00
          2   -1    0    0  503    0  0.00000000000E+00  0.00000000000E+00  0.22147272294E+03  0.22147272294E+03  0.00000000000E+00 0.  1.
         -2   -1    0    0    0  501 -0.00000000000E+00 -0.00000000000E+00 -0.31985720428E+03  0.31985720428E+03  0.00000000000E+00 0. -1.
          6    2    1    2  503    0  0.18563442063E+03 -0.18362457799E+02 -0.12920733649E+03  0.28552863245E+03  0.17330535528E+03 0.  0.
         24    2    3    3    0    0  0.32838172398E+02 -0.15408851360E+01 -0.91274850556E+02  0.12712843589E+03  0.82157294110E+02 0.  0.
         -6    2    1    2    0  501 -0.18563442063E+03  0.18362457799E+02  0.30822855146E+02  0.25580129476E+03  0.17229897279E+03 0.  0.
        -24    2    5    5    0    0 -0.70258277331E+02 -0.51672506461E+02 -0.29916340696E+02  0.10772060536E+03  0.55699801810E+02 0.  0.
          2    1    4    4  502    0  0.12226652976E+02  0.27057924049E+02 -0.86622941450E+02  0.91570498974E+02  0.00000000000E+00 0. -1.
         -1    1    4    4    0  502  0.20611519422E+02 -0.28598809185E+02 -0.46519091057E+01  0.35557936920E+02  0.00000000000E+00 0.  1.
          5    1    3    3  503    0  0.15279624823E+03 -0.16821572663E+02 -0.37932485937E+02  0.15840019656E+03  0.47000000000E+01 0. -1.
         11    1    6    6    0    0 -0.13486100992E+01 -0.31402844623E+02 -0.58830235299E+01  0.31977607251E+02  0.00000000000E+00 0. -1.
        -12    1    6    6    0    0 -0.68909667232E+02 -0.20269661837E+02 -0.24033317166E+02  0.75742998112E+02  0.00000000000E+00 0.  1.
         -5    1    5    5    0  501 -0.11537614330E+03  0.70034964260E+02  0.60739195842E+02  0.14808068940E+03  0.47000000000E+01 0.  1.
<mgrwt>
<rscale>  2 0.25427923E+03</rscale>
<asrwt>0</asrwt>
<pdfrwt beam="1">  1        2 0.34072727E-01 0.25427923E+03</pdfrwt>
<pdfrwt beam="2">  1       -2 0.49208800E-01 0.25427923E+03</pdfrwt>
<totfact> 0.60575279E+02</totfact>
</mgrwt>
</event>
<event>
12    1  0.5759937E-002  0.1837500E+03  0.7546771E-02  0.1164222E+00
          2   -1    0    0  503    0  0.00000000000E+00  0.00000000000E+00  0.15371807937E+04  0.15371807937E+04  0.00000000000E+00 0. -1.
         -2   -1    0    0    0  501 -0.00000000000E+00 -0.00000000000E+00 -0.24190212035E+02  0.24190212035E+02  0.00000000000E+00 0.  1.
          6    2    1    2  503    0 -0.61110737031E+02  0.22984299509E+01  0.99194091921E+03  0.10087517783E+04  0.17289753609E+03 0.  0.
         24    2    3    3    0    0 -0.97414234725E+02 -0.14641045790E+02  0.89095771735E+03  0.90001086214E+03  0.80684598907E+02 0.  0.
         -6    2    1    2    0  501  0.61110737031E+02 -0.22984299509E+01  0.52104966247E+03  0.55261922748E+03  0.17365326046E+03 0.  0.
        -24    2    5    5    0    0  0.10349351119E+03 -0.18387171130E+02  0.44256079820E+03  0.46185723681E+03  0.80019073759E+02 0.  0.
          2    1    4    4  502    0 -0.78291530983E+02  0.21913152402E+02  0.69626002243E+03  0.70099056264E+03  0.00000000000E+00 0. -1.
         -1    1    4    4    0  502 -0.19122703742E+02 -0.36554198192E+02  0.19469769492E+03  0.19902029950E+03  0.00000000000E+00 0.  1.
          5    1    3    3  503    0  0.36303497694E+02  0.16939475741E+02  0.10098320185E+03  0.10874091613E+03  0.47000000000E+01 0. -1.
         11    1    6    6    0    0  0.24619805085E+02 -0.40971353141E+02  0.12379445296E+03  0.13270212193E+03  0.00000000000E+00 0. -1.
        -12    1    6    6    0    0  0.78873706103E+02  0.22584182012E+02  0.31876634524E+03  0.32915511488E+03  0.00000000000E+00 0.  1.
         -5    1    5    5    0  501 -0.42382774158E+02  0.16088741179E+02  0.78488864264E+02  0.90761990676E+02  0.47000000000E+01 0.  1.
<mgrwt>
<rscale>  2 0.18374999E+03</rscale>
<asrwt>0</asrwt>
<pdfrwt beam="1">  1        2 0.23648928E+00 0.18374999E+03</pdfrwt>
<pdfrwt beam="2">  1       -2 0.37215723E-02 0.18374999E+03</pdfrwt>
<totfact> 0.39761052E+03</totfact>
</mgrwt>
</event>
<event>
12    1  0.5759937E-002  0.1732516E+03  0.7546771E-02  0.1174499E+00
          2   -1    0    0  503    0  0.00000000000E+00  0.00000000000E+00  0.69041477220E+03  0.69041477220E+03  0.00000000000E+00 0.  1.
         -2   -1    0    0    0  501 -0.00000000000E+00 -0.00000000000E+00 -0.47819406475E+02  0.47819406475E+02  0.00000000000E+00 0. -1.
          6    2    1    2  503    0  0.45755954872E+01  0.15243662738E+02  0.21114098610E+03  0.27353348360E+03  0.17316681354E+03 0.  0.
         24    2    3    3    0    0  0.88318636920E+01  0.46147029852E+02  0.22152015858E+03  0.24032277540E+03  0.80475496507E+02 0.  0.
         -6    2    1    2    0  501 -0.45755954872E+01 -0.15243662738E+02  0.43145437962E+03  0.46470069507E+03  0.17187364247E+03 0.  0.
        -24    2    5    5    0    0 -0.44537699177E+02  0.35507815091E+02  0.19174921129E+03  0.21639978899E+03  0.82563291274E+02 0.  0.
          4    1    4    4  502    0 -0.30021810377E+02  0.42782018092E+02  0.15024141257E+03  0.15907260047E+03  0.00000000000E+00 0. -1.
         -3    1    4    4    0  502  0.38853674069E+02  0.33650117602E+01  0.71278746011E+02  0.81250174927E+02  0.00000000000E+00 0.  1.
          5    1    3    3  503    0 -0.42562682049E+01 -0.30903367114E+02 -0.10379172479E+02  0.33210708203E+02  0.47000000000E+01 0. -1.
         13    1    6    6    0    0  0.56909701113E+01 -0.13216527456E+02  0.24716434201E+01  0.14600436979E+02  0.00000000000E+00 0. -1.
        -14    1    6    6    0    0 -0.50228669288E+02  0.48724342546E+02  0.18927756787E+03  0.20179935201E+03  0.00000000000E+00 0.  1.
         -5    1    5    5    0  501  0.39962103690E+02 -0.50751477829E+02  0.23970516834E+03  0.24830090608E+03  0.47000000000E+01 0.  1.
<mgrwt>
<rscale>  2 0.17325162E+03</rscale>
<asrwt>0</asrwt>
<pdfrwt beam="1">  1        2 0.10621765E+00 0.17325162E+03</pdfrwt>
<pdfrwt beam="2">  1       -2 0.73568323E-02 0.17325162E+03</pdfrwt>
<totfact> 0.45116206E+03</totfact>
</mgrwt>
</event>
<event>
12    1  0.5759937E-002  0.2125020E+03  0.7546771E-02  0.1139600E+00
         -1   -1    0    0    0  501 -0.00000000000E+00  0.00000000000E+00  0.26723439740E+03  0.26723439740E+03  0.00000000000E+00 0. -1.
          1   -1    0    0  503    0  0.00000000000E+00 -0.00000000000E+00 -0.16899080408E+03  0.16899080408E+03  0.00000000000E+00 0.  1.
          6    2    1    2  503    0  0.86565540356E+02 -0.85301862748E+02  0.50940890757E+02  0.21916071791E+03  0.17511837527E+03 0.  0.
         24    2    3    3    0    0  0.10257387681E+03 -0.16005690234E+02  0.63953804269E+02  0.14670623372E+03  0.81578475152E+02 0.  0.
         -6    2    1    2    0  501 -0.86565540356E+02  0.85301862748E+02  0.47302702564E+02  0.21706448358E+03  0.17352073016E+03 0.  0.
        -24    2    5    5    0    0  0.18613926618E+02  0.62088449710E+02  0.26057447951E+02  0.10717802553E+03  0.81281515194E+02 0.  0.
          2    1    4    4  502    0  0.46197455276E+02  0.30878294302E+02  0.12016245088E+02  0.56851245184E+02  0.00000000000E+00 0. -1.
         -1    1    4    4    0  502  0.56376421531E+02 -0.46883984536E+02  0.51937559182E+02  0.89854988534E+02  0.00000000000E+00 0.  1.
          5    1    3    3  503    0 -0.16008336451E+02 -0.69296172514E+02 -0.13012913513E+02  0.72454484189E+02  0.47000000000E+01 0. -1.
         13    1    6    6    0    0 -0.24372148116E+02 -0.43058743765E+01  0.40527875378E+01  0.25079219381E+02  0.00000000000E+00 0. -1.
        -14    1    6    6    0    0  0.42986074734E+02  0.66394324086E+02  0.22004660413E+02  0.82098806153E+02  0.00000000000E+00 0.  1.
         -5    1    5    5    0  501 -0.10517946697E+03  0.23213413039E+02  0.21245254613E+02  0.10988645804E+03  0.47000000000E+01 0.  1.
<mgrwt>
<rscale>  2 0.21250197E+03</rscale>
<asrwt>0</asrwt>
<pdfrwt beam="2">  1        1 0.25998585E-01 0.21250197E+03</pdfrwt>
<pdfrwt beam="1">  1       -1 0.41112985E-01 0.21250197E+03</pdfrwt>
<totfact> 0.10659926E+03</totfact>
</mgrwt>
</event>
<event>
12    1  0.5759937E-002  0.1783056E+03  0.7546771E-02  0.1169453E+00
         -1   -1    0    0    0  501 -0.00000000000E+00  0.00000000000E+00  0.22338446073E+02  0.22338446073E+02  0.00000000000E+00 0. -1.
          1   -1    0    0  503    0  0.00000000000E+00 -0.00000000000E+00 -0.15002999606E+04  0.15002999606E+04  0.00000000000E+00 0.  1.
          6    2    1    2  503    0  0.39152472795E+02 -0.15109165949E+02 -0.91097716560E+03  0.92823626337E+03  0.17315299990E+03 0.  0.
         24    2    3    3    0    0 -0.94726075033E+01 -0.21375098115E+02 -0.19866501994E+03  0.21422341811E+03  0.76663274180E+02 0.  0.
         -6    2    1    2    0  501 -0.39152472795E+02  0.15109165949E+02 -0.56698434894E+03  0.59440214331E+03  0.17344005596E+03 0.  0.
        -24    2    5    5    0    0  0.29659815461E+02 -0.36144307709E+02 -0.27826552265E+03  0.29316685283E+03  0.79554929901E+02 0.  0.
          2    1    4    4  502    0 -0.20264622848E+02  0.24698302874E+02 -0.64947166126E+02  0.72379523982E+02  0.00000000000E+00 0. -1.
         -1    1    4    4    0  502  0.10792015344E+02 -0.46073400989E+02 -0.13371785381E+03  0.14184389413E+03  0.00000000000E+00 0.  1.
          5    1    3    3  503    0  0.48625080298E+02  0.62659321664E+01 -0.71231214566E+03  0.71401284526E+03  0.47000000000E+01 0. -1.
         13    1    6    6    0    0 -0.23379188766E+02  0.26750841185E+01 -0.44524274144E+02  0.50360237593E+02  0.00000000000E+00 0. -1.
        -14    1    6    6    0    0  0.53039004227E+02 -0.38819391827E+02 -0.23374124850E+03  0.24280661524E+03  0.00000000000E+00 0.  1.
         -5    1    5    5    0  501 -0.68812288256E+02  0.51253473657E+02 -0.28871882629E+03  0.30123529048E+03  0.47000000000E+01 0.  1.
<mgrwt>
<rscale>  2 0.17830556E+03</rscale>
<asrwt>0</asrwt>
<pdfrwt beam="2">  1        1 0.23081532E+00 0.17830556E+03</pdfrwt>
<pdfrwt beam="1">  1       -1 0.34366848E-02 0.17830556E+03</pdfrwt>
<totfact> 0.22034072E+03</totfact>
</mgrwt>
</event>
<event>
12    1  0.5759937E-002  0.1838136E+03  0.7546771E-02  0.1164162E+00
         -2   -1    0    0    0  501 -0.00000000000E+00  0.00000000000E+00  0.24559430231E+03  0.24559430231E+03  0.00000000000E+00 0. -1.
          2   -1    0    0  503    0  0.00000000000E+00 -0.00000000000E+00 -0.17229089612E+03  0.17229089612E+03  0.00000000000E+00 0.  1.
          6    2    1    2  503    0 -0.22740596281E+02  0.52882193747E+02 -0.56980958965E+02  0.19336346850E+03  0.17558171924E+03 0.  0.
         24    2    3    3    0    0  0.18160212899E+02  0.29895241383E+02 -0.98654203101E+02  0.13043473542E+03  0.77827049444E+02 0.  0.
         -6    2    1    2    0  501  0.22740596281E+02 -0.52882193747E+02  0.13028436516E+03  0.22452172993E+03  0.17355785857E+03 0.  0.
        -24    2    5    5    0    0 -0.33506682616E+01 -0.62945234879E+02  0.15515191881E+03  0.18680563115E+03  0.82770141633E+02 0.  0.
          2    1    4    4  502    0  0.41550082585E+02 -0.20302822160E+01 -0.70525052295E+02  0.81879877930E+02  0.00000000000E+00 0. -1.
         -1    1    4    4    0  502 -0.23389869685E+02  0.31925523599E+02 -0.28129150806E+02  0.48554857491E+02  0.00000000000E+00 0.  1.
          5    1    3    3  503    0 -0.40900809180E+02  0.22986952364E+02  0.41673244136E+02  0.62928733082E+02  0.47000000000E+01 0. -1.
         11    1    6    6    0    0  0.12514853531E+02 -0.48996312814E+01  0.11188822448E+03  0.11269251405E+03  0.00000000000E+00 0. -1.
        -12    1    6    6    0    0 -0.15865521793E+02 -0.58045603597E+02  0.43263694331E+02  0.74113117098E+02  0.00000000000E+00 0.  1.
         -5    1    5    5    0  501  0.26091264542E+02  0.10063041132E+02 -0.24867553659E+02  0.37716098781E+02  0.47000000000E+01 0.  1.
<mgrwt>
<rscale>  2 0.18381363E+03</rscale>
<asrwt>0</asrwt>
<pdfrwt beam="2">  1        2 0.26506292E-01 0.18381363E+03</pdfrwt>
<pdfrwt beam="1">  1       -2 0.37783739E-01 0.18381363E+03</pdfrwt>
<totfact> 0.13243600E+03</totfact>
</mgrwt>
</event>
<event>
12    1  0.5759937E-002  0.2000368E+03  0.7546771E-02  0.1149708E+00
         -2   -1    0    0    0  501 -0.00000000000E+00  0.00000000000E+00  0.25602705172E+02  0.25602705172E+02  0.00000000000E+00 0.  1.
          2   -1    0    0  503    0  0.00000000000E+00 -0.00000000000E+00 -0.15701982159E+04  0.15701982159E+04  0.00000000000E+00 0. -1.
          6    2    1    2  503    0  0.98609031146E+02  0.13350259098E+02 -0.82571292524E+03  0.84954063488E+03  0.17324977620E+03 0.  0.
         24    2    3    3    0    0  0.13256211842E+03  0.11453870554E+02 -0.56485987195E+03  0.58643834709E+03  0.84494695747E+02 0.  0.
         -6    2    1    2    0  501 -0.98609031146E+02 -0.13350259098E+02 -0.71888258552E+03  0.74626028623E+03  0.17381102554E+03 0.  0.
        -24    2    5    5    0    0 -0.61869609002E+02  0.58381754410E+02 -0.49694818467E+03  0.51009882625E+03  0.77505074180E+02 0.  0.
          4    1    4    4  502    0  0.14590387789E+02 -0.77549193778E+01 -0.23518911852E+03  0.23576882673E+03  0.00000000000E+00 0. -1.
         -3    1    4    4    0  502  0.11797173064E+03  0.19208789932E+02 -0.32967075343E+03  0.35066952036E+03  0.00000000000E+00 0.  1.
          5    1    3    3  503    0 -0.33953087278E+02  0.18963885440E+01 -0.26085305330E+03  0.26310228779E+03  0.47000000000E+01 0. -1.
         13    1    6    6    0    0 -0.70729174427E+02  0.17313386450E+02 -0.33100143203E+03  0.33891638714E+03  0.00000000000E+00 0. -1.
        -14    1    6    6    0    0  0.88595654256E+01  0.41068367960E+02 -0.16594675264E+03  0.17118243911E+03  0.00000000000E+00 0.  1.
         -5    1    5    5    0  501 -0.36739422145E+02 -0.71732013508E+02 -0.22193440084E+03  0.23616145998E+03  0.47000000000E+01 0.  1.
<mgrwt>
<rscale>  2 0.20003682E+03</rscale>
<asrwt>0</asrwt>
<pdfrwt beam="2">  1        2 0.24156898E+00 0.20003682E+03</pdfrwt>
<pdfrwt beam="1">  1       -2 0.39388773E-02 0.20003682E+03</pdfrwt>
<totfact> 0.35126233E+03</totfact>
</mgrwt>
</event>
<event>
12    1  0.5759937E-002  0.2048554E+03  0.7546771E-02  0.1145706E+00
          2   -1    0    0  503    0  0.00000000000E+00  0.00000000000E+00  0.13812580588E+04  0.13812580588E+04  0.00000000000E+00 0. -1.
         -2   -1    0    0    0  501 -0.00000000000E+00 -0.00000000000E+00 -0.76723209479E+02  0.76723209479E+02  0.00000000000E+00 0.  1.
          6    2    1    2  503    0 -0.87350451618E+01  0.10787429989E+03  0.84187435822E+02  0.22035617631E+03  0.17249972318E+03 0.  0.
         24    2    3    3    0    0 -0.71357572608E+02  0.62385697182E+02  0.62954060309E+02  0.13995878732E+03  0.81494601407E+02 0.  0.
         -6    2    1    2    0  501  0.87350451618E+01 -0.10787429989E+03  0.12203474135E+04  0.12376250919E+04  0.17537073028E+03 0.  0.
        -24    2    5    5    0    0 -0.17540081757E+02 -0.12722821509E+03  0.11453362131E+04  0.11556877591E+04  0.85583189763E+02 0.  0.
          2    1    4    4  502    0 -0.73885141577E+02  0.78851659979E+02  0.57655788073E+02  0.12247770542E+03  0.00000000000E+00 0. -1.
         -1    1    4    4    0  502  0.25275689688E+01 -0.16465962798E+02  0.52982722353E+01  0.17481081901E+02  0.00000000000E+00 0.  1.
          5    1    3    3  503    0  0.62622527447E+02  0.45488602712E+02  0.21233375513E+02  0.80397388988E+02  0.47000000000E+01 0. -1.
         11    1    6    6    0    0 -0.23664929506E+01  0.12621561492E+02  0.67493761753E+02  0.68704526626E+02  0.00000000000E+00 0. -1.
        -12    1    6    6    0    0 -0.15173588807E+02 -0.13984977659E+03  0.10778424513E+04  0.10869832325E+04  0.00000000000E+00 0.  1.
         -5    1    5    5    0  501  0.26275126919E+02  0.19353915200E+02  0.75011200426E+02  0.81937332868E+02  0.47000000000E+01 0.  1.
<mgrwt>
<rscale>  2 0.20485536E+03</rscale>
<asrwt>0</asrwt>
<pdfrwt beam="1">  1        2 0.21250122E+00 0.20485536E+03</pdfrwt>
<pdfrwt beam="2">  1       -2 0.11803572E-01 0.20485536E+03</pdfrwt>
<totfact> 0.81079437E+02</totfact>
</mgrwt>
</event>
<event>
12    1  0.5759937E-002  0.1769158E+03  0.7546771E-02  0.1170822E+00
          2   -1    0    0  503    0  0.00000000000E+00  0.00000000000E+00  0.37686929234E+03  0.37686929234E+03  0.00000000000E+00 0.  1.
         -2   -1    0    0    0  501 -0.00000000000E+00 -0.00000000000E+00 -0.83514791031E+02  0.83514791031E+02  0.00000000000E+00 0. -1.
          6    2    1    2  503    0 -0.38480229699E+01  0.12583185612E+02  0.13000907978E+03  0.22001661027E+03  0.17700792108E+03 0.  0.
         24    2    3    3    0    0  0.12950708148E+02 -0.59017734254E+01 -0.54184205571E+01  0.82224778411E+02  0.80802247074E+02 0.  0.
         -6    2    1    2    0  501  0.38480229699E+01 -0.12583185612E+02  0.16334542153E+03  0.24036747310E+03  0.17584553322E+03 0.  0.
        -24    2    5    5    0    0  0.19101098413E+02 -0.55112640759E+02  0.56164297190E+02  0.12395744656E+03  0.93855021962E+02 0.  0.
          2    1    4    4  502    0  0.22922464381E+02 -0.39835206975E+02 -0.84383761545E+01  0.46727821265E+02  0.00000000000E+00 0. -1.
         -1    1    4    4    0  502 -0.99717562330E+01  0.33933433549E+02  0.30199555975E+01  0.35496957146E+02  0.00000000000E+00 0.  1.
          5    1    3    3  503    0 -0.16798731118E+02  0.18484959037E+02  0.13542750034E+03  0.13779183186E+03  0.47000000000E+01 0. -1.
         11    1    6    6    0    0 -0.29182515030E+02 -0.54352760862E+02  0.37446817524E+02  0.72167208200E+02  0.00000000000E+00 0. -1.
        -12    1    6    6    0    0  0.48283613443E+02 -0.75987989730E+00  0.18717479666E+02  0.51790238362E+02  0.00000000000E+00 0.  1.
         -5    1    5    5    0  501 -0.15253075443E+02  0.42529455147E+02  0.10718112434E+03  0.11641002654E+03  0.47000000000E+01 0.  1.
<mgrwt>
<rscale>  2 0.17691580E+03</rscale>
<asrwt>0</asrwt>
<pdfrwt beam="1">  1        2 0.57979890E-01 0.17691580E+03</pdfrwt>
<pdfrwt beam="2">  1       -2 0.12848430E-01 0.17691580E+03</pdfrwt>
<totfact> 0.36876819E+03</totfact>
</mgrwt>
</event>
<event>
12    1  0.5759937E-002  0.2070830E+03  0.7546771E-02  0.1143897E+00
          2   -1    0    0  503    0  0.00000000000E+00  0.00000000000E+00  0.91044230129E+03  0.91044230129E+03  0.00000000000E+00 0. -1.
         -2   -1    0    0    0  501 -0.00000000000E+00 -0.00000000000E+00 -0.62805147626E+02  0.62805147626E+02  0.00000000000E+00 0.  1.
          6    2    1    2  503    0  0.69835862311E+02  0.91710073080E+02  0.18058317404E+03  0.27480684078E+03  0.17210674542E+03 0.  0.
         24    2    3    3    0    0 -0.30392614861E+02  0.36703022286E+02  0.62243544644E+02  0.11019250009E+03  0.77442271032E+02 0.  0.
         -6    2    1    2    0  501 -0.69835862311E+02 -0.91710073080E+02  0.66705397962E+03  0.69844060814E+03  0.17196071122E+03 0.  0.
        -24    2    5    5    0    0 -0.52015918629E+01 -0.77639778077E+02  0.22667091627E+03  0.25309254808E+03  0.81370399477E+02 0.  0.
          4    1    4    4  502    0 -0.54591327665E+02  0.11675758720E+02  0.42571158207E+02  0.70205697126E+02  0.00000000000E+00 0. -1.
         -3    1    4    4    0  502  0.24198712803E+02  0.25027263565E+02  0.19672386437E+02  0.39986802961E+02  0.00000000000E+00 0.  1.
          5    1    3    3  503    0  0.10022847717E+03  0.55007050795E+02  0.11833962940E+03  0.16461434069E+03  0.47000000000E+01 0. -1.
         11    1    6    6    0    0 -0.35687188617E+02 -0.15185208946E+02  0.50248606399E+02  0.63475101001E+02  0.00000000000E+00 0. -1.
        -12    1    6    6    0    0  0.30485596754E+02 -0.62454569132E+02  0.17642230987E+03  0.18961744708E+03  0.00000000000E+00 0.  1.
         -5    1    5    5    0  501 -0.64634270448E+02 -0.14070295003E+02  0.44038306335E+03  0.44534806006E+03  0.47000000000E+01 0.  1.
<mgrwt>
<rscale>  2 0.20708304E+03</rscale>
<asrwt>0</asrwt>
<pdfrwt beam="1">  1        2 0.14006804E+00 0.20708304E+03</pdfrwt>
<pdfrwt beam="2">  1       -2 0.96623311E-02 0.20708304E+03</pdfrwt>
<totfact> 0.20889592E+03</totfact>
</mgrwt>
</event>
<event>
12    1  0.5759937E-002  0.2065500E+03  0.7546771E-02  0.1144328E+00
         -3   -1    0    0    0  501 -0.00000000000E+00  0.00000000000E+00  0.61100116566E+02  0.61100116566E+02  0.00000000000E+00 0. -1.
          3   -1    0    0  503    0  0.00000000000E+00 -0.00000000000E+00 -0.13059375723E+04  0.13059375723E+04  0.00000000000E+00 0.  1.
          6    2    1    2  503    0 -0.30362396748E+01  0.11342833649E+03 -0.15519043337E+03  0.25787467291E+03  0.17187224921E+03 0.  0.
         24    2    3    3    0    0 -0.48378200421E+02  0.45438779491E+02 -0.13955777087E+03  0.17453834588E+03  0.81130326112E+02 0.  0.
         -6    2    1    2    0  501  0.30362396748E+01 -0.11342833649E+03 -0.10896470224E+04  0.11091630160E+04  0.17331115472E+03 0.  0.
        -24    2    5    5    0    0  0.62231259935E+02 -0.48201421556E+02 -0.47887205433E+03  0.49205139524E+03  0.81240534089E+02 0.  0.
          2    1    4    4  502    0 -0.57316541837E+02  0.56134696097E+02 -0.13911727028E+03  0.16059235649E+03  0.00000000000E+00 0. -1.
         -1    1    4    4    0  502  0.89383414155E+01 -0.10695916606E+02 -0.44050059349E+00  0.13945989390E+02  0.00000000000E+00 0.  1.
          5    1    3    3  503    0  0.45341960746E+02  0.67989556998E+02 -0.15632662494E+02  0.83336327024E+02  0.47000000000E+01 0. -1.
         11    1    6    6    0    0 -0.68317258239E+01 -0.22935181656E+02 -0.36749590027E+02  0.43854616661E+02  0.00000000000E+00 0. -1.
        -12    1    6    6    0    0  0.69062985759E+02 -0.25266239900E+02 -0.44212246431E+03  0.44819677858E+03  0.00000000000E+00 0.  1.
         -5    1    5    5    0  501 -0.59195020260E+02 -0.65226914933E+02 -0.61077496808E+03  0.61711162077E+03  0.47000000000E+01 0.  1.
<mgrwt>
<rscale>  2 0.20654999E+03</rscale>
<asrwt>0</asrwt>
<pdfrwt beam="2">  1        3 0.20091347E+00 0.20654999E+03</pdfrwt>
<pdfrwt beam="1">  1       -3 0.94000180E-02 0.20654999E+03</pdfrwt>
<totfact> 0.31829864E+01</totfact>
</mgrwt>
</event>
<event>
12    1  0.5759937E-002  0.1688836E+03  0.7546771E-02  0.1179017E+00
          2   -1    0    0  503    0  0.00000000000E+00  0.00000000000E+00  0.10395238158E+04  0.10395238158E+04  0.00000000000E+00 0. -1.
         -2   -1    0    0    0  501 -0.00000000000E+00 -0.00000000000E+00 -0.36461535801E+02  0.36461535801E+02  0.00000000000E+00 0.  1.
          6    2    1    2  503    0  0.15647730679E+01  0.35472408469E+01  0.24278340834E+03  0.29799418631E+03  0.17274756229E+03 0.  0.
         24    2    3    3    0    0 -0.23676484080E+02 -0.62311574992E+02  0.14792074641E+03  0.17969152651E+03  0.77234637352E+02 0.  0.
         -6    2    1    2    0  501 -0.15647730679E+01 -0.35472408469E+01  0.76027887164E+03  0.77799116527E+03  0.16501896602E+03 0.  0.
        -24    2    5    5    0    0  0.17095956707E+02  0.52755323248E+01  0.18017660594E+03  0.19750275640E+03  0.78889964387E+02 0.  0.
          2    1    4    4  502    0 -0.22103243653E+02  0.10141996450E+02  0.65884435116E+02  0.70229425902E+02  0.00000000000E+00 0. -1.
         -1    1    4    4    0  502 -0.15732404266E+01 -0.72453571442E+02  0.82036311290E+02  0.10946210061E+03  0.00000000000E+00 0.  1.
          5    1    3    3  503    0  0.25241257148E+02  0.65858815839E+02  0.94862661937E+02  0.11830265980E+03  0.47000000000E+01 0. -1.
         11    1    6    6    0    0  0.41295445619E+02  0.44634374073E+01  0.16196261454E+03  0.16720384150E+03  0.00000000000E+00 0. -1.
        -12    1    6    6    0    0 -0.24199488912E+02  0.81209491757E+00  0.18213991401E+02  0.30298914907E+02  0.00000000000E+00 0.  1.
         -5    1    5    5    0  501 -0.18660729775E+02 -0.88227731717E+01  0.58010226570E+03  0.58048840887E+03  0.47000000000E+01 0.  1.
<mgrwt>
<rscale>  2 0.16888360E+03</rscale>
<asrwt>0</asrwt>
<pdfrwt beam="1">  1        2 0.15992672E+00 0.16888360E+03</pdfrwt>
<pdfrwt beam="2">  1       -2 0.56094678E-02 0.16888360E+03</pdfrwt>
<totfact> 0.40241896E+03</totfact>
</mgrwt>
</event>
<event>
12    1  0.5759937E-002  0.2133188E+03  0.7546771E-02  0.1138964E+00
          1   -1    0    0  503    0  0.00000000000E+00  0.00000000000E+00  0.17502552456E+04  0.17502552456E+04  0.00000000000E+00 0.  1.
         -1   -1    0    0    0  501 -0.00000000000E+00 -0.00000000000E+00 -0.28185550039E+02  0.28185550039E+02  0.00000000000E+00 0. -1.
          6    2    1    2  503    0  0.17350189082E+02 -0.12065267437E+03  0.61016917851E+03  0.64609883185E+03  0.17400912969E+03 0.  0.
         24    2    3    3    0    0  0.41342393362E+01 -0.13178653060E+03  0.31907157209E+03  0.35445087532E+03  0.80274362750E+02 0.  0.
         -6    2    1    2    0  501 -0.17350189082E+02  0.12065267437E+03  0.11119005170E+04  0.11323419637E+04  0.17611776246E+03 0.  0.
        -24    2    5    5    0    0 -0.25116476224E+02  0.52016562047E+02  0.96356478733E+03  0.96864465214E+03  0.80491009572E+02 0.  0.
          2    1    4    4  502    0 -0.88525719356E+01 -0.12892563385E+03  0.22521937034E+03  0.25966122520E+03  0.00000000000E+00 0. -1.
         -1    1    4    4    0  502  0.12986811272E+02 -0.28608967525E+01  0.93852201747E+02  0.94789650120E+02  0.00000000000E+00 0.  1.
          5    1    3    3  503    0  0.13215949746E+02  0.11133856236E+02  0.29109760642E+03  0.29164795653E+03  0.47000000000E+01 0. -1.
         11    1    6    6    0    0 -0.39181763748E+02  0.28015401803E+02  0.25352236882E+03  0.25805748360E+03  0.00000000000E+00 0. -1.
        -12    1    6    6    0    0  0.14065287524E+02  0.24001160244E+02  0.71004241851E+03  0.71058716854E+03  0.00000000000E+00 0.  1.
         -5    1    5    5    0  501  0.77662871414E+01  0.68636112322E+02  0.14833572967E+03  0.16369731160E+03  0.47000000000E+01 0.  1.
<mgrwt>
<rscale>  2 0.21331883E+03</rscale>
<asrwt>0</asrwt>
<pdfrwt beam="1">  1        1 0.26926995E+00 0.21331883E+03</pdfrwt>
<pdfrwt beam="2">  1       -1 0.43362398E-02 0.21331883E+03</pdfrwt>
<totfact> 0.10732749E+03</totfact>
</mgrwt>
</event>
<event>
12    1  0.5759937E-002  0.1843640E+03  0.7546771E-02  0.1163645E+00
          1   -1    0    0  503    0  0.00000000000E+00  0.00000000000E+00  0.71738331638E+03  0.71738331638E+03  0.00000000000E+00 0.  1.
         -1   -1    0    0    0  501 -0.00000000000E+00 -0.00000000000E+00 -0.77537600945E+02  0.77537600945E+02  0.00000000000E+00 0. -1.
          6    2    1    2  503    0 -0.62090267439E+02 -0.88587518571E+01  0.71720431615E+02  0.19753409747E+03  0.17303820548E+03 0.  0.
         24    2    3    3    0    0  0.24963205410E+02 -0.37432660138E+02  0.51724471050E+02  0.10363679288E+03  0.77722572422E+02 0.  0.
         -6    2    1    2    0  501  0.62090267439E+02  0.88587518571E+01  0.56812528382E+03  0.59738681986E+03  0.17369800123E+03 0.  0.
        -24    2    5    5    0    0  0.48280023834E+02  0.32650624240E+02  0.15927674192E+03  0.18758687326E+03  0.80141939940E+02 0.  0.
          2    1    4    4  502    0  0.68433824795E+01 -0.58334103322E+02  0.47740414694E+02  0.75689145122E+02  0.00000000000E+00 0. -1.
         -1    1    4    4    0  502  0.18119822931E+02  0.20901443184E+02  0.39840563555E+01  0.27947647759E+02  0.00000000000E+00 0.  1.
          5    1    3    3  503    0 -0.87053472849E+02  0.28573908281E+02  0.19995960566E+02  0.93897304586E+02  0.47000000000E+01 0. -1.
         11    1    6    6    0    0  0.59143268466E+01  0.44124887228E+02  0.12244971883E+03  0.13029166733E+03  0.00000000000E+00 0. -1.
        -12    1    6    6    0    0  0.42365696987E+02 -0.11474262987E+02  0.36827023090E+02  0.57295205925E+02  0.00000000000E+00 0.  1.
         -5    1    5    5    0  501  0.13810243605E+02 -0.23791872383E+02  0.40884854190E+03  0.40979994660E+03  0.47000000000E+01 0.  1.
<mgrwt>
<rscale>  2 0.18436403E+03</rscale>
<asrwt>0</asrwt>
<pdfrwt beam="1">  1        1 0.11036666E+00 0.18436403E+03</pdfrwt>
<pdfrwt beam="2">  1       -1 0.11928862E-01 0.18436403E+03</pdfrwt>
<totfact> 0.12558663E+03</totfact>
</mgrwt>
</event>
<event>
12    1  0.5759937E-002  0.1880846E+03  0.7546771E-02  0.1160200E+00
         -4   -1    0    0    0  501 -0.00000000000E+00  0.00000000000E+00  0.25145499793E+03  0.25145499793E+03  0.00000000000E+00 0.  1.
          4   -1    0    0  503    0  0.00000000000E+00 -0.00000000000E+00 -0.14844024559E+03  0.14844024559E+03  0.00000000000E+00 0. -1.
          6    2    1    2  503    0 -0.61699991272E+02  0.41420750796E+02  0.97061940605E+02  0.21115590792E+03  0.17217209303E+03 0.  0.
         24    2    3    3    0    0 -0.77008908176E+02  0.80176305585E+02  0.48502331313E+02  0.14699609481E+03  0.83046756901E+02 0.  0.
         -6    2    1    2    0  501  0.61699991272E+02 -0.41420750796E+02  0.59528117296E+01  0.18873933560E+03  0.17339127231E+03 0.  0.
        -24    2    5    5    0    0  0.85516476096E+02 -0.67131238088E+02  0.35365798797E+02  0.14274511950E+03  0.85473730498E+02 0.  0.
          4    1    4    4  502    0 -0.33633488226E+02  0.52818319010E+01 -0.17379976781E+02  0.38225290991E+02  0.00000000000E+00 0. -1.
         -3    1    4    4    0  502 -0.43375419950E+02  0.74894473684E+02  0.65882308093E+02  0.10877080382E+03  0.00000000000E+00 0.  1.
          5    1    3    3  503    0  0.15308916903E+02 -0.38755554789E+02  0.48559609293E+02  0.64159813111E+02  0.47000000000E+01 0. -1.
         11    1    6    6    0    0 -0.15565375981E+02 -0.65361830391E+01 -0.58897171644E+01  0.17879915728E+02  0.00000000000E+00 0. -1.
        -12    1    6    6    0    0  0.10108185208E+03 -0.60595055049E+02  0.41255515962E+02  0.12486520377E+03  0.00000000000E+00 0.  1.
         -5    1    5    5    0  501 -0.23816484824E+02  0.25710487292E+02 -0.29412987068E+02  0.45994216097E+02  0.47000000000E+01 0.  1.
<mgrwt>
<rscale>  2 0.18808461E+03</rscale>
<asrwt>0</asrwt>
<pdfrwt beam="2">  1        4 0.22836961E-01 0.18808461E+03</pdfrwt>
<pdfrwt beam="1">  1       -4 0.38685384E-01 0.18808461E+03</pdfrwt>
<totfact> 0.20271256E+02</totfact>
</mgrwt>
</event>
<event>
12    1  0.5759937E-002  0.1913100E+03  0.7546771E-02  0.1157285E+00
         -2   -1    0    0    0  501 -0.00000000000E+00  0.00000000000E+00  0.35175144195E+02  0.35175144195E+02  0.00000000000E+00 0.  1.
          2   -1    0    0  503    0  0.00000000000E+00 -0.00000000000E+00 -0.14705448117E+04  0.14705448117E+04  0.00000000000E+00 0. -1.
          6    2    1    2  503    0 -0.40416856378E+02 -0.70436178443E+02 -0.11256523604E+04  0.11418465876E+04  0.17356732300E+03 0.  0.
         24    2    3    3    0    0 -0.30244415038E+02 -0.10697619167E+03 -0.63059935508E+03  0.64532043601E+03  0.80151658010E+02 0.  0.
         -6    2    1    2    0  501  0.40416856378E+02  0.70436178443E+02 -0.30971730714E+03  0.36387336833E+03  0.17287058838E+03 0.  0.
        -24    2    5    5    0    0  0.13841376058E+02 -0.46337073383E+01 -0.25618618034E+03  0.26780352165E+03  0.76644062240E+02 0.  0.
          2    1    4    4  502    0  0.92382072576E+01 -0.85921610531E+02 -0.49618186104E+03  0.50365097722E+03  0.00000000000E+00 0. -1.
         -1    1    4    4    0  502 -0.39482622296E+02 -0.21054581140E+02 -0.13441749404E+03  0.14166945879E+03  0.00000000000E+00 0.  1.
          5    1    3    3  503    0 -0.10172441340E+02  0.36540013228E+02 -0.49505300530E+03  0.49652615156E+03  0.47000000000E+01 0. -1.
         11    1    6    6    0    0 -0.16658590942E+01 -0.23600182020E+02 -0.21897145748E+02  0.32237069808E+02  0.00000000000E+00 0. -1.
        -12    1    6    6    0    0  0.15507235152E+02  0.18966474681E+02 -0.23428903459E+03  0.23556645184E+03  0.00000000000E+00 0.  1.
         -5    1    5    5    0  501  0.26575480320E+02  0.75069885781E+02 -0.53531126799E+02  0.96069846684E+02  0.47000000000E+01 0.  1.
<mgrwt>
<rscale>  2 0.19130997E+03</rscale>
<asrwt>0</asrwt>
<pdfrwt beam="2">  1        2 0.22623767E+00 0.19130997E+03</pdfrwt>
<pdfrwt beam="1">  1       -2 0.54115606E-02 0.19130997E+03</pdfrwt>
<totfact> 0.24543558E+03</totfact>
</mgrwt>
</event>
<event>
12    1  0.5759937E-002  0.2095765E+03  0.7546771E-02  0.1141902E+00
         -2   -1    0    0    0  501 -0.00000000000E+00  0.00000000000E+00  0.35772196003E+03  0.35772196003E+03  0.00000000000E+00 0.  1.
          2   -1    0    0  503    0  0.00000000000E+00 -0.00000000000E+00 -0.13500432854E+03  0.13500432854E+03  0.00000000000E+00 0. -1.
          6    2    1    2  503    0 -0.23312546687E+02 -0.11622965174E+03  0.18467664575E+03  0.27812849882E+03  0.17087185724E+03 0.  0.
         24    2    3    3    0    0  0.94511965600E+01 -0.27064168678E+01  0.88817609846E+02  0.12590487224E+03  0.88695091329E+02 0.  0.
         -6    2    1    2    0  501  0.23312546687E+02  0.11622965174E+03  0.38040985736E+02  0.21459778975E+03  0.17479212795E+03 0.  0.
        -24    2    5    5    0    0  0.52824805795E+02  0.23611285401E+02 -0.21247837608E+02  0.10063994757E+03  0.79554858674E+02 0.  0.
          2    1    4    4  502    0  0.16816980913E+02 -0.44056902234E+02  0.44320776350E+02  0.64715938514E+02  0.00000000000E+00 0. -1.
         -1    1    4    4    0  502 -0.73657843530E+01  0.41350485366E+02  0.44496833496E+02  0.61188933724E+02  0.00000000000E+00 0.  1.
          5    1    3    3  503    0 -0.32763743247E+02 -0.11352323487E+03  0.95859035899E+02  0.15222362658E+03  0.47000000000E+01 0. -1.
         11    1    6    6    0    0  0.34640747728E+02 -0.19421456407E+02 -0.33927679898E+02  0.52232765917E+02  0.00000000000E+00 0. -1.
        -12    1    6    6    0    0  0.18184058068E+02  0.43032741807E+02  0.12679842290E+02  0.48407181655E+02  0.00000000000E+00 0.  1.
         -5    1    5    5    0  501 -0.29512259108E+02  0.92618366335E+02  0.59288823345E+02  0.11395784218E+03  0.47000000000E+01 0.  1.
<mgrwt>
<rscale>  2 0.20957653E+03</rscale>
<asrwt>0</asrwt>
<pdfrwt beam="2">  1        2 0.20769897E-01 0.20957653E+03</pdfrwt>
<pdfrwt beam="1">  1       -2 0.55034148E-01 0.20957653E+03</pdfrwt>
<totfact> 0.83709755E+02</totfact>
</mgrwt>
</event>
<event>
12    1  0.5759937E-002  0.3444002E+03  0.7546771E-02  0.1064937E+00
          3   -1    0    0  503    0  0.00000000000E+00  0.00000000000E+00  0.86797901537E+03  0.86797901537E+03  0.00000000000E+00 0. -1.
         -3   -1    0    0    0  501 -0.00000000000E+00 -0.00000000000E+00 -0.13702454885E+03  0.13702454885E+03  0.00000000000E+00 0.  1.
          6    2    1    2  503    0 -0.27715155235E+03  0.10956586905E+03  0.33946283523E+03  0.48369052207E+03  0.17292727375E+03 0.  0.
         24    2    3    3    0    0 -0.12241044223E+03  0.54287395549E+01  0.89563342083E+02  0.17182324328E+03  0.80547173189E+02 0.  0.
         -6    2    1    2    0  501  0.27715155235E+03 -0.10956586905E+03  0.39149163130E+03  0.52131304215E+03  0.17229024322E+03 0.  0.
        -24    2    5    5    0    0  0.44984280512E+02 -0.43798017531E+02  0.10016543934E+03  0.14300087934E+03  0.80462938188E+02 0.  0.
          2    1    4    4  502    0 -0.10429366984E+03  0.10441416631E+01  0.10471998219E+03  0.14779896641E+03  0.00000000000E+00 0. -1.
         -1    1    4    4    0  502 -0.18116772382E+02  0.43845978919E+01 -0.15156640106E+02  0.24024276878E+02  0.00000000000E+00 0.  1.
          5    1    3    3  503    0 -0.15474111012E+03  0.10413712950E+03  0.24989949315E+03  0.31186727879E+03  0.47000000000E+01 0. -1.
         13    1    6    6    0    0  0.45412810997E+02 -0.65682813956E+02  0.73802866798E+02  0.10873554432E+03  0.00000000000E+00 0. -1.
        -14    1    6    6    0    0 -0.42853048528E+00  0.21884796425E+02  0.26362572538E+02  0.34265335016E+02  0.00000000000E+00 0.  1.
         -5    1    5    5    0  501  0.23216727184E+03 -0.65767851523E+02  0.29132619196E+03  0.37831216281E+03  0.47000000000E+01 0.  1.
<mgrwt>
<rscale>  2 0.34440020E+03</rscale>
<asrwt>0</asrwt>
<pdfrwt beam="1">  1        3 0.13353523E+00 0.34440020E+03</pdfrwt>
<pdfrwt beam="2">  1       -3 0.21080700E-01 0.34440020E+03</pdfrwt>
<totfact> 0.23483536E+01</totfact>
</mgrwt>
</event>
<event>
12    1  0.5759937E-002  0.1722502E+03  0.7546771E-02  0.1175521E+00
         -2   -1    0    0    0  501 -0.00000000000E+00  0.00000000000E+00  0.50246081631E+02  0.50246081631E+02  0.00000000000E+00 0. -1.
          2   -1    0    0  503    0  0.00000000000E+00 -0.00000000000E+00 -0.70292826132E+03  0.70292826132E+03  0.00000000000E+00 0.  1.
          6    2    1    2  503    0 -0.97411914462E+01 -0.20334215336E+02 -0.48033714538E+03  0.51103029717E+03  0.17297346696E+03 0.  0.
         24    2    3    3    0    0 -0.40534764905E+02 -0.19590964053E+02 -0.46853567995E+03  0.47771121593E+03  0.81580937697E+02 0.  0.
         -6    2    1    2    0  501  0.97411914462E+01  0.20334215336E+02 -0.17234503431E+03  0.24214404578E+03  0.16858990756E+03 0.  0.
        -24    2    5    5    0    0 -0.34561927860E+02 -0.29579558660E+02 -0.61332128574E+02  0.11252882115E+03  0.82653665661E+02 0.  0.
          2    1    4    4  502    0 -0.60544367493E+02 -0.27460813251E+02 -0.27216661374E+03  0.28016848919E+03  0.00000000000E+00 0. -1.
         -1    1    4    4    0  502  0.20009602588E+02  0.78698491980E+01 -0.19636906621E+03  0.19754272673E+03  0.00000000000E+00 0.  1.
          5    1    3    3  503    0  0.30793573459E+02 -0.74325128293E+00 -0.11801465429E+02  0.33319081246E+02  0.47000000000E+01 0. -1.
         11    1    6    6    0    0 -0.53688610231E+02 -0.27787739402E+00 -0.17557108952E+02  0.56487132687E+02  0.00000000000E+00 0. -1.
        -12    1    6    6    0    0  0.19126682371E+02 -0.29301681266E+02 -0.43775019622E+02  0.56041688468E+02  0.00000000000E+00 0.  1.
         -5    1    5    5    0  501  0.44303119307E+02  0.49913773996E+02 -0.11101290574E+03  0.12961522463E+03  0.47000000000E+01 0.  1.
<mgrwt>
<rscale>  2 0.17225016E+03</rscale>
<asrwt>0</asrwt>
<pdfrwt beam="2">  1        2 0.10814281E+00 0.17225016E+03</pdfrwt>
<pdfrwt beam="1">  1       -2 0.77301662E-02 0.17225016E+03</pdfrwt>
<totfact> 0.40892312E+03</totfact>
</mgrwt>
</event>
<event>
12    1  0.5759937E-002  0.2848007E+03  0.7546771E-02  0.1093095E+00
          2   -1    0    0  503    0  0.00000000000E+00  0.00000000000E+00  0.18611968022E+04  0.18611968022E+04  0.00000000000E+00 0. -1.
         -2   -1    0    0    0  501 -0.00000000000E+00 -0.00000000000E+00 -0.43643151026E+02  0.43643151026E+02  0.00000000000E+00 0.  1.
          6    2    1    2  503    0  0.16530701399E+03 -0.15280038101E+03  0.94303029723E+03  0.98493060654E+03  0.17351597302E+03 0.  0.
         24    2    3    3    0    0  0.19015841072E+02 -0.72423335875E+02  0.27032675322E+03  0.29181176768E+03  0.80441360373E+02 0.  0.
         -6    2    1    2    0  501 -0.16530701399E+03  0.15280038101E+03  0.87452335394E+03  0.91990934668E+03  0.17540736648E+03 0.  0.
        -24    2    5    5    0    0 -0.17838646957E+03  0.11991784979E+03  0.58609311896E+03  0.62927826874E+03  0.79271509317E+02 0.  0.
          2    1    4    4  502    0  0.79045009072E+01  0.14887550280E+02  0.84892077274E+02  0.86549321614E+02  0.00000000000E+00 0. -1.
         -1    1    4    4    0  502  0.11111340164E+02 -0.87310886155E+02  0.18543467594E+03  0.20526244606E+03  0.00000000000E+00 0.  1.
          5    1    3    3  503    0  0.14629117292E+03 -0.80377045134E+02  0.67270354401E+03  0.69311883886E+03  0.47000000000E+01 0. -1.
         13    1    6    6    0    0 -0.46670240184E+02 -0.55802798058E+01  0.11094789402E+03  0.12049351032E+03  0.00000000000E+00 0. -1.
        -14    1    6    6    0    0 -0.13171622938E+03  0.12549812960E+03  0.47514522495E+03  0.50878475842E+03  0.00000000000E+00 0.  1.
         -5    1    5    5    0  501  0.13079455576E+02  0.32882531218E+02  0.28843023498E+03  0.29063107794E+03  0.47000000000E+01 0.  1.
<mgrwt>
<rscale>  2 0.28480074E+03</rscale>
<asrwt>0</asrwt>
<pdfrwt beam="1">  1        2 0.28633791E+00 0.28480074E+03</pdfrwt>
<pdfrwt beam="2">  1       -2 0.67143324E-02 0.28480074E+03</pdfrwt>
<totfact> 0.10917302E+03</totfact>
</mgrwt>
</event>
<event>
12    1  0.5759937E-002  0.3965437E+03  0.7546771E-02  0.1044983E+00
          1   -1    0    0  503    0  0.00000000000E+00  0.00000000000E+00  0.46638680933E+04  0.46638680933E+04  0.00000000000E+00 0. -1.
         -1   -1    0    0    0  501 -0.00000000000E+00 -0.00000000000E+00 -0.89842921595E+02  0.89842921595E+02  0.00000000000E+00 0.  1.
          6    2    1    2  503    0 -0.22086210673E+03 -0.28101327684E+03  0.40952347504E+03  0.57042329522E+03  0.17298765033E+03 0.  0.
         24    2    3    3    0    0 -0.20381090869E+03 -0.17009180428E+03  0.23710398130E+03  0.36464455906E+03  0.79229086356E+02 0.  0.
         -6    2    1    2    0  501  0.22086210673E+03  0.28101327684E+03  0.41645016966E+04  0.41832877196E+04  0.17050874508E+03 0.  0.
        -24    2    5    5    0    0  0.16507840217E+03  0.27747120260E+03  0.37807571459E+04  0.37954651594E+04  0.84794063211E+02 0.  0.
          2    1    4    4  502    0 -0.15124787130E+03 -0.88426541907E+02  0.11926453674E+03  0.21194150516E+03  0.00000000000E+00 0. -1.
         -1    1    4    4    0  502 -0.52563037388E+02 -0.81665262371E+02  0.11783944455E+03  0.15270305390E+03  0.00000000000E+00 0.  1.
          5    1    3    3  503    0 -0.17051198037E+02 -0.11092147256E+03  0.17241949374E+03  0.20577873615E+03  0.47000000000E+01 0. -1.
         13    1    6    6    0    0  0.13308585792E+03  0.14698630456E+03  0.20947736622E+04  0.21041372377E+04  0.00000000000E+00 0. -1.
        -14    1    6    6    0    0  0.31992544244E+02  0.13048489804E+03  0.16859834837E+04  0.16913279217E+04  0.00000000000E+00 0.  1.
         -5    1    5    5    0  501  0.55783704560E+02  0.35420742376E+01  0.38374455072E+03  0.38782256019E+03  0.47000000000E+01 0.  1.
<mgrwt>
<rscale>  2 0.39654374E+03</rscale>
<asrwt>0</asrwt>
<pdfrwt beam="1">  1        1 0.71751798E+00 0.39654374E+03</pdfrwt>
<pdfrwt beam="2">  1       -1 0.13821992E-01 0.39654374E+03</pdfrwt>
<totfact> 0.10325098E+00</totfact>
</mgrwt>
</event>
<event>
12    1  0.5759937E-002  0.1931525E+03  0.7546771E-02  0.1155648E+00
         -2   -1    0    0    0  501 -0.00000000000E+00  0.00000000000E+00  0.11983522463E+03  0.11983522463E+03  0.00000000000E+00 0. -1.
          2   -1    0    0  503    0  0.00000000000E+00 -0.00000000000E+00 -0.32187747071E+03  0.32187747071E+03  0.00000000000E+00 0.  1.
          6    2    1    2  503    0 -0.86313694687E+02  0.20532676590E+02 -0.61423815811E+02  0.20340071519E+03  0.17241612770E+03 0.  0.
         24    2    3    3    0    0  0.11053122827E+02 -0.98205718136E+01  0.76138359413E+01  0.80153385802E+02  0.78409053067E+02 0.  0.
         -6    2    1    2    0  501  0.86313694687E+02 -0.20532676590E+02 -0.14061843026E+03  0.23831198015E+03  0.17072613232E+03 0.  0.
        -24    2    5    5    0    0  0.52833872432E+02  0.30888659099E+02 -0.14685285109E+03  0.17645722879E+03  0.76327363260E+02 0.  0.
          4    1    4    4  502    0 -0.13026962525E+02 -0.22866499011E+02  0.33410228389E+02  0.42530246774E+02  0.00000000000E+00 0. -1.
         -3    1    4    4    0  502  0.24080085352E+02  0.13045927197E+02 -0.25796392448E+02  0.37623139028E+02  0.00000000000E+00 0.  1.
          5    1    3    3  503    0 -0.97366817514E+02  0.30353248404E+02 -0.69037651752E+02  0.12324732939E+03  0.47000000000E+01 0. -1.
         13    1    6    6    0    0  0.17251738072E+01  0.44483481196E+02 -0.75412145301E+02  0.87571387924E+02  0.00000000000E+00 0. -1.
        -14    1    6    6    0    0  0.51108698625E+02 -0.13594822097E+02 -0.71440705793E+02  0.88885840871E+02  0.00000000000E+00 0.  1.
         -5    1    5    5    0  501  0.33479822255E+02 -0.51421335690E+02  0.62344208337E+01  0.61854751357E+02  0.47000000000E+01 0.  1.
<mgrwt>
<rscale>  2 0.19315249E+03</rscale>
<asrwt>0</asrwt>
<pdfrwt beam="2">  1        2 0.49519611E-01 0.19315249E+03</pdfrwt>
<pdfrwt beam="1">  1       -2 0.18436188E-01 0.19315249E+03</pdfrwt>
<totfact> 0.24146694E+03</totfact>
</mgrwt>
</event>
<event>
12    1  0.5759937E-002  0.5405714E+03  0.7546771E-02  0.1003700E+00
          1   -1    0    0  503    0  0.00000000000E+00  0.00000000000E+00  0.42977833173E+04  0.42977833173E+04  0.00000000000E+00 0.  1.
         -1   -1    0    0    0  501 -0.00000000000E+00 -0.00000000000E+00 -0.95472939056E+02  0.95472939056E+02  0.00000000000E+00 0. -1.
          6    2    1    2  503    0  0.46152219677E+03  0.22151228939E+03  0.32802366408E+04  0.33245149198E+04  0.17428884078E+03 0.  0.
         24    2    3    3    0    0  0.93963095117E+02  0.23213267139E+02  0.76907242779E+03  0.77885390741E+03  0.75980858651E+02 0.  0.
         -6    2    1    2    0  501 -0.46152219677E+03 -0.22151228939E+03  0.92207373741E+03  0.10687413365E+04  0.17296714906E+03 0.  0.
        -24    2    5    5    0    0 -0.44454419942E+03 -0.24033224744E+03  0.84946526832E+03  0.99169250135E+03  0.80521057761E+02 0.  0.
          2    1    4    4  502    0  0.32316213871E+02 -0.27387949458E+02  0.22295631326E+03  0.22694482827E+03  0.00000000000E+00 0. -1.
         -1    1    4    4    0  502  0.61646881246E+02  0.50601216597E+02  0.54611611453E+03  0.55190907914E+03  0.00000000000E+00 0.  1.
          5    1    3    3  503    0  0.36755910165E+03  0.19829902225E+03  0.25111642130E+04  0.25456610124E+04  0.47000000000E+01 0. -1.
         11    1    6    6    0    0 -0.21186182517E+03 -0.13379708217E+03  0.49112085583E+03  0.55134996798E+03  0.00000000000E+00 0. -1.
        -12    1    6    6    0    0 -0.23268237425E+03 -0.10653516527E+03  0.35834441249E+03  0.44034253337E+03  0.00000000000E+00 0.  1.
         -5    1    5    5    0  501 -0.16977997349E+02  0.18819958049E+02  0.72608469083E+02  0.77048835147E+02  0.47000000000E+01 0.  1.
<mgrwt>
<rscale>  2 0.54057142E+03</rscale>
<asrwt>0</asrwt>
<pdfrwt beam="1">  1        1 0.66119728E+00 0.54057142E+03</pdfrwt>
<pdfrwt beam="2">  1       -1 0.14688148E-01 0.54057142E+03</pdfrwt>
<totfact> 0.20421132E+00</totfact>
</mgrwt>
</event>
<event>
12    1  0.5759937E-002  0.1953379E+03  0.7546771E-02  0.1153733E+00
         -2   -1    0    0    0  501 -0.00000000000E+00  0.00000000000E+00  0.62148313257E+02  0.62148313257E+02  0.00000000000E+00 0. -1.
          2   -1    0    0  503    0  0.00000000000E+00 -0.00000000000E+00 -0.78552700486E+03  0.78552700486E+03  0.00000000000E+00 0.  1.
          6    2    1    2  503    0 -0.25938559024E+02  0.93505514034E+02 -0.16324007135E+03  0.25436799247E+03  0.16923257577E+03 0.  0.
         24    2    3    3    0    0 -0.19145424970E+01  0.11973010053E+03 -0.79529958509E+02  0.16329464127E+03  0.77467174479E+02 0.  0.
         -6    2    1    2    0  501  0.25938559024E+02 -0.93505514034E+02 -0.56013862025E+03  0.59330732565E+03  0.16982997016E+03 0.  0.
        -24    2    5    5    0    0  0.73501443239E+02 -0.72999492562E+02 -0.47952606582E+03  0.49737402171E+03  0.81879677566E+02 0.  0.
          2    1    4    4  502    0 -0.27306345257E+02  0.98849750894E+02 -0.35875000002E+02  0.10864587138E+03  0.00000000000E+00 0. -1.
         -1    1    4    4    0  502  0.25391802760E+02  0.20880349637E+02 -0.43654958507E+02  0.54648769892E+02  0.00000000000E+00 0.  1.
          5    1    3    3  503    0 -0.24024016527E+02 -0.26224586497E+02 -0.83710112838E+02  0.91073351198E+02  0.47000000000E+01 0. -1.
         11    1    6    6    0    0 -0.17605670893E+02 -0.16058174212E+02 -0.10970145663E+03  0.11225967305E+03  0.00000000000E+00 0. -1.
        -12    1    6    6    0    0  0.91107114132E+02 -0.56941318350E+02 -0.36982460919E+03  0.38511434866E+03  0.00000000000E+00 0.  1.
         -5    1    5    5    0  501 -0.47562884215E+02 -0.20506021472E+02 -0.80612554437E+02  0.95933303937E+02  0.47000000000E+01 0.  1.
<mgrwt>
<rscale>  2 0.19533791E+03</rscale>
<asrwt>0</asrwt>
<pdfrwt beam="2">  1        2 0.12085031E+00 0.19533791E+03</pdfrwt>
<pdfrwt beam="1">  1       -2 0.95612788E-02 0.19533791E+03</pdfrwt>
<totfact> 0.25683907E+03</totfact>
</mgrwt>
</event>
<event>
12    1  0.5759937E-002  0.3123299E+03  0.7546771E-02  0.1079234E+00
          2   -1    0    0  503    0  0.00000000000E+00  0.00000000000E+00  0.81668962164E+03  0.81668962164E+03  0.00000000000E+00 0. -1.
         -2   -1    0    0    0  501 -0.00000000000E+00 -0.00000000000E+00 -0.11954989925E+03  0.11954989925E+03  0.00000000000E+00 0.  1.
          6    2    1    2  503    0 -0.25375799378E+03 -0.55716517631E+02  0.36260430686E+03  0.47869515158E+03  0.17369431497E+03 0.  0.
         24    2    3    3    0    0 -0.79755826016E+02 -0.55409747368E+02  0.21936917061E+03  0.25327278634E+03  0.81197533224E+02 0.  0.
         -6    2    1    2    0  501  0.25375799378E+03  0.55716517631E+02  0.33453541553E+03  0.45754436931E+03  0.17301865767E+03 0.  0.
        -24    2    5    5    0    0  0.63412118526E+02  0.61613570275E+02  0.14932247124E+03  0.19185234424E+03  0.81809490612E+02 0.  0.
          4    1    4    4  502    0 -0.44971129510E+02 -0.47212370048E+02  0.20436291980E+03  0.21451250165E+03  0.00000000000E+00 0. -1.
         -3    1    4    4    0  502 -0.34784696507E+02 -0.81973773200E+01  0.15006250804E+02  0.38760284689E+02  0.00000000000E+00 0.  1.
          5    1    3    3  503    0 -0.17400216776E+03 -0.30677026214E+00  0.14323513625E+03  0.22542236524E+03  0.47000000000E+01 0. -1.
         13    1    6    6    0    0  0.47568535289E+01 -0.10252365842E+02  0.66629724747E+02  0.67581498065E+02  0.00000000000E+00 0. -1.
        -14    1    6    6    0    0  0.58655264997E+02  0.71865936118E+02  0.82692746497E+02  0.12427084618E+03  0.00000000000E+00 0.  1.
         -5    1    5    5    0  501  0.19034587525E+03 -0.58970526449E+01  0.18521294429E+03  0.26569202507E+03  0.47000000000E+01 0.  1.
<mgrwt>
<rscale>  2 0.31232990E+03</rscale>
<asrwt>0</asrwt>
<pdfrwt beam="1">  1        2 0.12564455E+00 0.31232990E+03</pdfrwt>
<pdfrwt beam="2">  1       -2 0.18392293E-01 0.31232990E+03</pdfrwt>
<totfact> 0.83970234E+02</totfact>
</mgrwt>
</event>
<event>
12    1  0.5759937E-002  0.3323301E+03  0.7546771E-02  0.1070111E+00
         -1   -1    0    0    0  501 -0.00000000000E+00  0.00000000000E+00  0.10151301947E+03  0.10151301947E+03  0.00000000000E+00 0.  1.
          1   -1    0    0  503    0  0.00000000000E+00 -0.00000000000E+00 -0.14900408670E+04  0.14900408670E+04  0.00000000000E+00 0. -1.
          6    2    1    2  503    0 -0.11399172407E+03 -0.25885949946E+03 -0.11079569031E+04  0.11567848488E+04  0.17487233577E+03 0.  0.
         24    2    3    3    0    0 -0.11044862129E+03 -0.27724884865E+03 -0.10755600061E+04  0.11190705190E+04  0.80147849512E+02 0.  0.
         -6    2    1    2    0  501  0.11399172407E+03  0.25885949946E+03 -0.28057094451E+03  0.43476903768E+03  0.17407385674E+03 0.  0.
        -24    2    5    5    0    0  0.41645841180E+02  0.11827581374E+03 -0.22036246198E+03  0.26552114011E+03  0.78856305962E+02 0.  0.
          4    1    4    4  502    0  0.19573444688E+01 -0.60256419278E+02 -0.29702922661E+03  0.30308584382E+03  0.00000000000E+00 0. -1.
         -3    1    4    4    0  502 -0.11240596576E+03 -0.21699242937E+03 -0.77853077945E+03  0.81598467516E+03  0.00000000000E+00 0.  1.
          5    1    3    3  503    0 -0.35431027827E+01  0.18389349187E+02 -0.32396896989E+02  0.37714329841E+02  0.47000000000E+01 0. -1.
         11    1    6    6    0    0 -0.96313180954E+01  0.14018216589E+02 -0.69755446678E+00  0.17022316729E+02  0.00000000000E+00 0. -1.
        -12    1    6    6    0    0  0.51277159276E+02  0.10425759715E+03 -0.21966490752E+03  0.24849882338E+03  0.00000000000E+00 0.  1.
         -5    1    5    5    0  501  0.72345882890E+02  0.14058368572E+03 -0.60208482527E+02  0.16924789757E+03  0.47000000000E+01 0.  1.
<mgrwt>
<rscale>  2 0.33233009E+03</rscale>
<asrwt>0</asrwt>
<pdfrwt beam="2">  1        1 0.22923705E+00 0.33233009E+03</pdfrwt>
<pdfrwt beam="1">  1       -1 0.15617388E-01 0.33233009E+03</pdfrwt>
<totfact> 0.21784148E+02</totfact>
</mgrwt>
</event>
<event>
12    1  0.5759937E-002  0.1769148E+03  0.7546771E-02  0.1170823E+00
          2   -1    0    0  503    0  0.00000000000E+00  0.00000000000E+00  0.64144035713E+03  0.64144035713E+03  0.00000000000E+00 0.  1.
         -2   -1    0    0    0  501 -0.00000000000E+00 -0.00000000000E+00 -0.49354957114E+02  0.49354957114E+02  0.00000000000E+00 0. -1.
          6    2    1    2  503    0  0.45340449802E+02  0.10776643092E+02  0.32864435140E+03  0.37213016234E+03  0.16823155349E+03 0.  0.
         24    2    3    3    0    0  0.27195704629E+02  0.95265212424E+01  0.34012053690E+03  0.35011681603E+03  0.77906638303E+02 0.  0.
         -6    2    1    2    0  501 -0.45340449802E+02 -0.10776643092E+02  0.26344104862E+03  0.31866515191E+03  0.17313116565E+03 0.  0.
        -24    2    5    5    0    0 -0.85944122721E+02  0.28879741722E+02  0.19451869439E+03  0.22925783664E+03  0.80630028415E+02 0.  0.
          4    1    4    4  502    0 -0.20452070517E+02  0.21085607551E+02  0.18824819299E+03  0.19052630317E+03  0.00000000000E+00 0. -1.
         -3    1    4    4    0  502  0.47647775146E+02 -0.11559086309E+02  0.15187234391E+03  0.15959051286E+03  0.00000000000E+00 0.  1.
          5    1    3    3  503    0  0.18144745173E+02  0.12501218496E+01 -0.11476185496E+02  0.22013346305E+02  0.47000000000E+01 0. -1.
         13    1    6    6    0    0 -0.34878300639E+02  0.26874898272E+01  0.10539379525E+02  0.36534873448E+02  0.00000000000E+00 0. -1.
        -14    1    6    6    0    0 -0.51065822082E+02  0.26192251894E+02  0.18397931486E+03  0.19272296319E+03  0.00000000000E+00 0.  1.
         -5    1    5    5    0  501  0.40603672919E+02 -0.39656384814E+02  0.68922354228E+02  0.89407315268E+02  0.47000000000E+01 0.  1.
<mgrwt>
<rscale>  2 0.17691481E+03</rscale>
<asrwt>0</asrwt>
<pdfrwt beam="1">  1        2 0.98683126E-01 0.17691481E+03</pdfrwt>
<pdfrwt beam="2">  1       -2 0.75930708E-02 0.17691481E+03</pdfrwt>
<totfact> 0.46904690E+03</totfact>
</mgrwt>
</event>
<event>
12    1  0.5759937E-002  0.1814483E+03  0.7546771E-02  0.1166409E+00
         -2   -1    0    0    0  501 -0.00000000000E+00  0.00000000000E+00  0.28503765542E+02  0.28503765542E+02  0.00000000000E+00 0. -1.
          2   -1    0    0  503    0  0.00000000000E+00 -0.00000000000E+00 -0.21015215546E+04  0.21015215546E+04  0.00000000000E+00 0.  1.
          6    2    1    2  503    0 -0.27714169222E+02  0.50169993489E+02 -0.32397942317E+03  0.37167189386E+03  0.17289368590E+03 0.  0.
         24    2    3    3    0    0 -0.62092743232E+02  0.64531475901E+02 -0.98956623889E+02  0.14353709001E+03  0.52826722917E+02 0.  0.
         -6    2    1    2    0  501  0.27714169222E+02 -0.50169993489E+02 -0.17490383659E+04  0.17583534263E+04  0.17142480265E+03 0.  0.
        -24    2    5    5    0    0 -0.19123845010E+02  0.28751979493E+02 -0.74653861628E+03  0.75165073167E+03  0.80414669311E+02 0.  0.
          4    1    4    4  502    0 -0.43457646560E+02  0.33460133082E+02 -0.23178993185E+02  0.59543373061E+02  0.00000000000E+00 0. -1.
         -3    1    4    4    0  502 -0.18635096672E+02  0.31071342820E+02 -0.75777630704E+02  0.83993716953E+02  0.00000000000E+00 0.  1.
          5    1    3    3  503    0  0.34378574009E+02 -0.14361482413E+02 -0.22502279929E+03  0.22813480385E+03  0.47000000000E+01 0. -1.
         11    1    6    6    0    0 -0.26411748967E+02 -0.22986397617E+02 -0.27200164436E+03  0.27424596532E+03  0.00000000000E+00 0. -1.
        -12    1    6    6    0    0  0.72879039566E+01  0.51738377110E+02 -0.47453697192E+03  0.47740476635E+03  0.00000000000E+00 0.  1.
         -5    1    5    5    0  501  0.46838014233E+02 -0.78921972982E+02 -0.10024997496E+04  0.10067026946E+04  0.47000000000E+01 0.  1.
<mgrwt>
<rscale>  2 0.18144828E+03</rscale>
<asrwt>0</asrwt>
<pdfrwt beam="2">  1        2 0.32331097E+00 0.18144828E+03</pdfrwt>
<pdfrwt beam="1">  1       -2 0.43851952E-02 0.18144828E+03</pdfrwt>
<totfact> 0.15841436E+03</totfact>
</mgrwt>
</event>
<event>
12    1  0.5759937E-002  0.1843183E+03  0.7546771E-02  0.1163688E+00
          1   -1    0    0  503    0  0.00000000000E+00  0.00000000000E+00  0.12210931654E+04  0.12210931654E+04  0.00000000000E+00 0. -1.
         -1   -1    0    0    0  501 -0.00000000000E+00 -0.00000000000E+00 -0.40313364679E+02  0.40313364679E+02  0.00000000000E+00 0.  1.
          6    2    1    2  503    0 -0.50964705335E+02 -0.39348251609E+02  0.23780000716E+03  0.30044969215E+03  0.17197525406E+03 0.  0.
         24    2    3    3    0    0 -0.56498707489E+02 -0.80373264412E+02  0.11854158244E+03  0.17412337373E+03  0.81331893702E+02 0.  0.
         -6    2    1    2    0  501  0.50964705335E+02  0.39348251609E+02  0.94297979354E+03  0.96095683792E+03  0.17344009692E+03 0.  0.
        -24    2    5    5    0    0 -0.25036257620E+02  0.31019024185E+02  0.70772277008E+03  0.71354325809E+03  0.81752478902E+02 0.  0.
          2    1    4    4  502    0 -0.25509530699E+02 -0.87401323840E+02  0.10656886239E+03  0.14016650811E+03  0.00000000000E+00 0. -1.
         -1    1    4    4    0  502 -0.30989176790E+02  0.70280594283E+01  0.11972720051E+02  0.33956865622E+02  0.00000000000E+00 0.  1.
          5    1    3    3  503    0  0.55340021532E+01  0.41025012803E+02  0.11925842473E+03  0.12632631841E+03  0.47000000000E+01 0. -1.
         11    1    6    6    0    0  0.10523622869E+02  0.71199927226E+01  0.54878142699E+03  0.54892849766E+03  0.00000000000E+00 0. -1.
        -12    1    6    6    0    0 -0.35559880489E+02  0.23899031463E+02  0.15894134310E+03  0.16461476043E+03  0.00000000000E+00 0.  1.
         -5    1    5    5    0  501  0.76000962956E+02  0.83292274235E+01  0.23525702345E+03  0.24741357983E+03  0.47000000000E+01 0.  1.
<mgrwt>
<rscale>  2 0.18431826E+03</rscale>
<asrwt>0</asrwt>
<pdfrwt beam="1">  1        1 0.18786046E+00 0.18431826E+03</pdfrwt>
<pdfrwt beam="2">  1       -1 0.62020570E-02 0.18431826E+03</pdfrwt>
<totfact> 0.14086997E+03</totfact>
</mgrwt>
</event>
<event>
12    1  0.5759937E-002  0.1789233E+03  0.7546771E-02  0.1168849E+00
         -2   -1    0    0    0  501 -0.00000000000E+00  0.00000000000E+00  0.62745586857E+02  0.62745586857E+02  0.00000000000E+00 0.  1.
          2   -1    0    0  503    0  0.00000000000E+00 -0.00000000000E+00 -0.61879339898E+03  0.61879339898E+03  0.00000000000E+00 0. -1.
          6    2    1    2  503    0 -0.25611652681E+02  0.32791416906E+02 -0.42022637367E+03  0.45656627456E+03  0.17358376700E+03 0.  0.
         24    2    3    3    0    0 -0.78581351547E+02  0.38425967056E+02 -0.22882948666E+03  0.25783933751E+03  0.80415211543E+02 0.  0.
         -6    2    1    2    0  501  0.25611652681E+02 -0.32791416906E+02 -0.13582143846E+03  0.22497271128E+03  0.17445350068E+03 0.  0.
        -24    2    5    5    0    0  0.84797047536E+01  0.27657512125E+02 -0.13758314547E+03  0.16194279559E+03  0.80371038033E+02 0.  0.
          4    1    4    4  502    0 -0.77775447861E+02  0.28954117080E+02 -0.23308913320E+03  0.24742252363E+03  0.00000000000E+00 0. -1.
         -3    1    4    4    0  502 -0.80590368560E+00  0.94718499758E+01  0.42596465384E+01  0.10416813877E+02  0.00000000000E+00 0.  1.
          5    1    3    3  503    0  0.52969698866E+02 -0.56345501506E+01 -0.19139688701E+03  0.19872693705E+03  0.47000000000E+01 0. -1.
         11    1    6    6    0    0  0.26844174795E+02 -0.18447750891E+02 -0.33998498307E+02  0.47083193610E+02  0.00000000000E+00 0. -1.
        -12    1    6    6    0    0 -0.18364470042E+02  0.46105263016E+02 -0.10358464716E+03  0.11485960198E+03  0.00000000000E+00 0.  1.
         -5    1    5    5    0  501  0.17131947927E+02 -0.60448929031E+02  0.17617070132E+01  0.63029915694E+02  0.47000000000E+01 0.  1.
<mgrwt>
<rscale>  2 0.17892331E+03</rscale>
<asrwt>0</asrwt>
<pdfrwt beam="2">  1        2 0.95198985E-01 0.17892331E+03</pdfrwt>
<pdfrwt beam="1">  1       -2 0.96531672E-02 0.17892331E+03</pdfrwt>
<totfact> 0.33627605E+03</totfact>
</mgrwt>
</event>
<event>
12    1  0.5759937E-002  0.2206231E+03  0.7546771E-02  0.1133419E+00
         -1   -1    0    0    0  501 -0.00000000000E+00  0.00000000000E+00  0.38692433534E+02  0.38692433534E+02  0.00000000000E+00 0. -1.
          1   -1    0    0  503    0  0.00000000000E+00 -0.00000000000E+00 -0.14111300772E+04  0.14111300772E+04  0.00000000000E+00 0.  1.
          6    2    1    2  503    0 -0.29189735683E+02  0.13280937526E+03 -0.45044472650E+03  0.50205197760E+03  0.17511529276E+03 0.  0.
         24    2    3    3    0    0 -0.24747787159E+02  0.14855242427E+03 -0.26146893917E+03  0.31231133173E+03  0.80573482303E+02 0.  0.
         -6    2    1    2    0  501  0.29189735683E+02 -0.13280937526E+03 -0.92199291716E+03  0.94777053313E+03  0.17235914059E+03 0.  0.
        -24    2    5    5    0    0  0.18949869809E+02  0.17920044472E+01 -0.27296198035E+03  0.28483340699E+03  0.79117116833E+02 0.  0.
          4    1    4    4  502    0  0.48329982106E+01  0.13756425963E+03 -0.19450135569E+03  0.23828147382E+03  0.00000000000E+00 0. -1.
         -3    1    4    4    0  502 -0.29580785369E+02  0.10988164638E+02 -0.66967583481E+02  0.74029857912E+02  0.00000000000E+00 0.  1.
          5    1    3    3  503    0 -0.44419485240E+01 -0.15743049015E+02 -0.18897578732E+03  0.18974064587E+03  0.47000000000E+01 0. -1.
         13    1    6    6    0    0 -0.12020238892E+02  0.16205955076E+02 -0.16384010718E+02  0.25991439555E+02  0.00000000000E+00 0. -1.
        -14    1    6    6    0    0  0.30970108701E+02 -0.14413950629E+02 -0.25657796963E+03  0.25884196744E+03  0.00000000000E+00 0.  1.
         -5    1    5    5    0  501  0.10239865874E+02 -0.13460137970E+03 -0.64903093681E+03  0.66293712614E+03  0.47000000000E+01 0.  1.
<mgrwt>
<rscale>  2 0.22062306E+03</rscale>
<asrwt>0</asrwt>
<pdfrwt beam="2">  1        1 0.21709692E+00 0.22062306E+03</pdfrwt>
<pdfrwt beam="1">  1       -1 0.59526825E-02 0.22062306E+03</pdfrwt>
<totfact> 0.11130413E+03</totfact>
</mgrwt>
</event>
<event>
12    1  0.5759937E-002  0.1969702E+03  0.7546771E-02  0.1152321E+00
          1   -1    0    0  503    0  0.00000000000E+00  0.00000000000E+00  0.13481951344E+03  0.13481951344E+03  0.00000000000E+00 0. -1.
         -1   -1    0    0    0  501 -0.00000000000E+00 -0.00000000000E+00 -0.28879909579E+03  0.28879909579E+03  0.00000000000E+00 0.  1.
          6    2    1    2  503    0 -0.86129250354E+02 -0.36455147152E+02 -0.64423917854E+02  0.20739703473E+03  0.17353922699E+03 0.  0.
         24    2    3    3    0    0 -0.42753603936E+02  0.21930165655E+02  0.22282916812E+02  0.94125429146E+02  0.77809158940E+02 0.  0.
         -6    2    1    2    0  501  0.86129250354E+02  0.36455147152E+02 -0.89555664502E+02  0.21622157450E+03  0.17315982996E+03 0.  0.
        -24    2    5    5    0    0  0.58739342734E+02 -0.27217059103E+02 -0.29271151486E+01  0.10517675268E+03  0.82840223386E+02 0.  0.
          2    1    4    4  502    0  0.10771963068E+02 -0.12966654600E+02  0.25021401622E+02  0.30170181620E+02  0.00000000000E+00 0. -1.
         -1    1    4    4    0  502 -0.53525567004E+02  0.34896820255E+02 -0.27384848097E+01  0.63955247526E+02  0.00000000000E+00 0.  1.
          5    1    3    3  503    0 -0.43375646417E+02 -0.58385312807E+02 -0.86706834666E+02  0.11327160558E+03  0.47000000000E+01 0. -1.
         13    1    6    6    0    0  0.36362784493E+01  0.76841945623E+01  0.30655933542E+02  0.31812821760E+02  0.00000000000E+00 0. -1.
        -14    1    6    6    0    0  0.55103064285E+02 -0.34901253665E+02 -0.33583048691E+02  0.73363930922E+02  0.00000000000E+00 0.  1.
         -5    1    5    5    0  501  0.27389907620E+02  0.63672206255E+02 -0.86628549354E+02  0.11104482181E+03  0.47000000000E+01 0.  1.
<mgrwt>
<rscale>  2 0.19697021E+03</rscale>
<asrwt>0</asrwt>
<pdfrwt beam="1">  1        1 0.20741464E-01 0.19697021E+03</pdfrwt>
<pdfrwt beam="2">  1       -1 0.44430630E-01 0.19697021E+03</pdfrwt>
<totfact> 0.12356858E+03</totfact>
</mgrwt>
</event>
<event>
12    1  0.5759937E-002  0.1767018E+03  0.7546771E-02  0.1171034E+00
         -2   -1    0    0    0  501 -0.00000000000E+00  0.00000000000E+00  0.48174568326E+02  0.48174568326E+02  0.00000000000E+00 0. -1.
          2   -1    0    0  503    0  0.00000000000E+00 -0.00000000000E+00 -0.75783751102E+03  0.75783751102E+03  0.00000000000E+00 0.  1.
          6    2    1    2  503    0  0.22979650368E+02  0.29823203998E+02 -0.50829285795E+03  0.53815567224E+03  0.17272061341E+03 0.  0.
         24    2    3    3    0    0  0.67231761000E+02  0.38733021899E+02 -0.22378247846E+03  0.25004826139E+03  0.80157212314E+02 0.  0.
         -6    2    1    2    0  501 -0.22979650368E+02 -0.29823203998E+02 -0.20137008475E+03  0.26785640711E+03  0.17256783005E+03 0.  0.
        -24    2    5    5    0    0 -0.18111933567E+02 -0.29720709047E+02 -0.24393327572E+02  0.90750315308E+02  0.80182433330E+02 0.  0.
          4    1    4    4  502    0  0.41095519254E+02 -0.67756746325E+01 -0.35941700444E+02  0.55014155454E+02  0.00000000000E+00 0. -1.
         -3    1    4    4    0  502  0.26136241746E+02  0.45508696532E+02 -0.18784077802E+03  0.19503410594E+03  0.00000000000E+00 0.  1.
          5    1    3    3  503    0 -0.44252110632E+02 -0.89098179013E+01 -0.28451037949E+03  0.28810741085E+03  0.47000000000E+01 0. -1.
         11    1    6    6    0    0  0.16499791580E+02  0.11533595520E+02  0.14081375289E+02  0.24567296918E+02  0.00000000000E+00 0. -1.
        -12    1    6    6    0    0 -0.34611725147E+02 -0.41254304567E+02 -0.38474702861E+02  0.66183018390E+02  0.00000000000E+00 0.  1.
         -5    1    5    5    0  501 -0.48677168014E+01 -0.10249495125E+00 -0.17697675717E+03  0.17710609180E+03  0.47000000000E+01 0.  1.
<mgrwt>
<rscale>  2 0.17670175E+03</rscale>
<asrwt>0</asrwt>
<pdfrwt beam="2">  1        2 0.11659037E+00 0.17670175E+03</pdfrwt>
<pdfrwt beam="1">  1       -2 0.74114731E-02 0.17670175E+03</pdfrwt>
<totfact> 0.39866656E+03</totfact>
</mgrwt>
</event>
<event>
12    1  0.5759937E-002  0.2362157E+03  0.7546771E-02  0.1122340E+00
         -1   -1    0    0    0  501 -0.00000000000E+00  0.00000000000E+00  0.20481997976E+03  0.20481997976E+03  0.00000000000E+00 0. -1.
          1   -1    0    0  503    0  0.00000000000E+00 -0.00000000000E+00 -0.27470394182E+03  0.27470394182E+03  0.00000000000E+00 0.  1.
          6    2    1    2  503    0  0.21447763800E+02 -0.16051521491E+03 -0.56662951327E+02  0.24219345374E+03  0.17094396213E+03 0.  0.
         24    2    3    3    0    0  0.49884703935E+02 -0.27113450616E+02 -0.32590217392E+02  0.10360674153E+03  0.80303248565E+02 0.  0.
         -6    2    1    2    0  501 -0.21447763800E+02  0.16051521491E+03 -0.13221010731E+02  0.23733046784E+03  0.17299079470E+03 0.  0.
        -24    2    5    5    0    0  0.16862775055E+02  0.45318486356E+02 -0.54438186324E+02  0.10903810945E+03  0.81164492204E+02 0.  0.
          4    1    4    4  502    0 -0.10906112141E+02  0.18963962273E+02 -0.99873259860E+01  0.24048322758E+02  0.00000000000E+00 0. -1.
         -3    1    4    4    0  502  0.60790816075E+02 -0.46077412890E+02 -0.22602891406E+02  0.79558418773E+02  0.00000000000E+00 0.  1.
          5    1    3    3  503    0 -0.28436940135E+02 -0.13340176429E+03 -0.24072733935E+02  0.13858671220E+03  0.47000000000E+01 0. -1.
         13    1    6    6    0    0  0.11909476486E+02 -0.16724299535E+02  0.68929889825E+01  0.21657588098E+02  0.00000000000E+00 0. -1.
        -14    1    6    6    0    0  0.49532985690E+01  0.62042785891E+02 -0.61331175307E+02  0.87380521356E+02  0.00000000000E+00 0.  1.
         -5    1    5    5    0  501 -0.38310538855E+02  0.11519672855E+03  0.41217175593E+02  0.12829235839E+03  0.47000000000E+01 0.  1.
<mgrwt>
<rscale>  2 0.23621570E+03</rscale>
<asrwt>0</asrwt>
<pdfrwt beam="2">  1        1 0.42262145E-01 0.23621570E+03</pdfrwt>
<pdfrwt beam="1">  1       -1 0.31510766E-01 0.23621570E+03</pdfrwt>
<totfact> 0.92070463E+02</totfact>
</mgrwt>
</event>
<event>
12    1  0.5759937E-002  0.1890763E+03  0.7546771E-02  0.1159297E+00
         -2   -1    0    0    0  501 -0.00000000000E+00  0.00000000000E+00  0.20417780702E+02  0.20417780702E+02  0.00000000000E+00 0.  1.
          2   -1    0    0  503    0  0.00000000000E+00 -0.00000000000E+00 -0.17657348923E+04  0.17657348923E+04  0.00000000000E+00 0. -1.
          6    2    1    2  503    0  0.48226065571E+02 -0.51565031424E+02 -0.78517890969E+03  0.80732396364E+03  0.17401539062E+03 0.  0.
         24    2    3    3    0    0  0.35811720849E+02  0.37681539580E+02 -0.38244925853E+03  0.39461059056E+03  0.82144415867E+02 0.  0.
         -6    2    1    2    0  501 -0.48226065571E+02  0.51565031424E+02 -0.96013820192E+03  0.97882870938E+03  0.17679244794E+03 0.  0.
        -24    2    5    5    0    0  0.75731359258E+01  0.60331965169E+02 -0.30546598716E+03  0.32170755709E+03  0.80554233679E+02 0.  0.
          2    1    4    4  502    0  0.47201004504E+02 -0.97932860972E+01 -0.17790179634E+03  0.18431736874E+03  0.00000000000E+00 0. -1.
         -1    1    4    4    0  502 -0.11389283655E+02  0.47474825677E+02 -0.20454746219E+03  0.21029322182E+03  0.00000000000E+00 0.  1.
          5    1    3    3  503    0  0.12414344722E+02 -0.89246571004E+02 -0.40272965117E+03  0.41271337308E+03  0.47000000000E+01 0. -1.
         11    1    6    6    0    0  0.22812771488E+02 -0.11865585017E+02 -0.10468838541E+03  0.10780015163E+03  0.00000000000E+00 0. -1.
        -12    1    6    6    0    0 -0.15239635562E+02  0.72197550186E+02 -0.20077760175E+03  0.21390740546E+03  0.00000000000E+00 0.  1.
         -5    1    5    5    0  501 -0.55799201497E+02 -0.87669337447E+01 -0.65467221476E+03  0.65712115230E+03  0.47000000000E+01 0.  1.
<mgrwt>
<rscale>  2 0.18907631E+03</rscale>
<asrwt>0</asrwt>
<pdfrwt beam="2">  1        2 0.27165160E+00 0.18907631E+03</pdfrwt>
<pdfrwt beam="1">  1       -2 0.31411961E-02 0.18907631E+03</pdfrwt>
<totfact> 0.38909133E+03</totfact>
</mgrwt>
</event>
<event>
12    1  0.5759937E-002  0.2177191E+03  0.7546771E-02  0.1135595E+00
          2   -1    0    0  503    0  0.00000000000E+00  0.00000000000E+00  0.47221612175E+02  0.47221612175E+02  0.00000000000E+00 0.  1.
         -2   -1    0    0    0  501 -0.00000000000E+00 -0.00000000000E+00 -0.10043830868E+04  0.10043830868E+04  0.00000000000E+00 0. -1.
          6    2    1    2  503    0 -0.10706764417E+03  0.79989244473E+02 -0.49351883991E+03  0.53992174880E+03  0.17347302333E+03 0.  0.
         24    2    3    3    0    0 -0.81071507179E+02  0.57150347301E+02 -0.15355291529E+03  0.19816696206E+03  0.76504219382E+02 0.  0.
         -6    2    1    2    0  501  0.10706764417E+03 -0.79989244473E+02 -0.46364263469E+03  0.51168295014E+03  0.17027386502E+03 0.  0.
        -24    2    5    5    0    0  0.70495808806E+02  0.29738075530E+01 -0.34910010184E+03  0.36552396488E+03  0.82209398513E+02 0.  0.
          4    1    4    4  502    0 -0.95036202702E+02  0.50232947298E+02 -0.11960100785E+03  0.16080929668E+03  0.00000000000E+00 0. -1.
         -3    1    4    4    0  502  0.13964695524E+02  0.69174000034E+01 -0.33951907439E+02  0.37357665380E+02  0.00000000000E+00 0.  1.
          5    1    3    3  503    0 -0.25996136992E+02  0.22838897172E+02 -0.33996592462E+03  0.34175478674E+03  0.47000000000E+01 0. -1.
         11    1    6    6    0    0  0.78049677971E+02  0.12453513180E+02 -0.18760034295E+03  0.20356996560E+03  0.00000000000E+00 0. -1.
        -12    1    6    6    0    0 -0.75538691644E+01 -0.94797056267E+01 -0.16149975889E+03  0.16195399928E+03  0.00000000000E+00 0.  1.
         -5    1    5    5    0  501  0.36571835364E+02 -0.82963052026E+02 -0.11454253284E+03  0.14615898526E+03  0.47000000000E+01 0.  1.
<mgrwt>
<rscale>  2 0.21771911E+03</rscale>
<asrwt>0</asrwt>
<pdfrwt beam="1">  1        2 0.72648639E-02 0.21771911E+03</pdfrwt>
<pdfrwt beam="2">  1       -2 0.15452046E+00 0.21771911E+03</pdfrwt>
<totfact> 0.28195416E+02</totfact>
</mgrwt>
</event>
<event>
12    1  0.5759937E-002  0.1730223E+03  0.7546771E-02  0.1174732E+00
          2   -1    0    0  503    0  0.00000000000E+00  0.00000000000E+00  0.48209562207E+03  0.48209562207E+03  0.00000000000E+00 0. -1.
         -2   -1    0    0    0  501 -0.00000000000E+00 -0.00000000000E+00 -0.86544457708E+02  0.86544457708E+02  0.00000000000E+00 0.  1.
          6    2    1    2  503    0  0.11243625629E+02  0.15212627902E+02  0.35006727668E+03  0.39114244740E+03  0.17345740915E+03 0.  0.
         24    2    3    3    0    0  0.81371756282E+01 -0.36936160666E+02  0.96521573491E+02  0.13222806042E+03  0.82081375601E+02 0.  0.
         -6    2    1    2    0  501 -0.11243625629E+02 -0.15212627902E+02  0.45483887683E+02  0.17749763238E+03  0.17052501956E+03 0.  0.
        -24    2    5    5    0    0  0.35390616604E+02 -0.55644406867E+02  0.10104178984E+02  0.10620040181E+03  0.82629505341E+02 0.  0.
          2    1    4    4  502    0 -0.19341633100E+02 -0.44373723866E+02  0.91224793944E+02  0.10327191860E+03  0.00000000000E+00 0. -1.
         -1    1    4    4    0  502  0.27478808729E+02  0.74375631997E+01  0.52967795470E+01  0.28956141819E+02  0.00000000000E+00 0.  1.
          5    1    3    3  503    0  0.31064500006E+01  0.52148788568E+02  0.25354570319E+03  0.25891438698E+03  0.47000000000E+01 0. -1.
         11    1    6    6    0    0 -0.74135391174E+01 -0.50030788945E+02  0.29849480202E+02  0.58728458800E+02  0.00000000000E+00 0. -1.
        -12    1    6    6    0    0  0.42804155721E+02 -0.56136179223E+01 -0.19745301218E+02  0.47471943012E+02  0.00000000000E+00 0.  1.
         -5    1    5    5    0  501 -0.46634242233E+02  0.40431778965E+02  0.35379708699E+02  0.71297230567E+02  0.47000000000E+01 0.  1.
<mgrwt>
<rscale>  2 0.17302232E+03</rscale>
<asrwt>0</asrwt>
<pdfrwt beam="1">  1        2 0.74168556E-01 0.17302232E+03</pdfrwt>
<pdfrwt beam="2">  1       -2 0.13314532E-01 0.17302232E+03</pdfrwt>
<totfact> 0.26619339E+03</totfact>
</mgrwt>
</event>
<event>
12    1  0.5759937E-002  0.1904261E+03  0.7546771E-02  0.1158078E+00
          2   -1    0    0  503    0  0.00000000000E+00  0.00000000000E+00  0.54950559730E+03  0.54950559730E+03  0.00000000000E+00 0. -1.
         -2   -1    0    0    0  501 -0.00000000000E+00 -0.00000000000E+00 -0.15260931953E+03  0.15260931953E+03  0.00000000000E+00 0.  1.
          6    2    1    2  503    0  0.37615415994E+02 -0.64989111773E+02 -0.65409516372E+02  0.20264246531E+03  0.17648529612E+03 0.  0.
         24    2    3    3    0    0 -0.36372579797E+02 -0.25560680769E+02 -0.74152491665E+02  0.11821880566E+03  0.80627421070E+02 0.  0.
         -6    2    1    2    0  501 -0.37615415994E+02  0.64989111773E+02  0.46230579414E+03  0.49947245151E+03  0.17351535480E+03 0.  0.
        -24    2    5    5    0    0  0.93063767422E+01  0.44624892192E+02  0.10215839621E+03  0.13568048581E+03  0.76778035023E+02 0.  0.
          2    1    4    4  502    0 -0.34723443344E+02 -0.43612639844E+02 -0.17032385782E+02  0.58291354739E+02  0.00000000000E+00 0. -1.
         -1    1    4    4    0  502 -0.16491364524E+01  0.18051959075E+02 -0.57120105883E+02  0.59927450918E+02  0.00000000000E+00 0.  1.
          5    1    3    3  503    0  0.73987995791E+02 -0.39428431004E+02  0.87429752932E+01  0.84423659655E+02  0.47000000000E+01 0. -1.
         13    1    6    6    0    0 -0.33411021097E+02  0.25943528529E+02  0.54747787681E+02  0.69185860255E+02  0.00000000000E+00 0. -1.
        -14    1    6    6    0    0  0.42717397840E+02  0.18681363663E+02  0.47410608533E+02  0.66494625557E+02  0.00000000000E+00 0.  1.
         -5    1    5    5    0  501 -0.46921792736E+02  0.20364219581E+02  0.36014739793E+03  0.36379196570E+03  0.47000000000E+01 0.  1.
<mgrwt>
<rscale>  2 0.19042610E+03</rscale>
<asrwt>0</asrwt>
<pdfrwt beam="1">  1        2 0.84539322E-01 0.19042610E+03</pdfrwt>
<pdfrwt beam="2">  1       -2 0.23478357E-01 0.19042610E+03</pdfrwt>
<totfact> 0.88933332E+02</totfact>
</mgrwt>
</event>
<event>
12    1  0.5759937E-002  0.1881944E+03  0.7546771E-02  0.1160100E+00
          2   -1    0    0  503    0  0.00000000000E+00  0.00000000000E+00  0.22106772201E+03  0.22106772201E+03  0.00000000000E+00 0.  1.
         -2   -1    0    0    0  501 -0.00000000000E+00 -0.00000000000E+00 -0.18550288592E+03  0.18550288592E+03  0.00000000000E+00 0. -1.
          6    2    1    2  503    0 -0.21122016187E+02  0.72322519139E+02  0.92880946109E+02  0.21025530072E+03  0.17292696432E+03 0.  0.
         24    2    3    3    0    0 -0.66133270049E+02  0.18008341175E+01  0.40935627748E+02  0.11166662423E+03  0.80105286568E+02 0.  0.
         -6    2    1    2    0  501  0.21122016187E+02 -0.72322519139E+02 -0.57316110021E+02  0.19631530722E+03  0.17198219977E+03 0.  0.
        -24    2    5    5    0    0 -0.16420830371E+02 -0.93273763116E+02 -0.78979910632E+02  0.14794351576E+03  0.81730159772E+02 0.  0.
          2    1    4    4  502    0 -0.50481212420E+02 -0.24810506390E+02 -0.48360023523E+01  0.56456186140E+02  0.00000000000E+00 0. -1.
         -1    1    4    4    0  502 -0.15652057629E+02  0.26611340508E+02  0.45771630100E+02  0.55210438086E+02  0.00000000000E+00 0.  1.
          5    1    3    3  503    0  0.45011253863E+02  0.70521685022E+02  0.51945318361E+02  0.98588676491E+02  0.47000000000E+01 0. -1.
         13    1    6    6    0    0  0.29671771798E+02 -0.30317013577E+02 -0.95125451542E+01  0.43474404759E+02  0.00000000000E+00 0. -1.
        -14    1    6    6    0    0 -0.46092602168E+02 -0.62956749538E+02 -0.69467365477E+02  0.10446911100E+03  0.00000000000E+00 0.  1.
         -5    1    5    5    0  501  0.37542846558E+02  0.20951243976E+02  0.21663800611E+02  0.48371791456E+02  0.47000000000E+01 0.  1.
<mgrwt>
<rscale>  2 0.18819436E+03</rscale>
<asrwt>0</asrwt>
<pdfrwt beam="1">  1        2 0.34010419E-01 0.18819436E+03</pdfrwt>
<pdfrwt beam="2">  1       -2 0.28538905E-01 0.18819436E+03</pdfrwt>
<totfact> 0.16902010E+03</totfact>
</mgrwt>
</event>
<event>
12    1  0.5759937E-002  0.3690096E+03  0.7546771E-02  0.1055072E+00
          4   -1    0    0  503    0  0.00000000000E+00  0.00000000000E+00  0.27866175654E+04  0.27866175654E+04  0.00000000000E+00 0. -1.
         -4   -1    0    0    0  501 -0.00000000000E+00 -0.00000000000E+00 -0.11537675832E+03  0.11537675832E+03  0.00000000000E+00 0.  1.
          6    2    1    2  503    0 -0.32512899087E+03 -0.22693122091E+02  0.24382701903E+04  0.24661299243E+04  0.17438877279E+03 0.  0.
         24    2    3    3    0    0 -0.19532346353E+03  0.53745463859E+02  0.15269938587E+04  0.15424746992E+04  0.80486786438E+02 0.  0.
         -6    2    1    2    0  501  0.32512899087E+03  0.22693122091E+02  0.23297061675E+03  0.43586439939E+03  0.17169341249E+03 0.  0.
        -24    2    5    5    0    0  0.10621088340E+03 -0.38721882137E+02  0.63228972697E+02  0.15208410365E+03  0.79696522428E+02 0.  0.
          2    1    4    4  502    0 -0.10368503853E+03  0.21479299505E+02  0.10724262876E+04  0.10776409837E+04  0.00000000000E+00 0. -1.
         -1    1    4    4    0  502 -0.91638424998E+02  0.32266164354E+02  0.45456757110E+03  0.46483371542E+03  0.00000000000E+00 0.  1.
          5    1    3    3  503    0 -0.12980552734E+03 -0.76438585949E+02  0.91127633163E+03  0.92365522515E+03  0.47000000000E+01 0. -1.
         11    1    6    6    0    0  0.90099026601E+02 -0.20863946477E+02  0.80389211356E+02  0.12253801108E+03  0.00000000000E+00 0. -1.
        -12    1    6    6    0    0  0.16111856798E+02 -0.17857935659E+02 -0.17160238659E+02  0.29546092573E+02  0.00000000000E+00 0.  1.
         -5    1    5    5    0  501  0.21891810748E+03  0.61415004227E+02  0.16974164405E+03  0.28378029574E+03  0.47000000000E+01 0.  1.
<mgrwt>
<rscale>  2 0.36900959E+03</rscale>
<asrwt>0</asrwt>
<pdfrwt beam="1">  1        4 0.42871034E+00 0.36900959E+03</pdfrwt>
<pdfrwt beam="2">  1       -4 0.17750273E-01 0.36900959E+03</pdfrwt>
<totfact> 0.27114177E-01</totfact>
</mgrwt>
</event>
<event>
12    1  0.5759937E-002  0.2018528E+03  0.7546771E-02  0.1148185E+00
         -1   -1    0    0    0  501 -0.00000000000E+00  0.00000000000E+00  0.25022021094E+03  0.25022021094E+03  0.00000000000E+00 0. -1.
          1   -1    0    0  503    0  0.00000000000E+00 -0.00000000000E+00 -0.16447583252E+03  0.16447583252E+03  0.00000000000E+00 0.  1.
          6    2    1    2  503    0 -0.98391042024E+02 -0.39986079133E+02  0.22393242100E+02  0.20407462390E+03  0.17281583016E+03 0.  0.
         24    2    3    3    0    0  0.14449104351E+02 -0.31916885378E+02 -0.29772352341E+01  0.88041173370E+02  0.80715054915E+02 0.  0.
         -6    2    1    2    0  501  0.98391042024E+02  0.39986079133E+02  0.63351136314E+02  0.21062141956E+03  0.17049437595E+03 0.  0.
        -24    2    5    5    0    0  0.13131621287E+03  0.79872627793E+01  0.48209752055E+02  0.16204835459E+03  0.81410963036E+02 0.  0.
          4    1    4    4  502    0 -0.49706148853E+01  0.15011635696E+02 -0.27438864365E+02  0.31669346318E+02  0.00000000000E+00 0. -1.
         -3    1    4    4    0  502  0.19419719236E+02 -0.46928521074E+02  0.24461629130E+02  0.56371827051E+02  0.00000000000E+00 0.  1.
          5    1    3    3  503    0 -0.11284014637E+03 -0.80691937556E+01  0.25370477334E+02  0.11603345053E+03  0.47000000000E+01 0. -1.
         13    1    6    6    0    0  0.26753704706E+02 -0.32283800066E+02  0.20253522234E+02  0.46564037895E+02  0.00000000000E+00 0. -1.
        -14    1    6    6    0    0  0.10456250817E+03  0.40271062846E+02  0.27956229821E+02  0.11548431669E+03  0.00000000000E+00 0.  1.
         -5    1    5    5    0  501 -0.32925170848E+02  0.31998816354E+02  0.15141384259E+02  0.48573064971E+02  0.47000000000E+01 0.  1.
<mgrwt>
<rscale>  2 0.20185281E+03</rscale>
<asrwt>0</asrwt>
<pdfrwt beam="2">  1        1 0.25303974E-01 0.20185281E+03</pdfrwt>
<pdfrwt beam="1">  1       -1 0.38495417E-01 0.20185281E+03</pdfrwt>
<totfact> 0.12383510E+03</totfact>
</mgrwt>
</event>
<event>
12    1  0.5759937E-002  0.2422148E+03  0.7546771E-02  0.1118326E+00
          2   -1    0    0  503    0  0.00000000000E+00  0.00000000000E+00  0.10081325095E+04  0.10081325095E+04  0.00000000000E+00 0.  1.
         -2   -1    0    0    0  501 -0.00000000000E+00 -0.00000000000E+00 -0.10352482237E+03  0.10352482237E+03  0.00000000000E+00 0. -1.
          6    2    1    2  503    0  0.60403034443E+02  0.15520470048E+03  0.86760893171E+02  0.25929547811E+03  0.17880063413E+03 0.  0.
         24    2    3    3    0    0  0.25887160247E+02  0.54910959438E+02 -0.28190075704E+02  0.10281546243E+03  0.78044733419E+02 0.  0.
         -6    2    1    2    0  501 -0.60403034443E+02 -0.15520470048E+03  0.81784679394E+03  0.85236185374E+03  0.17294601972E+03 0.  0.
        -24    2    5    5    0    0 -0.83435360233E+02 -0.15112511957E+03  0.80049988063E+03  0.82286377900E+03  0.80650349092E+02 0.  0.
          2    1    4    4  502    0  0.32749718277E+01  0.63441042378E+02 -0.40856459602E+02  0.75529739770E+02  0.00000000000E+00 0. -1.
         -1    1    4    4    0  502  0.22612188419E+02 -0.85300829398E+01  0.12666383898E+02  0.27285722661E+02  0.00000000000E+00 0.  1.
          5    1    3    3  503    0  0.34515874196E+02  0.10029374104E+03  0.11495096887E+03  0.15648001568E+03  0.47000000000E+01 0. -1.
         11    1    6    6    0    0 -0.18685672541E+02 -0.11075731516E+03  0.41804854709E+03  0.43287518402E+03  0.00000000000E+00 0. -1.
        -12    1    6    6    0    0 -0.64749687692E+02 -0.40367804411E+02  0.38245133354E+03  0.38998859498E+03  0.00000000000E+00 0.  1.
         -5    1    5    5    0  501  0.23032325790E+02 -0.40795809041E+01  0.17346913309E+02  0.29498074734E+02  0.47000000000E+01 0.  1.
<mgrwt>
<rscale>  2 0.24221475E+03</rscale>
<asrwt>0</asrwt>
<pdfrwt beam="1">  1        2 0.15509730E+00 0.24221475E+03</pdfrwt>
<pdfrwt beam="2">  1       -2 0.15926896E-01 0.24221475E+03</pdfrwt>
<totfact> 0.80723177E+02</totfact>
</mgrwt>
</event>
<event>
12    1  0.5759937E-002  0.2081930E+03  0.7546771E-02  0.1143005E+00
          2   -1    0    0  503    0  0.00000000000E+00  0.00000000000E+00  0.47194291915E+03  0.47194291915E+03  0.00000000000E+00 0. -1.
         -2   -1    0    0    0  501 -0.00000000000E+00 -0.00000000000E+00 -0.94578411091E+02  0.94578411091E+02  0.00000000000E+00 0.  1.
          6    2    1    2  503    0  0.72920145381E+02 -0.89299002101E+02  0.23618038208E+03  0.31434033379E+03  0.17244423210E+03 0.  0.
         24    2    3    3    0    0 -0.77792742963E+00 -0.45409096862E+02  0.41519215315E+02  0.10156629974E+03  0.80803940208E+02 0.  0.
         -6    2    1    2    0  501 -0.72920145381E+02  0.89299002101E+02  0.14118412598E+03  0.25218099646E+03  0.17427173657E+03 0.  0.
        -24    2    5    5    0    0 -0.34722949383E+02  0.43901054911E+01  0.13195855119E+03  0.15850203545E+03  0.80528751187E+02 0.  0.
          2    1    4    4  502    0  0.54548313431E+00 -0.34485185445E+02  0.66143351179E+02  0.74595364952E+02  0.00000000000E+00 0. -1.
         -1    1    4    4    0  502 -0.13234105639E+01 -0.10923911417E+02 -0.24624135865E+02  0.26970934786E+02  0.00000000000E+00 0.  1.
          5    1    3    3  503    0  0.73698072811E+02 -0.43889905238E+02  0.19466116677E+03  0.21277403405E+03  0.47000000000E+01 0. -1.
         13    1    6    6    0    0  0.91487400297E+01 -0.26294564898E+02  0.19623369295E+02  0.34061418200E+02  0.00000000000E+00 0. -1.
        -14    1    6    6    0    0 -0.43871689413E+02  0.30684670389E+02  0.11233518190E+03  0.12444061725E+03  0.00000000000E+00 0.  1.
         -5    1    5    5    0  501 -0.38197195998E+02  0.84908896610E+02  0.92255747849E+01  0.93678961009E+02  0.47000000000E+01 0.  1.
<mgrwt>
<rscale>  2 0.20819300E+03</rscale>
<asrwt>0</asrwt>
<pdfrwt beam="1">  1        2 0.72606601E-01 0.20819300E+03</pdfrwt>
<pdfrwt beam="2">  1       -2 0.14550525E-01 0.20819300E+03</pdfrwt>
<totfact> 0.23702887E+03</totfact>
</mgrwt>
</event>
<event>
12    1  0.5759937E-002  0.1856993E+03  0.7546771E-02  0.1162398E+00
          2   -1    0    0  503    0  0.00000000000E+00  0.00000000000E+00  0.15397024197E+03  0.15397024197E+03  0.00000000000E+00 0. -1.
         -2   -1    0    0    0  501 -0.00000000000E+00 -0.00000000000E+00 -0.23418777484E+03  0.23418777484E+03  0.00000000000E+00 0.  1.
          6    2    1    2  503    0 -0.54682686209E+02 -0.31961175609E+02  0.53722568337E+00  0.18519754736E+03  0.17402910681E+03 0.  0.
         24    2    3    3    0    0 -0.38838924168E+02  0.34025503344E+02 -0.42346465484E+02  0.10478381990E+03  0.80747934128E+02 0.  0.
         -6    2    1    2    0  501  0.54682686209E+02  0.31961175609E+02 -0.80754758556E+02  0.20296046945E+03  0.17509970934E+03 0.  0.
        -24    2    5    5    0    0  0.64426253688E+02  0.84391325604E+02 -0.62180959324E+02  0.14629536772E+03  0.79140538998E+02 0.  0.
          2    1    4    4  502    0 -0.55506377418E+02  0.49095948083E+00 -0.37580530498E+02  0.67033538231E+02  0.00000000000E+00 0. -1.
         -1    1    4    4    0  502  0.16667453251E+02  0.33534543863E+02 -0.47659349861E+01  0.37750281671E+02  0.00000000000E+00 0.  1.
          5    1    3    3  503    0 -0.15843762042E+02 -0.65986678953E+02  0.42883691167E+02  0.80413727454E+02  0.47000000000E+01 0. -1.
         11    1    6    6    0    0  0.39681953850E+02  0.26542537978E+02  0.11799898019E+02  0.49177244503E+02  0.00000000000E+00 0. -1.
        -12    1    6    6    0    0  0.24744299838E+02  0.57848787626E+02 -0.73980857343E+02  0.97118123218E+02  0.00000000000E+00 0.  1.
         -5    1    5    5    0  501 -0.97435674791E+01 -0.52430149995E+02 -0.18573799232E+02  0.56665101726E+02  0.47000000000E+01 0.  1.
<mgrwt>
<rscale>  2 0.18569929E+03</rscale>
<asrwt>0</asrwt>
<pdfrwt beam="1">  1        2 0.23687730E-01 0.18569929E+03</pdfrwt>
<pdfrwt beam="2">  1       -2 0.36028888E-01 0.18569929E+03</pdfrwt>
<totfact> 0.16414081E+03</totfact>
</mgrwt>
</event>
<event>
12    1  0.5759937E-002  0.3062027E+03  0.7546771E-02  0.1082180E+00
          1   -1    0    0  503    0  0.00000000000E+00  0.00000000000E+00  0.12578372013E+04  0.12578372013E+04  0.00000000000E+00 0. -1.
         -1   -1    0    0    0  501 -0.00000000000E+00 -0.00000000000E+00 -0.88290919962E+02  0.88290919962E+02  0.00000000000E+00 0.  1.
          6    2    1    2  503    0 -0.20144903971E+03 -0.14943883481E+03  0.31695363633E+03  0.43974971021E+03  0.17322389875E+03 0.  0.
         24    2    3    3    0    0 -0.17463689690E+03 -0.11301249122E+03  0.15412674716E+03  0.27069215981E+03  0.79052655022E+02 0.  0.
         -6    2    1    2    0  501  0.20144903971E+03  0.14943883481E+03  0.85259264498E+03  0.90637841102E+03  0.17802787629E+03 0.  0.
        -24    2    5    5    0    0  0.19093739429E+03  0.13045527204E+03  0.54008111250E+03  0.59307916385E+03  0.81114856667E+02 0.  0.
          4    1    4    4  502    0 -0.13314753970E+03 -0.41080475590E+02  0.91763498500E+02  0.16684247798E+03  0.00000000000E+00 0. -1.
         -3    1    4    4    0  502 -0.41489357198E+02 -0.71932015632E+02  0.62363248659E+02  0.10384968183E+03  0.00000000000E+00 0.  1.
          5    1    3    3  503    0 -0.26812142819E+02 -0.36426343591E+02  0.16282688917E+03  0.16905755040E+03  0.47000000000E+01 0. -1.
         13    1    6    6    0    0  0.89376634406E+02  0.18649176820E+02  0.24761130725E+03  0.26390781355E+03  0.00000000000E+00 0. -1.
        -14    1    6    6    0    0  0.10156075988E+03  0.11180609522E+03  0.29246980525E+03  0.32917135030E+03  0.00000000000E+00 0.  1.
         -5    1    5    5    0  501  0.10511645423E+02  0.18983562776E+02  0.31251153248E+03  0.31329924717E+03  0.47000000000E+01 0.  1.
<mgrwt>
<rscale>  2 0.30620272E+03</rscale>
<asrwt>0</asrwt>
<pdfrwt beam="1">  1        1 0.19351340E+00 0.30620272E+03</pdfrwt>
<pdfrwt beam="2">  1       -1 0.13583219E-01 0.30620272E+03</pdfrwt>
<totfact> 0.39298476E+02</totfact>
</mgrwt>
</event>
<event>
12    1  0.5759937E-002  0.2783476E+03  0.7546771E-02  0.1096595E+00
         -3   -1    0    0    0  501 -0.00000000000E+00  0.00000000000E+00  0.52073503159E+02  0.52073503159E+02  0.00000000000E+00 0. -1.
          3   -1    0    0  503    0  0.00000000000E+00 -0.00000000000E+00 -0.15543914486E+04  0.15543914486E+04  0.00000000000E+00 0.  1.
          6    2    1    2  503    0  0.21491885239E+03 -0.61956320545E+02 -0.59872358120E+03  0.66243884846E+03  0.17414534877E+03 0.  0.
         24    2    3    3    0    0  0.17767910389E+03 -0.95632508222E+02 -0.37847928873E+03  0.43649522087E+03  0.81031260971E+02 0.  0.
         -6    2    1    2    0  501 -0.21491885239E+03  0.61956320545E+02 -0.90359436421E+03  0.94402610326E+03  0.15707899237E+03 0.  0.
        -24    2    5    5    0    0 -0.12048383278E+03  0.20492586382E+02 -0.31918959739E+03  0.35057160992E+03  0.77988169281E+02 0.  0.
          2    1    4    4  502    0  0.19464497218E+02 -0.21485180852E+02 -0.13778000972E+02  0.32098488422E+02  0.00000000000E+00 0. -1.
         -1    1    4    4    0  502  0.15821460667E+03 -0.74147327370E+02 -0.36470128776E+03  0.40439673244E+03  0.00000000000E+00 0.  1.
          5    1    3    3  503    0  0.37239748502E+02  0.33676187676E+02 -0.22024429247E+03  0.22594362759E+03  0.47000000000E+01 0. -1.
         13    1    6    6    0    0 -0.51489357703E+02  0.48234233790E+02 -0.16051699316E+03  0.17533796041E+03  0.00000000000E+00 0. -1.
        -14    1    6    6    0    0 -0.68994475073E+02 -0.27741647408E+02 -0.15867260423E+03  0.17523364952E+03  0.00000000000E+00 0.  1.
         -5    1    5    5    0  501 -0.94435019617E+02  0.41463734164E+02 -0.58440476682E+03  0.59345449334E+03  0.47000000000E+01 0.  1.
<mgrwt>
<rscale>  2 0.27834757E+03</rscale>
<asrwt>0</asrwt>
<pdfrwt beam="2">  1        3 0.23913714E+00 0.27834757E+03</pdfrwt>
<pdfrwt beam="1">  1       -3 0.80113084E-02 0.27834757E+03</pdfrwt>
<totfact> 0.25223259E+01</totfact>
</mgrwt>
</event>
<event>
12    1  0.5759937E-002  0.1859147E+03  0.7546771E-02  0.1162198E+00
          2   -1    0    0  503    0  0.00000000000E+00  0.00000000000E+00  0.33953272778E+03  0.33953272778E+03  0.00000000000E+00 0.  1.
         -2   -1    0    0    0  501 -0.00000000000E+00 -0.00000000000E+00 -0.11439636712E+03  0.11439636712E+03  0.00000000000E+00 0. -1.
          6    2    1    2  503    0 -0.68761489766E+02 -0.87128595423E+01  0.18815853457E+03  0.26487769436E+03  0.17306791280E+03 0.  0.
         24    2    3    3    0    0 -0.62193368845E+02  0.57976656846E+02  0.13844017569E+03  0.18130355351E+03  0.80473526102E+02 0.  0.
         -6    2    1    2    0  501  0.68761489766E+02  0.87128595423E+01  0.36977826091E+02  0.18905140055E+03  0.17195643643E+03 0.  0.
        -24    2    5    5    0    0  0.30504197174E+02 -0.17395307657E+02 -0.41484877232E+02  0.97816853124E+02  0.81326741866E+02 0.  0.
          2    1    4    4  502    0 -0.28236454686E+02  0.69597292475E+02  0.64053914745E+02  0.98711622858E+02  0.00000000000E+00 0. -1.
         -1    1    4    4    0  502 -0.33956914158E+02 -0.11620635629E+02  0.74386260945E+02  0.82591930653E+02  0.00000000000E+00 0.  1.
          5    1    3    3  503    0 -0.65681209217E+01 -0.66689516388E+02  0.49718358881E+02  0.83574140847E+02  0.47000000000E+01 0. -1.
         11    1    6    6    0    0 -0.80984077826E+01  0.17217855878E+02 -0.41844555627E+02  0.45967440709E+02  0.00000000000E+00 0. -1.
        -12    1    6    6    0    0  0.38602604957E+02 -0.34613163535E+02  0.35967839538E+00  0.51849412416E+02  0.00000000000E+00 0.  1.
         -5    1    5    5    0  501  0.38257292592E+02  0.26108167199E+02  0.78462703323E+02  0.91234547424E+02  0.47000000000E+01 0.  1.
<mgrwt>
<rscale>  2 0.18591472E+03</rscale>
<asrwt>0</asrwt>
<pdfrwt beam="1">  1        2 0.52235804E-01 0.18591472E+03</pdfrwt>
<pdfrwt beam="2">  1       -2 0.17599441E-01 0.18591472E+03</pdfrwt>
<totfact> 0.24622735E+03</totfact>
</mgrwt>
</event>
<event>
12    1  0.5759937E-002  0.1743793E+03  0.7546771E-02  0.1173356E+00
          2   -1    0    0  503    0  0.00000000000E+00  0.00000000000E+00  0.35390458780E+04  0.35390458780E+04  0.00000000000E+00 0. -1.
         -2   -1    0    0    0  501 -0.00000000000E+00 -0.00000000000E+00 -0.92039216247E+01  0.92039216247E+01  0.00000000000E+00 0.  1.
          6    2    1    2  503    0  0.24795594089E+02  0.37029446802E+00  0.22858893401E+04  0.22931160804E+04  0.18021188875E+03 0.  0.
         24    2    3    3    0    0 -0.15507806838E+02 -0.62084191266E+02  0.15236210770E+04  0.15272179660E+04  0.82937267903E+02 0.  0.
         -6    2    1    2    0  501 -0.24795594089E+02 -0.37029446802E+00  0.12439526163E+04  0.12551337192E+04  0.16531056454E+03 0.  0.
        -24    2    5    5    0    0  0.19989662190E+02  0.33734799487E+01  0.33659040743E+03  0.34664706371E+03  0.80374855803E+02 0.  0.
          2    1    4    4  502    0 -0.44547338083E+02 -0.17954455695E+02  0.93436380675E+03  0.93559743008E+03  0.00000000000E+00 0. -1.
         -1    1    4    4    0  502  0.29039531245E+02 -0.44129735572E+02  0.58925727027E+03  0.59162053591E+03  0.00000000000E+00 0.  1.
          5    1    3    3  503    0  0.40303400928E+02  0.62454485734E+02  0.76226826303E+03  0.76589811446E+03  0.47000000000E+01 0. -1.
         13    1    6    6    0    0  0.13989312702E+02 -0.38290966009E+02  0.17036279432E+03  0.17517243115E+03  0.00000000000E+00 0. -1.
        -14    1    6    6    0    0  0.60003494880E+01  0.41664445958E+02  0.16622761311E+03  0.17147463256E+03  0.00000000000E+00 0.  1.
         -5    1    5    5    0  501 -0.44785256280E+02 -0.37437744167E+01  0.90736220887E+03  0.90848665544E+03  0.47000000000E+01 0.  1.
<mgrwt>
<rscale>  2 0.17437928E+03</rscale>
<asrwt>0</asrwt>
<pdfrwt beam="1">  1        2 0.54446751E+00 0.17437928E+03</pdfrwt>
<pdfrwt beam="2">  1       -2 0.14159908E-02 0.17437928E+03</pdfrwt>
<totfact> 0.12552762E+03</totfact>
</mgrwt>
</event>
<event>
12    1  0.5759937E-002  0.1750534E+03  0.7546771E-02  0.1172678E+00
         -2   -1    0    0    0  501 -0.00000000000E+00  0.00000000000E+00  0.38381116730E+03  0.38381116730E+03  0.00000000000E+00 0.  1.
          2   -1    0    0  503    0  0.00000000000E+00 -0.00000000000E+00 -0.94231034621E+02  0.94231034621E+02  0.00000000000E+00 0. -1.
          6    2    1    2  503    0 -0.17720281125E+02  0.13695846647E+02  0.53145422228E+02  0.18528719388E+03  0.17608328635E+03 0.  0.
         24    2    3    3    0    0 -0.73577685782E+02  0.38157383200E+02  0.31100135417E+02  0.12027564801E+03  0.81420828683E+02 0.  0.
         -6    2    1    2    0  501  0.17720281125E+02 -0.13695846647E+02  0.23643471045E+03  0.29275500804E+03  0.17117984066E+03 0.  0.
        -24    2    5    5    0    0 -0.17186870309E+02 -0.33650416542E+02  0.22919901891E+03  0.25163154378E+03  0.96739363811E+02 0.  0.
          4    1    4    4  502    0 -0.27390491296E+02 -0.24265443280E+02 -0.91102198576E-01  0.36593155789E+02  0.00000000000E+00 0. -1.
         -3    1    4    4    0  502 -0.46187194486E+02  0.62422826480E+02  0.31191237616E+02  0.83682492221E+02  0.00000000000E+00 0.  1.
          5    1    3    3  503    0  0.55857404658E+02 -0.24461536553E+02  0.22045286811E+02  0.65011545869E+02  0.47000000000E+01 0. -1.
         11    1    6    6    0    0 -0.27681826467E+02 -0.64619038754E+02  0.14068771290E+03  0.15727344419E+03  0.00000000000E+00 0. -1.
        -12    1    6    6    0    0  0.10494956158E+02  0.30968622213E+02  0.88511306010E+02  0.94358099589E+02  0.00000000000E+00 0.  1.
         -5    1    5    5    0  501  0.34907151434E+02  0.19954569895E+02  0.72356915394E+01  0.41123464263E+02  0.47000000000E+01 0.  1.
<mgrwt>
<rscale>  2 0.17505339E+03</rscale>
<asrwt>0</asrwt>
<pdfrwt beam="2">  1        2 0.14497083E-01 0.17505339E+03</pdfrwt>
<pdfrwt beam="1">  1       -2 0.59047871E-01 0.17505339E+03</pdfrwt>
<totfact> 0.10955864E+03</totfact>
</mgrwt>
</event>
<event>
12    1  0.5759937E-002  0.1761857E+03  0.7546771E-02  0.1171546E+00
          2   -1    0    0  503    0  0.00000000000E+00  0.00000000000E+00  0.17529054085E+04  0.17529054085E+04  0.00000000000E+00 0.  1.
         -2   -1    0    0    0  501 -0.00000000000E+00 -0.00000000000E+00 -0.17722127976E+02  0.17722127976E+02  0.00000000000E+00 0. -1.
          6    2    1    2  503    0  0.10873137847E+02 -0.25566951468E+02  0.89433640089E+03  0.91161804848E+03  0.17446482231E+03 0.  0.
         24    2    3    3    0    0 -0.38303537217E+01 -0.39274273988E+01  0.87518780741E+03  0.87885800730E+03  0.80047501176E+02 0.  0.
         -6    2    1    2    0  501 -0.10873137847E+02  0.25566951468E+02  0.84084687963E+03  0.85900948799E+03  0.17349908168E+03 0.  0.
        -24    2    5    5    0    0 -0.25088269825E+02  0.79596132005E+02  0.46292981007E+03  0.47695631919E+03  0.78856552368E+02 0.  0.
          2    1    4    4  502    0  0.29169154488E+02  0.23006898613E+02  0.35975892300E+03  0.36167200560E+03  0.00000000000E+00 0. -1.
         -1    1    4    4    0  502 -0.32999508210E+02 -0.26934326012E+02  0.51542888441E+03  0.51718600169E+03  0.00000000000E+00 0.  1.
          5    1    3    3  503    0  0.14703491569E+02 -0.21639524070E+02  0.19148593472E+02  0.32760041182E+02  0.47000000000E+01 0. -1.
         13    1    6    6    0    0 -0.33389808978E+02  0.28591590769E+02  0.86831988342E+02  0.97324984489E+02  0.00000000000E+00 0. -1.
        -14    1    6    6    0    0  0.83015391529E+01  0.51004541236E+02  0.37609782173E+03  0.37963133471E+03  0.00000000000E+00 0.  1.
         -5    1    5    5    0  501  0.14215131978E+02 -0.54029180537E+02  0.37791706956E+03  0.38205316880E+03  0.47000000000E+01 0.  1.
<mgrwt>
<rscale>  2 0.17618568E+03</rscale>
<asrwt>0</asrwt>
<pdfrwt beam="1">  1        2 0.26967762E+00 0.17618568E+03</pdfrwt>
<pdfrwt beam="2">  1       -2 0.27264826E-02 0.17618568E+03</pdfrwt>
<totfact> 0.48678594E+03</totfact>
</mgrwt>
</event>
<event>
12    1  0.5759937E-002  0.3730112E+03  0.7546771E-02  0.1053547E+00
          2   -1    0    0  503    0  0.00000000000E+00  0.00000000000E+00  0.16580394675E+04  0.16580394675E+04  0.00000000000E+00 0.  1.
         -2   -1    0    0    0  501 -0.00000000000E+00 -0.00000000000E+00 -0.10289106064E+03  0.10289106064E+03  0.00000000000E+00 0. -1.
          6    2    1    2  503    0 -0.10840094443E+03 -0.31124720494E+03  0.40085411889E+03  0.54811111870E+03  0.17639780746E+03 0.  0.
         24    2    3    3    0    0  0.70967015933E+01 -0.17575871076E+03  0.23200160255E+03  0.30269290307E+03  0.82805569847E+02 0.  0.
         -6    2    1    2    0  501  0.10840094443E+03  0.31124720494E+03  0.11542942880E+04  0.12128194095E+04  0.17294516281E+03 0.  0.
        -24    2    5    5    0    0  0.10105196784E+03  0.13418398713E+03  0.55898770606E+03  0.59167739104E+03  0.96943472885E+02 0.  0.
          2    1    4    4  502    0  0.29493100230E+02 -0.16338394962E+03  0.18086877486E+03  0.24551511496E+03  0.00000000000E+00 0. -1.
         -1    1    4    4    0  502 -0.22396398637E+02 -0.12374761147E+02  0.51132827686E+02  0.57177788104E+02  0.00000000000E+00 0.  1.
          5    1    3    3  503    0 -0.11549764603E+03 -0.13548849417E+03  0.16885251634E+03  0.24541821563E+03  0.47000000000E+01 0. -1.
         11    1    6    6    0    0  0.11532883324E+03  0.87683370417E+02  0.43489304830E+03  0.45838965595E+03  0.00000000000E+00 0. -1.
        -12    1    6    6    0    0 -0.14276865398E+02  0.46500616716E+02  0.12409465777E+03  0.13328773509E+03  0.00000000000E+00 0.  1.
         -5    1    5    5    0  501  0.73489765947E+01  0.17706321780E+03  0.59530658194E+03  0.62114201843E+03  0.47000000000E+01 0.  1.
<mgrwt>
<rscale>  2 0.37301124E+03</rscale>
<asrwt>0</asrwt>
<pdfrwt beam="1">  1        2 0.25508298E+00 0.37301124E+03</pdfrwt>
<pdfrwt beam="2">  1       -2 0.15829395E-01 0.37301124E+03</pdfrwt>
<totfact> 0.34810187E+02</totfact>
</mgrwt>
</event>
<event>
12    1  0.5759937E-002  0.2115290E+03  0.7546771E-02  0.1140361E+00
          1   -1    0    0  503    0  0.00000000000E+00  0.00000000000E+00  0.18031623899E+03  0.18031623899E+03  0.00000000000E+00 0. -1.
         -1   -1    0    0    0  501 -0.00000000000E+00 -0.00000000000E+00 -0.25166420647E+03  0.25166420647E+03  0.00000000000E+00 0.  1.
          6    2    1    2  503    0 -0.24261699376E+02  0.11804968183E+03 -0.61337337863E+02  0.22102037219E+03  0.17482384983E+03 0.  0.
         24    2    3    3    0    0 -0.66771793553E+02  0.76078069555E+02 -0.87021386917E+02  0.15582463061E+03  0.80388112566E+02 0.  0.
         -6    2    1    2    0  501  0.24261699376E+02 -0.11804968183E+03 -0.10010629620E+02  0.21096007327E+03  0.17285711547E+03 0.  0.
        -24    2    5    5    0    0  0.24879593202E+02 -0.65884789650E+02  0.63093224745E+02  0.12102775820E+03  0.75545771437E+02 0.  0.
          2    1    4    4  502    0  0.40132344801E+01  0.47258732552E+02 -0.55885970655E+02  0.73298946578E+02  0.00000000000E+00 0. -1.
         -1    1    4    4    0  502 -0.70785028033E+02  0.28819337003E+02 -0.31135416262E+02  0.82525684030E+02  0.00000000000E+00 0.  1.
          5    1    3    3  503    0  0.42510094177E+02  0.41971612279E+02  0.25684049054E+02  0.65195741579E+02  0.47000000000E+01 0. -1.
         11    1    6    6    0    0  0.47332813911E+02 -0.23693333363E+02  0.46437985182E+02  0.70414883273E+02  0.00000000000E+00 0. -1.
        -12    1    6    6    0    0 -0.22453220709E+02 -0.42191456287E+02  0.16655239563E+02  0.50612874931E+02  0.00000000000E+00 0.  1.
         -5    1    5    5    0  501 -0.61789382563E+00 -0.52164892184E+02 -0.73103854366E+02  0.89932315062E+02  0.47000000000E+01 0.  1.
<mgrwt>
<rscale>  2 0.21152903E+03</rscale>
<asrwt>0</asrwt>
<pdfrwt beam="1">  1        1 0.27740960E-01 0.21152903E+03</pdfrwt>
<pdfrwt beam="2">  1       -1 0.38717570E-01 0.21152903E+03</pdfrwt>
<totfact> 0.10919950E+03</totfact>
</mgrwt>
</event>
<event>
12    1  0.5759937E-002  0.3129908E+03  0.7546771E-02  0.1078921E+00
         -2   -1    0    0    0  501 -0.00000000000E+00  0.00000000000E+00  0.62436786769E+03  0.62436786769E+03  0.00000000000E+00 0. -1.
          2   -1    0    0  503    0  0.00000000000E+00 -0.00000000000E+00 -0.21363130181E+03  0.21363130181E+03  0.00000000000E+00 0.  1.
          6    2    1    2  503    0  0.16621835402E+03 -0.20202920368E+03  0.42090470625E+03  0.52405155218E+03  0.17036700753E+03 0.  0.
         24    2    3    3    0    0  0.12813013915E+03 -0.87277137597E+02  0.15358578319E+03  0.23062311899E+03  0.74590876840E+02 0.  0.
         -6    2    1    2    0  501 -0.16621835402E+03  0.20202920368E+03 -0.10168140367E+02  0.31394761732E+03  0.17324945884E+03 0.  0.
        -24    2    5    5    0    0 -0.51855806515E+02  0.53685306641E+02  0.44791058347E+02  0.11868546640E+03  0.80677532233E+02 0.  0.
          4    1    4    4  502    0  0.11532520353E+02  0.13613354233E+02  0.15090214752E+02  0.23367435042E+02  0.00000000000E+00 0. -1.
         -3    1    4    4    0  502  0.11659761880E+03 -0.10089049183E+03  0.13849556843E+03  0.20725568394E+03  0.00000000000E+00 0.  1.
          5    1    3    3  503    0  0.38088214863E+02 -0.11475206608E+03  0.26731892306E+03  0.29342843320E+03  0.47000000000E+01 0. -1.
         11    1    6    6    0    0 -0.63689972495E+02  0.33200642649E+02  0.45030238718E+01  0.71965078286E+02  0.00000000000E+00 0. -1.
        -12    1    6    6    0    0  0.11834165979E+02  0.20484663992E+02  0.40288034475E+02  0.46720388110E+02  0.00000000000E+00 0.  1.
         -5    1    5    5    0  501 -0.11436254750E+03  0.14834389704E+03 -0.54959198714E+02  0.19526215092E+03  0.47000000000E+01 0.  1.
<mgrwt>
<rscale>  2 0.31299079E+03</rscale>
<asrwt>0</asrwt>
<pdfrwt beam="2">  1        2 0.32866354E-01 0.31299079E+03</pdfrwt>
<pdfrwt beam="1">  1       -2 0.96056594E-01 0.31299079E+03</pdfrwt>
<totfact> 0.14986401E+02</totfact>
</mgrwt>
</event>
<event>
12    1  0.5759937E-002  0.3380490E+03  0.7546771E-02  0.1067630E+00
          2   -1    0    0  503    0  0.00000000000E+00  0.00000000000E+00  0.12329262148E+03  0.12329262148E+03  0.00000000000E+00 0.  1.
         -2   -1    0    0    0  501 -0.00000000000E+00 -0.00000000000E+00 -0.92823002077E+03  0.92823002077E+03  0.00000000000E+00 0. -1.
          6    2    1    2  503    0  0.13239587538E+03 -0.25769560452E+03 -0.38239902211E+03  0.51039781097E+03  0.17418731561E+03 0.  0.
         24    2    3    3    0    0  0.34502813536E+02 -0.34603629407E+02 -0.89559906752E+02  0.12943860265E+03  0.79658770066E+02 0.  0.
         -6    2    1    2    0  501 -0.13239587538E+03  0.25769560452E+03 -0.42253837718E+03  0.54112483128E+03  0.17418872074E+03 0.  0.
        -24    2    5    5    0    0 -0.13322596587E+03  0.13733770631E+03 -0.32737095496E+03  0.38761378619E+03  0.80385953626E+02 0.  0.
          2    1    4    4  502    0 -0.10416101412E+02 -0.36342411983E+02 -0.11772038444E+02  0.39596047360E+02  0.00000000000E+00 0. -1.
         -1    1    4    4    0  502  0.44918914948E+02  0.17387825763E+01 -0.77787868309E+02  0.89842555290E+02  0.00000000000E+00 0.  1.
          5    1    3    3  503    0  0.97893061849E+02 -0.22309197512E+03 -0.29283911536E+03  0.38095920832E+03  0.47000000000E+01 0. -1.
         13    1    6    6    0    0  0.87862416236E+01  0.13919798955E+02 -0.48426342384E+02  0.51147526641E+02  0.00000000000E+00 0. -1.
        -14    1    6    6    0    0 -0.14201220749E+03  0.12341790735E+03 -0.27894461258E+03  0.33646625955E+03  0.00000000000E+00 0.  1.
         -5    1    5    5    0  501  0.83009048147E+00  0.12035789821E+03 -0.95167422220E+02  0.15351104509E+03  0.47000000000E+01 0.  1.
<mgrwt>
<rscale>  2 0.33804905E+03</rscale>
<asrwt>0</asrwt>
<pdfrwt beam="1">  1        2 0.18968096E-01 0.33804905E+03</pdfrwt>
<pdfrwt beam="2">  1       -2 0.14280462E+00 0.33804905E+03</pdfrwt>
<totfact> 0.10624468E+02</totfact>
</mgrwt>
</event>
<event>
12    1  0.5759937E-002  0.2334174E+03  0.7546771E-02  0.1124257E+00
          1   -1    0    0  503    0  0.00000000000E+00  0.00000000000E+00  0.37050654949E+03  0.37050654949E+03  0.00000000000E+00 0. -1.
         -1   -1    0    0    0  501 -0.00000000000E+00 -0.00000000000E+00 -0.14974186374E+03  0.14974186374E+03  0.00000000000E+00 0.  1.
          6    2    1    2  503    0  0.71816578132E+02 -0.13746649548E+03  0.14602444357E+03  0.27686260893E+03  0.17684769670E+03 0.  0.
         24    2    3    3    0    0  0.66058914864E+02 -0.12274233998E+03  0.35919512754E+02  0.16552915829E+03  0.81732665386E+02 0.  0.
         -6    2    1    2    0  501 -0.71816578132E+02  0.13746649548E+03  0.74740242178E+02  0.24338580431E+03  0.17203455369E+03 0.  0.
        -24    2    5    5    0    0  0.26978184640E+02  0.77845273831E+02  0.44575754955E+02  0.12402466528E+03  0.81285980111E+02 0.  0.
          4    1    4    4  502    0 -0.18039065375E+02 -0.11142994034E+02  0.98507074572E+01  0.23379705581E+02  0.00000000000E+00 0. -1.
         -3    1    4    4    0  502  0.84097980239E+02 -0.11159934594E+03  0.26068805296E+02  0.14214945271E+03  0.00000000000E+00 0.  1.
          5    1    3    3  503    0  0.57576632677E+01 -0.14724155500E+02  0.11010493081E+03  0.11133345064E+03  0.47000000000E+01 0. -1.
         11    1    6    6    0    0  0.75516608862E+01  0.14224326366E+02  0.54443953218E+02  0.56775902324E+02  0.00000000000E+00 0. -1.
        -12    1    6    6    0    0  0.19426523754E+02  0.63620947465E+02 -0.98681982630E+01  0.67248762951E+02  0.00000000000E+00 0.  1.
         -5    1    5    5    0  501 -0.98794762772E+02  0.59621221647E+02  0.30164487223E+02  0.11936113903E+03  0.47000000000E+01 0.  1.
<mgrwt>
<rscale>  2 0.23341741E+03</rscale>
<asrwt>0</asrwt>
<pdfrwt beam="1">  1        1 0.57001007E-01 0.23341741E+03</pdfrwt>
<pdfrwt beam="2">  1       -1 0.23037210E-01 0.23341741E+03</pdfrwt>
<totfact> 0.10678034E+03</totfact>
</mgrwt>
</event>
<event>
12    1  0.5759937E-002  0.2649074E+03  0.7546771E-02  0.1104230E+00
         -2   -1    0    0    0  501 -0.00000000000E+00  0.00000000000E+00  0.22699582170E+03  0.22699582170E+03  0.00000000000E+00 0.  1.
          2   -1    0    0  503    0  0.00000000000E+00 -0.00000000000E+00 -0.32430121799E+03  0.32430121799E+03  0.00000000000E+00 0. -1.
          6    2    1    2  503    0  0.81557077834E+02 -0.18249292330E+03  0.10713767245E+02  0.26627288203E+03  0.17558826525E+03 0.  0.
         24    2    3    3    0    0  0.28969275778E+02 -0.18580348023E+03 -0.19643944507E+02  0.20528011709E+03  0.79949294616E+02 0.  0.
         -6    2    1    2    0  501 -0.81557077834E+02  0.18249292330E+03 -0.10801916354E+03  0.28502415766E+03  0.17209127449E+03 0.  0.
        -24    2    5    5    0    0 -0.45377119511E+02  0.30732378090E+02 -0.81106752858E+02  0.12663659402E+03  0.80342762876E+02 0.  0.
          4    1    4    4  502    0  0.30274558165E+01 -0.36686140455E+02 -0.37890311441E+02  0.52827209763E+02  0.00000000000E+00 0. -1.
         -3    1    4    4    0  502  0.25941819961E+02 -0.14911733978E+03  0.18246366934E+02  0.15245290732E+03  0.00000000000E+00 0.  1.
          5    1    3    3  503    0  0.52587802056E+02  0.33105569315E+01  0.30357711752E+02  0.60992764941E+02  0.47000000000E+01 0. -1.
         13    1    6    6    0    0 -0.68817924587E+01  0.47798254443E+02 -0.66253534318E+02  0.81985138927E+02  0.00000000000E+00 0. -1.
        -14    1    6    6    0    0 -0.38495327052E+02 -0.17065876353E+02 -0.14853218540E+02  0.44651455089E+02  0.00000000000E+00 0.  1.
         -5    1    5    5    0  501 -0.36179958323E+02  0.15176054521E+03 -0.26912410678E+02  0.15838756364E+03  0.47000000000E+01 0.  1.
<mgrwt>
<rscale>  2 0.26490737E+03</rscale>
<asrwt>0</asrwt>
<pdfrwt beam="2">  1        2 0.49892495E-01 0.26490737E+03</pdfrwt>
<pdfrwt beam="1">  1       -2 0.34922434E-01 0.26490737E+03</pdfrwt>
<totfact> 0.77660922E+02</totfact>
</mgrwt>
</event>
<event>
12    1  0.5759937E-002  0.2207371E+03  0.7546771E-02  0.1133335E+00
         -2   -1    0    0    0  501 -0.00000000000E+00  0.00000000000E+00  0.11021477229E+02  0.11021477229E+02  0.00000000000E+00 0.  1.
          2   -1    0    0  503    0  0.00000000000E+00 -0.00000000000E+00 -0.46932171230E+04  0.46932171230E+04  0.00000000000E+00 0. -1.
          6    2    1    2  503    0  0.90251520028E+02 -0.10237771411E+03 -0.17674194475E+04  0.17810618874E+04  0.17257870715E+03 0.  0.
         24    2    3    3    0    0  0.73464776040E+02  0.13564987527E+02 -0.80318383090E+03  0.80972419167E+03  0.70483460149E+02 0.  0.
         -6    2    1    2    0  501 -0.90251520028E+02  0.10237771411E+03 -0.29147761983E+04  0.29231767129E+04  0.17439975676E+03 0.  0.
        -24    2    5    5    0    0 -0.98531829721E+02  0.11236573505E+03 -0.19588990364E+04  0.19671999544E+04  0.10127016257E+03 0.  0.
          4    1    4    4  502    0  0.57348362513E+02 -0.11036613085E+02 -0.69996588863E+03  0.70239795470E+03  0.00000000000E+00 0. -1.
         -3    1    4    4    0  502  0.16116413527E+02  0.24601600611E+02 -0.10321794227E+03  0.10732623698E+03  0.00000000000E+00 0.  1.
          5    1    3    3  503    0  0.16786743989E+02 -0.11594270164E+03 -0.96423561655E+03  0.97133769569E+03  0.47000000000E+01 0. -1.
         13    1    6    6    0    0 -0.61767248988E+01 -0.18975816244E+02 -0.21010706733E+03  0.21105263153E+03  0.00000000000E+00 0. -1.
        -14    1    6    6    0    0 -0.92355104822E+02  0.13134155129E+03 -0.17487919691E+04  0.17561473229E+04  0.00000000000E+00 0.  1.
         -5    1    5    5    0  501  0.82803096928E+01 -0.99880209349E+01 -0.95587716191E+03  0.95597675848E+03  0.47000000000E+01 0.  1.
<mgrwt>
<rscale>  2 0.22073706E+03</rscale>
<asrwt>0</asrwt>
<pdfrwt beam="2">  1        2 0.72203529E+00 0.22073706E+03</pdfrwt>
<pdfrwt beam="1">  1       -2 0.16956074E-02 0.22073706E+03</pdfrwt>
<totfact> 0.11159283E+02</totfact>
</mgrwt>
</event>
<event>
12    1  0.5759937E-002  0.1752828E+03  0.7546771E-02  0.1172448E+00
         -2   -1    0    0    0  501 -0.00000000000E+00  0.00000000000E+00  0.24872378587E+03  0.24872378587E+03  0.00000000000E+00 0. -1.
          2   -1    0    0  503    0  0.00000000000E+00 -0.00000000000E+00 -0.15604264736E+03  0.15604264736E+03  0.00000000000E+00 0.  1.
          6    2    1    2  503    0 -0.12930753076E+01 -0.32450655605E+02 -0.45878049025E+02  0.18193759719E+03  0.17303692321E+03 0.  0.
         24    2    3    3    0    0  0.36415956139E+02 -0.38386291426E+02  0.26422314935E+02  0.10004354701E+03  0.80690416665E+02 0.  0.
         -6    2    1    2    0  501  0.12930753076E+01  0.32450655605E+02  0.13855918754E+03  0.22282883604E+03  0.17146231256E+03 0.  0.
        -24    2    5    5    0    0  0.45946932040E+02  0.28389171040E+02  0.14684971526E+03  0.17698905607E+03  0.82723766240E+02 0.  0.
          2    1    4    4  502    0  0.10966894234E+02 -0.57798145199E+01  0.50624930146E+02  0.52120654038E+02  0.00000000000E+00 0. -1.
         -1    1    4    4    0  502  0.25449061905E+02 -0.32606476906E+02 -0.24202615211E+02  0.47922892975E+02  0.00000000000E+00 0.  1.
          5    1    3    3  503    0 -0.37709031447E+02  0.59356358206E+01 -0.72300363960E+02  0.81894050175E+02  0.47000000000E+01 0. -1.
         13    1    6    6    0    0  0.16062219515E+02 -0.28566950592E+02  0.34887577275E+02  0.47866570903E+02  0.00000000000E+00 0. -1.
        -14    1    6    6    0    0  0.29884712525E+02  0.56956121631E+02  0.11196213798E+03  0.12912248517E+03  0.00000000000E+00 0.  1.
         -5    1    5    5    0  501 -0.44653856733E+02  0.40614845655E+01 -0.82905277232E+01  0.45839779972E+02  0.47000000000E+01 0.  1.
<mgrwt>
<rscale>  2 0.17528283E+03</rscale>
<asrwt>0</asrwt>
<pdfrwt beam="2">  1        2 0.24006561E-01 0.17528283E+03</pdfrwt>
<pdfrwt beam="1">  1       -2 0.38265198E-01 0.17528283E+03</pdfrwt>
<totfact> 0.14415369E+03</totfact>
</mgrwt>
</event>
<event>
12    1  0.5759937E-002  0.1863492E+03  0.7546771E-02  0.1161796E+00
          2   -1    0    0  503    0  0.00000000000E+00  0.00000000000E+00  0.14852292062E+03  0.14852292062E+03  0.00000000000E+00 0. -1.
         -2   -1    0    0    0  501 -0.00000000000E+00 -0.00000000000E+00 -0.33982751681E+03  0.33982751681E+03  0.00000000000E+00 0.  1.
          6    2    1    2  503    0  0.45747838351E+02  0.28386215123E+02  0.41952661105E+02  0.18746574449E+03  0.17459879055E+03 0.  0.
         24    2    3    3    0    0  0.37209639626E+02  0.86655022350E+02  0.35146277856E+02  0.12799666357E+03  0.79083720563E+02 0.  0.
         -6    2    1    2    0  501 -0.45747838351E+02 -0.28386215123E+02 -0.23325725729E+03  0.30088469293E+03  0.18227454138E+03 0.  0.
        -24    2    5    5    0    0  0.31386061717E+02  0.15308582321E+02 -0.12260834221E+03  0.15902509236E+03  0.95061752869E+02 0.  0.
          4    1    4    4  502    0 -0.15792668813E+02  0.61072609532E+02  0.26864211234E+02  0.68563531622E+02  0.00000000000E+00 0. -1.
         -3    1    4    4    0  502  0.53002308440E+02  0.25582412818E+02  0.82820666225E+01  0.59433131947E+02  0.00000000000E+00 0.  1.
          5    1    3    3  503    0  0.85381987247E+01 -0.58268807227E+02  0.68063832487E+01  0.59469080925E+02  0.47000000000E+01 0. -1.
         11    1    6    6    0    0 -0.23635589505E+02  0.13886128735E+02 -0.32718698756E+01  0.27607440935E+02  0.00000000000E+00 0. -1.
        -12    1    6    6    0    0  0.55021651222E+02  0.14224535864E+01 -0.11933647233E+03  0.13141765143E+03  0.00000000000E+00 0.  1.
         -5    1    5    5    0  501 -0.77133900068E+02 -0.43694797444E+02 -0.11064891509E+03  0.14185960057E+03  0.47000000000E+01 0.  1.
<mgrwt>
<rscale>  2 0.18634918E+03</rscale>
<asrwt>0</asrwt>
<pdfrwt beam="1">  1        2 0.22849680E-01 0.18634918E+03</pdfrwt>
<pdfrwt beam="2">  1       -2 0.52281156E-01 0.18634918E+03</pdfrwt>
<totfact> 0.83154838E+02</totfact>
</mgrwt>
</event>
<event>
12    1  0.5759937E-002  0.2070751E+03  0.7546771E-02  0.1143903E+00
         -1   -1    0    0    0  501 -0.00000000000E+00  0.00000000000E+00  0.89755880695E+02  0.89755880695E+02  0.00000000000E+00 0. -1.
          1   -1    0    0  503    0  0.00000000000E+00 -0.00000000000E+00 -0.48317462132E+03  0.48317462132E+03  0.00000000000E+00 0.  1.
          6    2    1    2  503    0  0.75942521016E+02  0.84935610369E+02 -0.16624596966E+03  0.26548019381E+03  0.17280244927E+03 0.  0.
         24    2    3    3    0    0  0.32406072009E+02 -0.17322809479E+02 -0.37375001732E+02  0.95239120051E+02  0.79519595084E+02 0.  0.
         -6    2    1    2    0  501 -0.75942521016E+02 -0.84935610369E+02 -0.22717277097E+03  0.30745030820E+03  0.17302283010E+03 0.  0.
        -24    2    5    5    0    0 -0.40741353402E+01  0.58835129798E+01 -0.14414381969E+03  0.16487024376E+03  0.79709110010E+02 0.  0.
          2    1    4    4  502    0  0.34938231736E+02 -0.45163021210E+02 -0.13980032154E+02  0.58786221351E+02  0.00000000000E+00 0. -1.
         -1    1    4    4    0  502 -0.25321597272E+01  0.27840211731E+02 -0.23394969578E+02  0.36452898700E+02  0.00000000000E+00 0.  1.
          5    1    3    3  503    0  0.43536449007E+02  0.10225841985E+03 -0.12887096792E+03  0.17024107376E+03  0.47000000000E+01 0. -1.
         11    1    6    6    0    0 -0.19229538963E+02 -0.79935962553E+01 -0.16365072312E+01  0.20889013996E+02  0.00000000000E+00 0. -1.
        -12    1    6    6    0    0  0.15155403622E+02  0.13877109235E+02 -0.14250731246E+03  0.14398122977E+03  0.00000000000E+00 0.  1.
         -5    1    5    5    0  501 -0.71868385676E+02 -0.90819123349E+02 -0.83028951274E+02  0.14258006444E+03  0.47000000000E+01 0.  1.
<mgrwt>
<rscale>  2 0.20707511E+03</rscale>
<asrwt>0</asrwt>
<pdfrwt beam="2">  1        1 0.74334555E-01 0.20707511E+03</pdfrwt>
<pdfrwt beam="1">  1       -1 0.13808597E-01 0.20707511E+03</pdfrwt>
<totfact> 0.17240940E+03</totfact>
</mgrwt>
</event>
<event>
12    1  0.5759937E-002  0.1732699E+03  0.7546771E-02  0.1174480E+00
         -1   -1    0    0    0  501 -0.00000000000E+00  0.00000000000E+00  0.45124834350E+02  0.45124834350E+02  0.00000000000E+00 0.  1.
          1   -1    0    0  503    0  0.00000000000E+00 -0.00000000000E+00 -0.76725292562E+03  0.76725292562E+03  0.00000000000E+00 0. -1.
          6    2    1    2  503    0  0.11663961429E+01  0.23561271828E+02 -0.21301429119E+03  0.27458707366E+03  0.17165802854E+03 0.  0.
         24    2    3    3    0    0 -0.25771970232E+02  0.71617883038E+02 -0.17657708151E+03  0.20836869469E+03  0.80279085654E+02 0.  0.
         -6    2    1    2    0  501 -0.11663961429E+01 -0.23561271828E+02 -0.50911380008E+03  0.53779068631E+03  0.17165508102E+03 0.  0.
        -24    2    5    5    0    0  0.28907207579E+02  0.38582237082E+02 -0.38569367965E+03  0.39629562114E+03  0.77242405091E+02 0.  0.
          2    1    4    4  502    0 -0.46587255570E+02  0.12936848338E+02 -0.78715181605E+02  0.92378646025E+02  0.00000000000E+00 0. -1.
         -1    1    4    4    0  502  0.20815285337E+02  0.58681034700E+02 -0.97861899902E+02  0.11599004867E+03  0.00000000000E+00 0.  1.
          5    1    3    3  503    0  0.26938366375E+02 -0.48056611210E+02 -0.36437209686E+02  0.66218378972E+02  0.47000000000E+01 0. -1.
         13    1    6    6    0    0 -0.11354208948E+02 -0.12505800306E+02 -0.17441012015E+03  0.17522614848E+03  0.00000000000E+00 0. -1.
        -14    1    6    6    0    0  0.40261416527E+02  0.51088037388E+02 -0.21128355950E+03  0.22106947266E+03  0.00000000000E+00 0.  1.
         -5    1    5    5    0  501 -0.30073603722E+02 -0.62143508910E+02 -0.12342012043E+03  0.14149506517E+03  0.47000000000E+01 0.  1.
<mgrwt>
<rscale>  2 0.17326992E+03</rscale>
<asrwt>0</asrwt>
<pdfrwt beam="2">  1        1 0.11803891E+00 0.17326992E+03</pdfrwt>
<pdfrwt beam="1">  1       -1 0.69422824E-02 0.17326992E+03</pdfrwt>
<totfact> 0.26005520E+03</totfact>
</mgrwt>
</event>
<event>
12    1  0.5759937E-002  0.2077368E+03  0.7546771E-02  0.1143371E+00
          2   -1    0    0  503    0  0.00000000000E+00  0.00000000000E+00  0.57335075480E+02  0.57335075480E+02  0.00000000000E+00 0.  1.
         -2   -1    0    0    0  501 -0.00000000000E+00 -0.00000000000E+00 -0.77318392313E+03  0.77318392313E+03  0.00000000000E+00 0. -1.
          6    2    1    2  503    0 -0.49861034398E+02  0.99210095681E+02 -0.29677941315E+03  0.36437569228E+03  0.17989680158E+03 0.  0.
         24    2    3    3    0    0 -0.72193612859E+02  0.21450712642E+02 -0.24276929673E+03  0.26698755960E+03  0.81690726132E+02 0.  0.
         -6    2    1    2    0  501  0.49861034398E+02 -0.99210095681E+02 -0.41906943450E+03  0.46614330633E+03  0.17129397324E+03 0.  0.
        -24    2    5    5    0    0  0.96858925501E+02 -0.46048501550E+02 -0.24733504600E+03  0.28026768380E+03  0.76637025372E+02 0.  0.
          2    1    4    4  502    0 -0.58508040992E+02  0.48659120448E+02 -0.20369641471E+03  0.21744684461E+03  0.00000000000E+00 0. -1.
         -1    1    4    4    0  502 -0.13685571866E+02 -0.27208407806E+02 -0.39072882015E+02  0.49540714989E+02  0.00000000000E+00 0.  1.
          5    1    3    3  503    0  0.22332578460E+02  0.77759383039E+02 -0.54010116429E+02  0.97388132686E+02  0.47000000000E+01 0. -1.
         11    1    6    6    0    0  0.80620974872E+02 -0.50707908897E+02 -0.24543647056E+03  0.26326810421E+03  0.00000000000E+00 0. -1.
        -12    1    6    6    0    0  0.16237950629E+02  0.46594073463E+01 -0.18985754401E+01  0.16999579588E+02  0.00000000000E+00 0.  1.
         -5    1    5    5    0  501 -0.46997891103E+02 -0.53161594131E+02 -0.17173438850E+03  0.18587562253E+03  0.47000000000E+01 0.  1.
<mgrwt>
<rscale>  2 0.20773680E+03</rscale>
<asrwt>0</asrwt>
<pdfrwt beam="1">  1        2 0.88207813E-02 0.20773680E+03</pdfrwt>
<pdfrwt beam="2">  1       -2 0.11895137E+00 0.20773680E+03</pdfrwt>
<totfact> 0.42419968E+02</totfact>
</mgrwt>
</event>
<event>
12    1  0.5759937E-002  0.1877347E+03  0.7546771E-02  0.1160520E+00
          1   -1    0    0  503    0  0.00000000000E+00  0.00000000000E+00  0.85804752258E+02  0.85804752258E+02  0.00000000000E+00 0. -1.
         -1   -1    0    0    0  501 -0.00000000000E+00 -0.00000000000E+00 -0.68634312662E+03  0.68634312662E+03  0.00000000000E+00 0.  1.
          6    2    1    2  503    0  0.50669833336E+01 -0.73605525116E+02 -0.54510226296E+02  0.19436306464E+03  0.17135398589E+03 0.  0.
         24    2    3    3    0    0  0.51625159203E+02  0.11166926356E+01 -0.44408962816E+02  0.10562074616E+03  0.80729065249E+02 0.  0.
         -6    2    1    2    0  501 -0.50669833336E+01  0.73605525116E+02 -0.54602814807E+03  0.57778481423E+03  0.17391119984E+03 0.  0.
        -24    2    5    5    0    0 -0.67769229700E+02  0.46293512279E+02 -0.26921337869E+03  0.29260763371E+03  0.80047649988E+02 0.  0.
          2    1    4    4  502    0  0.28191534436E+02 -0.26563646111E+02  0.10209453058E+02  0.40057743824E+02  0.00000000000E+00 0. -1.
         -1    1    4    4    0  502  0.23433624767E+02  0.27680338746E+02 -0.54618415874E+02  0.65563002337E+02  0.00000000000E+00 0.  1.
          5    1    3    3  503    0 -0.46558175869E+02 -0.74722217752E+02 -0.10101263480E+02  0.88742318484E+02  0.47000000000E+01 0. -1.
         11    1    6    6    0    0  0.44885630475E+01  0.38421439482E+02 -0.62659461823E+02  0.73638049716E+02  0.00000000000E+00 0. -1.
        -12    1    6    6    0    0 -0.72257792747E+02  0.78720727969E+01 -0.20655391687E+03  0.21896958400E+03  0.00000000000E+00 0.  1.
         -5    1    5    5    0  501  0.62702246366E+02  0.27312012838E+02 -0.27681476938E+03  0.28517718052E+03  0.47000000000E+01 0.  1.
<mgrwt>
<rscale>  2 0.18773473E+03</rscale>
<asrwt>0</asrwt>
<pdfrwt beam="1">  1        1 0.13200731E-01 0.18773473E+03</pdfrwt>
<pdfrwt beam="2">  1       -1 0.10559125E+00 0.18773473E+03</pdfrwt>
<totfact> 0.39500676E+02</totfact>
</mgrwt>
</event>
<event>
12    1  0.5759937E-002  0.1802993E+03  0.7546771E-02  0.1167514E+00
          2   -1    0    0  503    0  0.00000000000E+00  0.00000000000E+00  0.12140024802E+04  0.12140024802E+04  0.00000000000E+00 0. -1.
         -2   -1    0    0    0  501 -0.00000000000E+00 -0.00000000000E+00 -0.27297435019E+02  0.27297435019E+02  0.00000000000E+00 0.  1.
          6    2    1    2  503    0  0.18511115701E+02  0.41599438771E+02  0.67339468580E+03  0.69668342521E+03  0.17272584459E+03 0.  0.
         24    2    3    3    0    0  0.21996194584E+01  0.47353012545E+02  0.17109201529E+03  0.19406107064E+03  0.78358632683E+02 0.  0.
         -6    2    1    2    0  501 -0.18511115701E+02 -0.41599438771E+02  0.51331035941E+03  0.54461649004E+03  0.17619994731E+03 0.  0.
        -24    2    5    5    0    0 -0.44163323506E+02  0.19284627387E+02  0.16589288865E+03  0.19094164746E+03  0.81338590084E+02 0.  0.
          4    1    4    4  502    0  0.19607203709E+02  0.56241170313E+02  0.16180953296E+03  0.17242342251E+03  0.00000000000E+00 0. -1.
         -3    1    4    4    0  502 -0.17407584251E+02 -0.88881577685E+01  0.92824823394E+01  0.21637648124E+02  0.00000000000E+00 0.  1.
          5    1    3    3  503    0  0.16311496242E+02 -0.57535737736E+01  0.50230267051E+03  0.50262235457E+03  0.47000000000E+01 0. -1.
         13    1    6    6    0    0 -0.40728873896E+02 -0.16624193093E+02  0.13942493219E+03  0.14620026224E+03  0.00000000000E+00 0. -1.
        -14    1    6    6    0    0 -0.34344496098E+01  0.35908820480E+02  0.26467956459E+02  0.44741385221E+02  0.00000000000E+00 0.  1.
         -5    1    5    5    0  501  0.25652207805E+02 -0.60884066158E+02  0.34741747077E+03  0.35367484257E+03  0.47000000000E+01 0.  1.
<mgrwt>
<rscale>  2 0.18029932E+03</rscale>
<asrwt>0</asrwt>
<pdfrwt beam="1">  1        2 0.18676957E+00 0.18029932E+03</pdfrwt>
<pdfrwt beam="2">  1       -2 0.41996063E-02 0.18029932E+03</pdfrwt>
<totfact> 0.49545250E+03</totfact>
</mgrwt>
</event>
<event>
12    1  0.5759937E-002  0.1820500E+03  0.7546771E-02  0.1165834E+00
          2   -1    0    0  503    0  0.00000000000E+00  0.00000000000E+00  0.41811429850E+03  0.41811429850E+03  0.00000000000E+00 0.  1.
         -2   -1    0    0    0  501 -0.00000000000E+00 -0.00000000000E+00 -0.80171821536E+02  0.80171821536E+02  0.00000000000E+00 0. -1.
          6    2    1    2  503    0 -0.52629126050E+02 -0.20843059855E+02  0.19559753847E+03  0.26731542466E+03  0.17319030328E+03 0.  0.
         24    2    3    3    0    0 -0.83762569842E+02  0.30842306095E+02  0.14575280046E+03  0.18891098420E+03  0.80474003001E+02 0.  0.
         -6    2    1    2    0  501  0.52629126050E+02  0.20843059855E+02  0.14234493850E+03  0.23097069538E+03  0.17286157050E+03 0.  0.
        -24    2    5    5    0    0  0.71570168411E+02  0.34412342742E+02  0.34874332729E+02  0.12090294521E+03  0.84230663879E+02 0.  0.
          2    1    4    4  502    0 -0.75259458398E+02  0.21346785829E+01  0.54701663214E+02  0.93063499233E+02  0.00000000000E+00 0. -1.
         -1    1    4    4    0  502 -0.85031114432E+01  0.28707627512E+02  0.91051137241E+02  0.95847484967E+02  0.00000000000E+00 0.  1.
          5    1    3    3  503    0  0.31133443791E+02 -0.51685365950E+02  0.49844738012E+02  0.78404440456E+02  0.47000000000E+01 0. -1.
         13    1    6    6    0    0  0.56981167126E+02  0.14300829488E+01  0.55332889037E+02  0.79439455899E+02  0.00000000000E+00 0. -1.
        -14    1    6    6    0    0  0.14589001285E+02  0.32982259793E+02 -0.20458556308E+02  0.41463489310E+02  0.00000000000E+00 0.  1.
         -5    1    5    5    0  501 -0.18941042360E+02 -0.13569282887E+02  0.10747060577E+03  0.11006775018E+03  0.47000000000E+01 0.  1.
<mgrwt>
<rscale>  2 0.18205002E+03</rscale>
<asrwt>0</asrwt>
<pdfrwt beam="1">  1        2 0.64325275E-01 0.18205002E+03</pdfrwt>
<pdfrwt beam="2">  1       -2 0.12334127E-01 0.18205002E+03</pdfrwt>
<totfact> 0.35257920E+03</totfact>
</mgrwt>
</event>
<event>
12    1  0.5759937E-002  0.3195458E+03  0.7546771E-02  0.1075859E+00
          1   -1    0    0  503    0  0.00000000000E+00  0.00000000000E+00  0.32616975581E+03  0.32616975581E+03  0.00000000000E+00 0.  1.
         -1   -1    0    0    0  501 -0.00000000000E+00 -0.00000000000E+00 -0.35689270263E+03  0.35689270263E+03  0.00000000000E+00 0. -1.
          6    2    1    2  503    0  0.12734486764E+03  0.23673627216E+03 -0.13504427080E+03  0.34663702155E+03  0.17221931298E+03 0.  0.
         24    2    3    3    0    0  0.42364373395E+02  0.97809933236E+02  0.20851023252E+01  0.13368452210E+03  0.80657799523E+02 0.  0.
         -6    2    1    2    0  501 -0.12734486764E+03 -0.23673627216E+03  0.10432132398E+03  0.33642543690E+03  0.17331577563E+03 0.  0.
        -24    2    5    5    0    0 -0.14018462731E+03 -0.21683277562E+03  0.13109725397E+03  0.30036924423E+03  0.79793549637E+02 0.  0.
          2    1    4    4  502    0  0.52452503559E+02  0.10288737793E+03 -0.11454542260E+02  0.11605293708E+03  0.00000000000E+00 0. -1.
         -1    1    4    4    0  502 -0.10088130163E+02 -0.50774446911E+01  0.13539644585E+02  0.17631585019E+02  0.00000000000E+00 0.  1.
          5    1    3    3  503    0  0.84980494241E+02  0.13892633892E+03 -0.13712937313E+03  0.21295249945E+03  0.47000000000E+01 0. -1.
         13    1    6    6    0    0 -0.73009900000E+02 -0.64015517815E+02  0.18052462001E+02  0.98763978269E+02  0.00000000000E+00 0. -1.
        -14    1    6    6    0    0 -0.67174727311E+02 -0.15281725781E+03  0.11304479196E+03  0.20160526596E+03  0.00000000000E+00 0.  1.
         -5    1    5    5    0  501  0.12839759676E+02 -0.19903496540E+02 -0.26775929984E+02  0.36056192666E+02  0.47000000000E+01 0.  1.
<mgrwt>
<rscale>  2 0.31954581E+03</rscale>
<asrwt>0</asrwt>
<pdfrwt beam="1">  1        1 0.50179963E-01 0.31954581E+03</pdfrwt>
<pdfrwt beam="2">  1       -1 0.54906569E-01 0.31954581E+03</pdfrwt>
<totfact> 0.27235760E+02</totfact>
</mgrwt>
</event>
<event>
12    1  0.5759937E-002  0.1867813E+03  0.7546771E-02  0.1161397E+00
          1   -1    0    0  503    0  0.00000000000E+00  0.00000000000E+00  0.20492635061E+03  0.20492635061E+03  0.00000000000E+00 0. -1.
         -1   -1    0    0    0  501 -0.00000000000E+00 -0.00000000000E+00 -0.22068301673E+03  0.22068301673E+03  0.00000000000E+00 0.  1.
          6    2    1    2  503    0  0.68300968850E+02  0.15759324755E+02 -0.10960708426E+03  0.21632551721E+03  0.17282834783E+03 0.  0.
         24    2    3    3    0    0  0.52988809127E+02 -0.67740360038E+01  0.99361116838E+01  0.93627186827E+02  0.76247113658E+02 0.  0.
         -6    2    1    2    0  501 -0.68300968850E+02 -0.15759324755E+02  0.93850418149E+02  0.20928385012E+03  0.17343139933E+03 0.  0.
        -24    2    5    5    0    0 -0.76119059132E+02  0.44548306133E+02  0.87714017775E+02  0.14798231435E+03  0.80164541430E+02 0.  0.
          2    1    4    4  502    0  0.18848558023E+02 -0.29918948809E+02  0.31257777813E+02  0.47195977702E+02  0.00000000000E+00 0. -1.
         -1    1    4    4    0  502  0.34140251104E+02  0.23144912806E+02 -0.21321666130E+02  0.46431209125E+02  0.00000000000E+00 0.  1.
          5    1    3    3  503    0  0.15312159723E+02  0.22533360758E+02 -0.11954319595E+03  0.12269833039E+03  0.47000000000E+01 0. -1.
         13    1    6    6    0    0 -0.36959791846E+02 -0.20214617150E+02  0.20892435805E+02  0.47022875643E+02  0.00000000000E+00 0. -1.
        -14    1    6    6    0    0 -0.39159267286E+02  0.64762923283E+02  0.66821581970E+02  0.10095943870E+03  0.00000000000E+00 0.  1.
         -5    1    5    5    0  501  0.78180902821E+01 -0.60307630888E+02  0.61364003735E+01  0.61301535776E+02  0.47000000000E+01 0.  1.
<mgrwt>
<rscale>  2 0.18678133E+03</rscale>
<asrwt>0</asrwt>
<pdfrwt beam="1">  1        1 0.31527131E-01 0.18678133E+03</pdfrwt>
<pdfrwt beam="2">  1       -1 0.33951233E-01 0.18678133E+03</pdfrwt>
<totfact> 0.11661358E+03</totfact>
</mgrwt>
</event>
<event>
12    1  0.5759937E-002  0.1703333E+03  0.7546771E-02  0.1177501E+00
          2   -1    0    0  503    0  0.00000000000E+00  0.00000000000E+00  0.17150883588E+04  0.17150883588E+04  0.00000000000E+00 0.  1.
         -2   -1    0    0    0  501 -0.00000000000E+00 -0.00000000000E+00 -0.18698595122E+02  0.18698595122E+02  0.00000000000E+00 0. -1.
          6    2    1    2  503    0 -0.41746256756E+01  0.48990308617E+01  0.11279245714E+04  0.11411337266E+04  0.17300553575E+03 0.  0.
         24    2    3    3    0    0 -0.37979869324E+02  0.45279142294E+02  0.96282877902E+03  0.96777843094E+03  0.77866311675E+02 0.  0.
         -6    2    1    2    0  501  0.41746256756E+01 -0.48990308617E+01  0.56846519230E+03  0.59265322727E+03  0.16746266726E+03 0.  0.
        -24    2    5    5    0    0 -0.19999983762E+02 -0.50645122987E+02  0.21357448721E+03  0.23397981140E+03  0.78533831711E+02 0.  0.
          2    1    4    4  502    0  0.12470427056E+02  0.73860587760E+01  0.54681227726E+03  0.54700432537E+03  0.00000000000E+00 0. -1.
         -1    1    4    4    0  502 -0.50450296380E+02  0.37893083518E+02  0.41601650176E+03  0.42077410557E+03  0.00000000000E+00 0.  1.
          5    1    3    3  503    0  0.33805243649E+02 -0.40380111432E+02  0.16509579234E+03  0.17335529569E+03  0.47000000000E+01 0. -1.
         11    1    6    6    0    0 -0.36908931746E+02 -0.63116351362E+02  0.18108242557E+03  0.19528642529E+03  0.00000000000E+00 0. -1.
        -12    1    6    6    0    0  0.16908947985E+02  0.12471228375E+02  0.32492061633E+02  0.38693386105E+02  0.00000000000E+00 0.  1.
         -5    1    5    5    0  501  0.24174609437E+02  0.45746092125E+02  0.35489070510E+03  0.35867341587E+03  0.47000000000E+01 0.  1.
<mgrwt>
<rscale>  2 0.17033326E+03</rscale>
<asrwt>0</asrwt>
<pdfrwt beam="1">  1        2 0.26385962E+00 0.17033326E+03</pdfrwt>
<pdfrwt beam="2">  1       -2 0.28767083E-02 0.17033326E+03</pdfrwt>
<totfact> 0.47024166E+03</totfact>
</mgrwt>
</event>
<event>
12    1  0.5759937E-002  0.3540308E+03  0.7546771E-02  0.1060973E+00
          1   -1    0    0  503    0  0.00000000000E+00  0.00000000000E+00  0.10397283027E+04  0.10397283027E+04  0.00000000000E+00 0.  1.
         -1   -1    0    0    0  501 -0.00000000000E+00 -0.00000000000E+00 -0.14293950648E+03  0.14293950648E+03  0.00000000000E+00 0. -1.
          6    2    1    2  503    0  0.29611433912E+03  0.91362422411E+02  0.68351164612E+03  0.77022424038E+03  0.17328132049E+03 0.  0.
         24    2    3    3    0    0  0.26388069413E+03  0.73786423213E+02  0.67365143951E+03  0.73191970682E+03  0.82599868564E+02 0.  0.
         -6    2    1    2    0  501 -0.29611433912E+03 -0.91362422411E+02  0.21327715010E+03  0.41244356878E+03  0.16909098324E+03 0.  0.
        -24    2    5    5    0    0 -0.12750963979E+03 -0.37963259595E+02  0.34368429772E+02  0.16082990573E+03  0.83577223533E+02 0.  0.
          2    1    4    4  502    0  0.51754836234E+02 -0.14983176952E+02  0.16820447630E+03  0.17662334079E+03  0.00000000000E+00 0. -1.
         -1    1    4    4    0  502  0.21212585790E+03  0.88769600164E+02  0.50544696322E+03  0.55529636603E+03  0.00000000000E+00 0.  1.
          5    1    3    3  503    0  0.32233644990E+02  0.17575999199E+02  0.98602066044E+01  0.38304533563E+02  0.47000000000E+01 0. -1.
         11    1    6    6    0    0 -0.12234851124E+03 -0.11978395455E+02  0.46832358566E+02  0.13155192879E+03  0.00000000000E+00 0. -1.
        -12    1    6    6    0    0 -0.51611285452E+01 -0.25984864141E+02 -0.12463928794E+02  0.29277976932E+02  0.00000000000E+00 0.  1.
         -5    1    5    5    0  501 -0.16860469934E+03 -0.53399162816E+02  0.17890872033E+03  0.25161366306E+03  0.47000000000E+01 0.  1.
<mgrwt>
<rscale>  2 0.35403083E+03</rscale>
<asrwt>0</asrwt>
<pdfrwt beam="1">  1        1 0.15995820E+00 0.35403083E+03</pdfrwt>
<pdfrwt beam="2">  1       -1 0.21990694E-01 0.35403083E+03</pdfrwt>
<totfact> 0.25678469E+02</totfact>
</mgrwt>
</event>
<event>
12    1  0.5759937E-002  0.1796765E+03  0.7546771E-02  0.1168117E+00
         -3   -1    0    0    0  501 -0.00000000000E+00  0.00000000000E+00  0.14323676276E+03  0.14323676276E+03  0.00000000000E+00 0. -1.
          3   -1    0    0  503    0  0.00000000000E+00 -0.00000000000E+00 -0.22593052263E+03  0.22593052263E+03  0.00000000000E+00 0.  1.
          6    2    1    2  503    0  0.68802866817E+00 -0.50664070482E+02 -0.32090987555E+02  0.18125233637E+03  0.17104168070E+03 0.  0.
         24    2    3    3    0    0 -0.15863102408E+02 -0.72399858606E+02  0.29454827721E+02  0.11375150821E+03  0.81107590268E+02 0.  0.
         -6    2    1    2    0  501 -0.68802866817E+00  0.50664070482E+02 -0.50602772321E+02  0.18791494901E+03  0.17373562120E+03 0.  0.
        -24    2    5    5    0    0 -0.22157820214E+02  0.51717757066E+02  0.38576464159E+02  0.96061324024E+02  0.67630902653E+02 0.  0.
          2    1    4    4  502    0  0.19692000789E+02  0.21631113625E+01  0.23779807038E+02  0.30950495450E+02  0.00000000000E+00 0. -1.
         -1    1    4    4    0  502 -0.35555103197E+02 -0.74562969968E+02  0.56750206831E+01  0.82801012757E+02  0.00000000000E+00 0.  1.
          5    1    3    3  503    0  0.16551131077E+02  0.21735788124E+02 -0.61545815275E+02  0.67500828167E+02  0.47000000000E+01 0. -1.
         13    1    6    6    0    0 -0.34185566999E+02 -0.67390577367E+00  0.13810441540E+02  0.36875946572E+02  0.00000000000E+00 0. -1.
        -14    1    6    6    0    0  0.12027746785E+02  0.52391662839E+02  0.24766022619E+02  0.59185377452E+02  0.00000000000E+00 0.  1.
         -5    1    5    5    0  501  0.21469791545E+02 -0.10536865837E+01 -0.89179236480E+02  0.91853624989E+02  0.47000000000E+01 0.  1.
<mgrwt>
<rscale>  2 0.17967649E+03</rscale>
<asrwt>0</asrwt>
<pdfrwt beam="2">  1        3 0.34758542E-01 0.17967649E+03</pdfrwt>
<pdfrwt beam="1">  1       -3 0.22036425E-01 0.17967649E+03</pdfrwt>
<totfact> 0.37024430E+02</totfact>
</mgrwt>
</event>
<event>
12    1  0.5759937E-002  0.2560311E+03  0.7546771E-02  0.1109552E+00
         -2   -1    0    0    0  501 -0.00000000000E+00  0.00000000000E+00  0.83693646446E+02  0.83693646446E+02  0.00000000000E+00 0. -1.
          2   -1    0    0  503    0  0.00000000000E+00 -0.00000000000E+00 -0.80906835377E+03  0.80906835377E+03  0.00000000000E+00 0.  1.
          6    2    1    2  503    0 -0.12823014399E+03 -0.13387953020E+03 -0.43844858439E+03  0.50632744184E+03  0.17252135743E+03 0.  0.
         24    2    3    3    0    0 -0.28431601080E+01 -0.75487273211E+02 -0.24359964771E+03  0.26733005790E+03  0.80113416583E+02 0.  0.
         -6    2    1    2    0  501  0.12823014399E+03  0.13387953020E+03 -0.28692612293E+03  0.38643455838E+03  0.18066092399E+03 0.  0.
        -24    2    5    5    0    0  0.13422327032E+03  0.82861180710E+02 -0.11258479182E+03  0.20462207454E+03  0.65673407661E+02 0.  0.
          2    1    4    4  502    0 -0.15864215960E+02 -0.89366672236E+02 -0.19323388401E+03  0.21348866336E+03  0.00000000000E+00 0. -1.
         -1    1    4    4    0  502  0.13021055852E+02  0.13879399025E+02 -0.50365763699E+02  0.53841394538E+02  0.00000000000E+00 0.  1.
          5    1    3    3  503    0 -0.12538698388E+03 -0.58392256985E+02 -0.19484893669E+03  0.23899738394E+03  0.47000000000E+01 0. -1.
         11    1    6    6    0    0  0.41909096192E+02  0.37265614451E+02 -0.77878282862E+02  0.95969397755E+02  0.00000000000E+00 0. -1.
        -12    1    6    6    0    0  0.92314174131E+02  0.45595566260E+02 -0.34706508963E+02  0.10865267678E+03  0.00000000000E+00 0.  1.
         -5    1    5    5    0  501 -0.59931263324E+01  0.51018349486E+02 -0.17434133111E+03  0.18181248384E+03  0.47000000000E+01 0.  1.
<mgrwt>
<rscale>  2 0.25603112E+03</rscale>
<asrwt>0</asrwt>
<pdfrwt beam="2">  1        2 0.12447205E+00 0.25603112E+03</pdfrwt>
<pdfrwt beam="1">  1       -2 0.12875946E-01 0.25603112E+03</pdfrwt>
<totfact> 0.15401090E+03</totfact>
</mgrwt>
</event>
<event>
12    1  0.5759937E-002  0.2058912E+03  0.7546771E-02  0.1144862E+00
         -2   -1    0    0    0  501 -0.00000000000E+00  0.00000000000E+00  0.42972136704E+02  0.42972136704E+02  0.00000000000E+00 0.  1.
          2   -1    0    0  503    0  0.00000000000E+00 -0.00000000000E+00 -0.11322230114E+04  0.11322230114E+04  0.00000000000E+00 0. -1.
          6    2    1    2  503    0  0.10176017905E+03  0.51170094144E+02 -0.33047151922E+03  0.38859173649E+03  0.16976041964E+03 0.  0.
         24    2    3    3    0    0  0.54917650659E+02  0.82193648316E+02 -0.29586034488E+03  0.32243505301E+03  0.81604384458E+02 0.  0.
         -6    2    1    2    0  501 -0.10176017905E+03 -0.51170094144E+02 -0.75877935550E+03  0.78660341164E+03  0.17327811257E+03 0.  0.
        -24    2    5    5    0    0 -0.13574865939E+02  0.13752237735E+02 -0.17373699696E+03  0.19138226794E+03  0.77905245907E+02 0.  0.
          4    1    4    4  502    0  0.20152904850E+02 -0.68552266128E+00 -0.14825814106E+03  0.14962314629E+03  0.00000000000E+00 0. -1.
         -3    1    4    4    0  502  0.34764745809E+02  0.82879170977E+02 -0.14760220381E+03  0.17281190672E+03  0.00000000000E+00 0.  1.
          5    1    3    3  503    0  0.46842528390E+02 -0.31023554172E+02 -0.34611174343E+02  0.66156683478E+02  0.47000000000E+01 0. -1.
         11    1    6    6    0    0 -0.19658859376E+02  0.53164896946E+01 -0.17870094205E+03  0.17985761731E+03  0.00000000000E+00 0. -1.
        -12    1    6    6    0    0  0.60839934361E+01  0.84357480399E+01  0.49639450929E+01  0.11524650624E+02  0.00000000000E+00 0.  1.
         -5    1    5    5    0  501 -0.88185313109E+02 -0.64922331879E+02 -0.58504235854E+03  0.59522114370E+03  0.47000000000E+01 0.  1.
<mgrwt>
<rscale>  2 0.20589116E+03</rscale>
<asrwt>0</asrwt>
<pdfrwt beam="2">  1        2 0.17418811E+00 0.20589116E+03</pdfrwt>
<pdfrwt beam="1">  1       -2 0.66110998E-02 0.20589116E+03</pdfrwt>
<totfact> 0.27742645E+03</totfact>
</mgrwt>
</event>
<event>
12    1  0.5759937E-002  0.1968673E+03  0.7546771E-02  0.1152409E+00
          2   -1    0    0  503    0  0.00000000000E+00  0.00000000000E+00  0.17759565864E+04  0.17759565864E+04  0.00000000000E+00 0. -1.
         -2   -1    0    0    0  501 -0.00000000000E+00 -0.00000000000E+00 -0.21833153247E+02  0.21833153247E+02  0.00000000000E+00 0.  1.
          6    2    1    2  503    0 -0.23179104135E+02 -0.90155359887E+02  0.89661214387E+03  0.91797967515E+03  0.17351682247E+03 0.  0.
         24    2    3    3    0    0  0.49063857348E+02 -0.94028050872E+02  0.54197009653E+03  0.55600299779E+03  0.64491949608E+02 0.  0.
         -6    2    1    2    0  501  0.23179104135E+02  0.90155359887E+02  0.85751128928E+03  0.87981006449E+03  0.17342110179E+03 0.  0.
        -24    2    5    5    0    0  0.33427503367E+02  0.60405482419E+02  0.83297409909E+03  0.83963235178E+03  0.79814886530E+02 0.  0.
          2    1    4    4  502    0  0.41879615506E+02 -0.96602531739E+02  0.53618901002E+03  0.54642895768E+03  0.00000000000E+00 0. -1.
         -1    1    4    4    0  502  0.71842418422E+01  0.25744808672E+01  0.57810865150E+01  0.95740401021E+01  0.00000000000E+00 0.  1.
          5    1    3    3  503    0 -0.72242961483E+02  0.38726909852E+01  0.35464204734E+03  0.36197667737E+03  0.47000000000E+01 0. -1.
         11    1    6    6    0    0  0.21371596916E+02  0.42220226543E+02  0.17466403607E+03  0.18096081946E+03  0.00000000000E+00 0. -1.
        -12    1    6    6    0    0  0.12055906451E+02  0.18185255875E+02  0.65831006302E+03  0.65867153231E+03  0.00000000000E+00 0.  1.
         -5    1    5    5    0  501 -0.10248399233E+02  0.29749877468E+02  0.24537190194E+02  0.40177712713E+02  0.47000000000E+01 0.  1.
<mgrwt>
<rscale>  2 0.19686731E+03</rscale>
<asrwt>0</asrwt>
<pdfrwt beam="1">  1        2 0.27322398E+00 0.19686731E+03</pdfrwt>
<pdfrwt beam="2">  1       -2 0.33589481E-02 0.19686731E+03</pdfrwt>
<totfact> 0.34799101E+03</totfact>
</mgrwt>
</event>
<event>
12    1  0.5759937E-002  0.1837311E+03  0.7546771E-02  0.1164240E+00
         -2   -1    0    0    0  501 -0.00000000000E+00  0.00000000000E+00  0.21606645389E+03  0.21606645389E+03  0.00000000000E+00 0. -1.
          2   -1    0    0  503    0  0.00000000000E+00 -0.00000000000E+00 -0.16346258345E+03  0.16346258345E+03  0.00000000000E+00 0.  1.
          6    2    1    2  503    0 -0.52313003194E+02 -0.44277409305E+02 -0.13414689486E+02  0.18543958926E+03  0.17178692643E+03 0.  0.
         24    2    3    3    0    0 -0.49814841529E+02  0.25421813944E+02 -0.45624374464E+02  0.10847351660E+03  0.80976127338E+02 0.  0.
         -6    2    1    2    0  501  0.52313003194E+02  0.44277409305E+02  0.66018559928E+02  0.19408944808E+03  0.16916005534E+03 0.  0.
        -24    2    5    5    0    0  0.43162555278E+02  0.39449984738E+02  0.10986666327E+03  0.14879285999E+03  0.81543387300E+02 0.  0.
          4    1    4    4  502    0  0.10800684036E+02  0.28549403140E+02 -0.35701674328E+02  0.46971616377E+02  0.00000000000E+00 0. -1.
         -3    1    4    4    0  502 -0.60615525564E+02 -0.31275891955E+01 -0.99227001359E+01  0.61501900228E+02  0.00000000000E+00 0.  1.
          5    1    3    3  503    0 -0.24981616653E+01 -0.69699223249E+02  0.32209684978E+02  0.76966072653E+02  0.47000000000E+01 0. -1.
         13    1    6    6    0    0  0.50835467468E+02  0.45135849814E+02  0.41255975479E+02  0.79520721852E+02  0.00000000000E+00 0. -1.
        -14    1    6    6    0    0 -0.76729121901E+01 -0.56858650754E+01  0.68610687795E+02  0.69272138143E+02  0.00000000000E+00 0.  1.
         -5    1    5    5    0  501  0.91504479159E+01  0.48274245670E+01 -0.43848103347E+02  0.45296588085E+02  0.47000000000E+01 0.  1.
<mgrwt>
<rscale>  2 0.18373107E+03</rscale>
<asrwt>0</asrwt>
<pdfrwt beam="2">  1        2 0.25148090E-01 0.18373107E+03</pdfrwt>
<pdfrwt beam="1">  1       -2 0.33240993E-01 0.18373107E+03</pdfrwt>
<totfact> 0.17820701E+03</totfact>
</mgrwt>
</event>
<event>
12    1  0.5759937E-002  0.2440615E+03  0.7546771E-02  0.1117116E+00
          2   -1    0    0  503    0  0.00000000000E+00  0.00000000000E+00  0.13573220334E+04  0.13573220334E+04  0.00000000000E+00 0.  1.
         -2   -1    0    0    0  501 -0.00000000000E+00 -0.00000000000E+00 -0.45272434173E+02  0.45272434173E+02  0.00000000000E+00 0. -1.
          6    2    1    2  503    0 -0.10781744125E+03  0.13249224586E+03  0.77826823313E+03  0.81557881228E+03  0.17403608961E+03 0.  0.
         24    2    3    3    0    0 -0.64425341503E+02  0.13354987588E+03  0.37759059737E+03  0.41252962086E+03  0.74965558038E+02 0.  0.
         -6    2    1    2    0  501  0.10781744125E+03 -0.13249224586E+03  0.53378136612E+03  0.58701565532E+03  0.17460251121E+03 0.  0.
        -24    2    5    5    0    0 -0.35739165565E+00 -0.10934856016E+03  0.32233187248E+03  0.34833091969E+03  0.74022687436E+02 0.  0.
          4    1    4    4  502    0 -0.79255462755E+02  0.12628898531E+03  0.34897621958E+03  0.37949273777E+03  0.00000000000E+00 0. -1.
         -3    1    4    4    0  502  0.14830121253E+02  0.72608905674E+01  0.28614377790E+02  0.33036883093E+02  0.00000000000E+00 0.  1.
          5    1    3    3  503    0 -0.43392099748E+02 -0.10576300239E+01  0.40067763577E+03  0.40304919142E+03  0.47000000000E+01 0. -1.
         13    1    6    6    0    0  0.71611088204E+01 -0.40255730857E+02  0.22527750519E+03  0.22895798674E+03  0.00000000000E+00 0. -1.
        -14    1    6    6    0    0 -0.75185004761E+01 -0.69092829307E+02  0.97054367290E+02  0.11937293295E+03  0.00000000000E+00 0.  1.
         -5    1    5    5    0  501  0.10817483291E+03 -0.23143685693E+02  0.21144949364E+03  0.23868473563E+03  0.47000000000E+01 0.  1.
<mgrwt>
<rscale>  2 0.24406149E+03</rscale>
<asrwt>0</asrwt>
<pdfrwt beam="1">  1        2 0.20881874E+00 0.24406149E+03</pdfrwt>
<pdfrwt beam="2">  1       -2 0.69649909E-02 0.24406149E+03</pdfrwt>
<totfact> 0.19166976E+03</totfact>
</mgrwt>
</event>
<event>
12    1  0.5759937E-002  0.1857265E+03  0.7546771E-02  0.1162373E+00
          1   -1    0    0  503    0  0.00000000000E+00  0.00000000000E+00  0.59503216587E+02  0.59503216587E+02  0.00000000000E+00 0.  1.
         -1   -1    0    0    0  501 -0.00000000000E+00 -0.00000000000E+00 -0.59294559554E+03  0.59294559554E+03  0.00000000000E+00 0. -1.
          6    2    1    2  503    0  0.49708640482E+01  0.66526206464E+02 -0.21813988719E+03  0.28657156087E+03  0.17345836239E+03 0.  0.
         24    2    3    3    0    0  0.13179348820E+02  0.10787428059E+03 -0.19712534396E+03  0.23923506879E+03  0.81021362980E+02 0.  0.
         -6    2    1    2    0  501 -0.49708640482E+01 -0.66526206464E+02 -0.31530249176E+03  0.36587725125E+03  0.17320524252E+03 0.  0.
        -24    2    5    5    0    0  0.35137281765E+02 -0.10300180096E+03 -0.24548100250E+03  0.27735458343E+03  0.69430849004E+02 0.  0.
          4    1    4    4  502    0  0.13058746890E+02  0.74257584440E+02 -0.19062673185E+03  0.20499578194E+03  0.00000000000E+00 0. -1.
         -3    1    4    4    0  502  0.12060192951E+00  0.33616696146E+02 -0.64986121120E+01  0.34239286850E+02  0.00000000000E+00 0.  1.
          5    1    3    3  503    0 -0.82084847714E+01 -0.41348074121E+02 -0.21014543227E+02  0.47336492084E+02  0.47000000000E+01 0. -1.
         13    1    6    6    0    0 -0.15387738626E+02 -0.62159656921E+02 -0.11674983971E+03  0.13315829122E+03  0.00000000000E+00 0. -1.
        -14    1    6    6    0    0  0.50525020391E+02 -0.40842144041E+02 -0.12873116278E+03  0.14419629221E+03  0.00000000000E+00 0.  1.
         -5    1    5    5    0  501 -0.40108145814E+02  0.36475594498E+02 -0.69821489266E+02  0.88522667820E+02  0.47000000000E+01 0.  1.
<mgrwt>
<rscale>  2 0.18572654E+03</rscale>
<asrwt>0</asrwt>
<pdfrwt beam="1">  1        1 0.91543412E-02 0.18572654E+03</pdfrwt>
<pdfrwt beam="2">  1       -1 0.91222397E-01 0.18572654E+03</pdfrwt>
<totfact> 0.88703643E+02</totfact>
</mgrwt>
</event>
<event>
12    1  0.5759937E-002  0.1974229E+03  0.7546771E-02  0.1151932E+00
          1   -1    0    0  503    0  0.00000000000E+00  0.00000000000E+00  0.30116358537E+03  0.30116358537E+03  0.00000000000E+00 0.  1.
         -1   -1    0    0    0  501 -0.00000000000E+00 -0.00000000000E+00 -0.12942121678E+03  0.12942121678E+03  0.00000000000E+00 0. -1.
          6    2    1    2  503    0 -0.95991773455E+02  0.56615382705E+01  0.84611581914E+02  0.21438590141E+03  0.17191777494E+03 0.  0.
         24    2    3    3    0    0 -0.12506321165E+03  0.40303712812E+02  0.77360009582E+02  0.16834348534E+03  0.71342566522E+02 0.  0.
         -6    2    1    2    0  501  0.95991773455E+02 -0.56615382705E+01  0.87130786668E+02  0.21619890074E+03  0.17292691263E+03 0.  0.
        -24    2    5    5    0    0  0.32134873561E+02 -0.57250997908E+02  0.11795070332E+02  0.10467878522E+03  0.80673400396E+02 0.  0.
          2    1    4    4  502    0 -0.28997025581E+02  0.34420881810E+02  0.52079826645E+02  0.68832644439E+02  0.00000000000E+00 0. -1.
         -1    1    4    4    0  502 -0.96066186074E+02  0.58828310022E+01  0.25280182936E+02  0.99510840900E+02  0.00000000000E+00 0.  1.
          5    1    3    3  503    0  0.29071438200E+02 -0.34642174541E+02  0.72515723325E+01  0.46042416066E+02  0.47000000000E+01 0. -1.
         11    1    6    6    0    0  0.57196387233E+02 -0.41888489004E+02  0.20890208311E+02  0.73908545019E+02  0.00000000000E+00 0. -1.
        -12    1    6    6    0    0 -0.25061513672E+02 -0.15362508903E+02 -0.90951379792E+01  0.30770240204E+02  0.00000000000E+00 0.  1.
         -5    1    5    5    0  501  0.63856899894E+02  0.51589459637E+02  0.75335716336E+02  0.11152011552E+03  0.47000000000E+01 0.  1.
<mgrwt>
<rscale>  2 0.19742291E+03</rscale>
<asrwt>0</asrwt>
<pdfrwt beam="1">  1        1 0.46332859E-01 0.19742291E+03</pdfrwt>
<pdfrwt beam="2">  1       -1 0.19910957E-01 0.19742291E+03</pdfrwt>
<totfact> 0.17555863E+03</totfact>
</mgrwt>
</event>
<event>
12    1  0.5759937E-002  0.5256854E+03  0.7546771E-02  0.1007284E+00
         -1   -1    0    0    0  501 -0.00000000000E+00  0.00000000000E+00  0.27027357492E+03  0.27027357492E+03  0.00000000000E+00 0.  1.
          1   -1    0    0  503    0  0.00000000000E+00 -0.00000000000E+00 -0.15480729372E+04  0.15480729372E+04  0.00000000000E+00 0. -1.
          6    2    1    2  503    0 -0.15409227853E+03 -0.47212238554E+03 -0.11686256217E+04  0.12813983767E+04  0.17219749915E+03 0.  0.
         24    2    3    3    0    0 -0.11925322030E+03 -0.36033609550E+03 -0.10257726442E+04  0.10966309612E+04  0.79539394323E+02 0.  0.
         -6    2    1    2    0  501  0.15409227853E+03  0.47212238554E+03 -0.10917374057E+03  0.53694813549E+03  0.17248309294E+03 0.  0.
        -24    2    5    5    0    0  0.10647026521E+02  0.24288803665E+03 -0.66405908430E+02  0.26313048723E+03  0.75630358415E+02 0.  0.
          2    1    4    4  502    0 -0.12615428554E+03 -0.32569667336E+03 -0.88337280149E+03  0.94991617167E+03  0.00000000000E+00 0. -1.
         -1    1    4    4    0  502  0.69010652421E+01 -0.34639422138E+02 -0.14239984271E+03  0.14671478955E+03  0.00000000000E+00 0.  1.
          5    1    3    3  503    0 -0.34839058225E+02 -0.11178629004E+03 -0.14285297753E+03  0.18476741544E+03  0.47000000000E+01 0. -1.
         13    1    6    6    0    0 -0.13946334469E+02  0.53823208672E+01  0.11185976896E+01  0.14990693241E+02  0.00000000000E+00 0. -1.
        -14    1    6    6    0    0  0.24593360990E+02  0.23750571579E+03 -0.67524506120E+02  0.24813979399E+03  0.00000000000E+00 0.  1.
         -5    1    5    5    0  501  0.14344525201E+03  0.22923434888E+03 -0.42767832137E+02  0.27381764825E+03  0.47000000000E+01 0.  1.
<mgrwt>
<rscale>  2 0.52568543E+03</rscale>
<asrwt>0</asrwt>
<pdfrwt beam="2">  1        1 0.23816506E+00 0.52568543E+03</pdfrwt>
<pdfrwt beam="1">  1       -1 0.41580550E-01 0.52568543E+03</pdfrwt>
<totfact> 0.36581914E+01</totfact>
</mgrwt>
</event>
<event>
12    1  0.5759937E-002  0.1842950E+03  0.7546771E-02  0.1163710E+00
          2   -1    0    0  503    0  0.00000000000E+00  0.00000000000E+00  0.13939989543E+04  0.13939989543E+04  0.00000000000E+00 0.  1.
         -2   -1    0    0    0  501 -0.00000000000E+00 -0.00000000000E+00 -0.24545230983E+02  0.24545230983E+02  0.00000000000E+00 0. -1.
          6    2    1    2  503    0  0.62555839868E+01  0.67965321919E+02  0.62809474102E+03  0.65488281812E+03  0.17236613487E+03 0.  0.
         24    2    3    3    0    0  0.32431913594E+02  0.10538036760E+03  0.51371427098E+03  0.53163482502E+03  0.81094907796E+02 0.  0.
         -6    2    1    2    0  501 -0.62555839868E+01 -0.67965321919E+02  0.74135898226E+03  0.76366136713E+03  0.17002095682E+03 0.  0.
        -24    2    5    5    0    0 -0.43854760364E+01 -0.11184861965E+03  0.59666989266E+03  0.61237930021E+03  0.80399629355E+02 0.  0.
          2    1    4    4  502    0  0.56719396690E+02  0.87047727497E+02  0.34912857536E+03  0.36425974106E+03  0.00000000000E+00 0. -1.
         -1    1    4    4    0  502 -0.24287483096E+02  0.18332640105E+02  0.16458569563E+03  0.16737508397E+03  0.00000000000E+00 0.  1.
          5    1    3    3  503    0 -0.26176329607E+02 -0.37415045683E+02  0.11438047004E+03  0.12324799310E+03  0.47000000000E+01 0. -1.
         11    1    6    6    0    0  0.18251795803E+02 -0.36099435247E+02  0.79479947352E+02  0.89181608566E+02  0.00000000000E+00 0. -1.
        -12    1    6    6    0    0 -0.22637271840E+02 -0.75749184401E+02  0.51718994531E+03  0.52319769165E+03  0.00000000000E+00 0.  1.
         -5    1    5    5    0  501 -0.18701079504E+01  0.43883297729E+02  0.14468908960E+03  0.15128206692E+03  0.47000000000E+01 0.  1.
<mgrwt>
<rscale>  2 0.18429501E+03</rscale>
<asrwt>0</asrwt>
<pdfrwt beam="1">  1        2 0.21446132E+00 0.18429501E+03</pdfrwt>
<pdfrwt beam="2">  1       -2 0.37761905E-02 0.18429501E+03</pdfrwt>
<totfact> 0.46342879E+03</totfact>
</mgrwt>
</event>
<event>
12    1  0.5759937E-002  0.3525307E+03  0.7546771E-02  0.1061581E+00
          2   -1    0    0  503    0  0.00000000000E+00  0.00000000000E+00  0.83725410082E+03  0.83725410082E+03  0.00000000000E+00 0. -1.
         -2   -1    0    0    0  501 -0.00000000000E+00 -0.00000000000E+00 -0.22780600859E+03  0.22780600859E+03  0.00000000000E+00 0.  1.
          6    2    1    2  503    0  0.10348212465E+03 -0.29150849444E+03  0.62246972553E+03  0.71850731299E+03  0.18192978633E+03 0.  0.
         24    2    3    3    0    0  0.13607166937E+03 -0.28076250087E+03  0.53284502933E+03  0.62242281386E+03  0.78378905510E+02 0.  0.
         -6    2    1    2    0  501 -0.10348212465E+03  0.29150849444E+03 -0.13021633298E+02  0.34655279642E+03  0.15570332469E+03 0.  0.
        -24    2    5    5    0    0 -0.11703092222E+03  0.28030932130E+03  0.14161574835E+02  0.31384181663E+03  0.77631071732E+02 0.  0.
          4    1    4    4  502    0  0.61573159480E+02 -0.78371960920E+02  0.22968712717E+03  0.25037890210E+03  0.00000000000E+00 0. -1.
         -3    1    4    4    0  502  0.74498509888E+02 -0.20239053995E+03  0.30315790216E+03  0.37204391176E+03  0.00000000000E+00 0.  1.
          5    1    3    3  503    0 -0.32589544718E+02 -0.10745993569E+02  0.89624696201E+02  0.96084499123E+02  0.47000000000E+01 0. -1.
         13    1    6    6    0    0 -0.26416827746E+02  0.56890707084E+02  0.35033083759E+02  0.71845099334E+02  0.00000000000E+00 0. -1.
        -14    1    6    6    0    0 -0.90614094474E+02  0.22341861422E+03 -0.20871508923E+02  0.24199671729E+03  0.00000000000E+00 0.  1.
         -5    1    5    5    0  501  0.13548797571E+02  0.11199173139E+02 -0.27183208133E+02  0.32710979793E+02  0.47000000000E+01 0.  1.
<mgrwt>
<rscale>  2 0.35253071E+03</rscale>
<asrwt>0</asrwt>
<pdfrwt beam="1">  1        2 0.12880832E+00 0.35253071E+03</pdfrwt>
<pdfrwt beam="2">  1       -2 0.35047079E-01 0.35253071E+03</pdfrwt>
<totfact> 0.25631007E+02</totfact>
</mgrwt>
</event>
<event>
12    1  0.5759937E-002  0.1791755E+03  0.7546771E-02  0.1168603E+00
          1   -1    0    0  503    0  0.00000000000E+00  0.00000000000E+00  0.98411125792E+03  0.98411125792E+03  0.00000000000E+00 0.  1.
         -1   -1    0    0    0  501 -0.00000000000E+00 -0.00000000000E+00 -0.63965020385E+02  0.63965020385E+02  0.00000000000E+00 0. -1.
          6    2    1    2  503    0 -0.20210454194E+02  0.35261240420E+02  0.91975096807E+02  0.20053662304E+03  0.17350418212E+03 0.  0.
         24    2    3    3    0    0 -0.35120317497E+02 -0.42088162770E+02  0.66139736365E+02  0.11750175057E+03  0.80170733528E+02 0.  0.
         -6    2    1    2    0  501  0.20210454194E+02 -0.35261240420E+02  0.82817114072E+03  0.84753965526E+03  0.17551128559E+03 0.  0.
        -24    2    5    5    0    0 -0.48639262449E+02  0.95608594626E+01  0.37511200996E+03  0.38706819024E+03  0.81581713630E+02 0.  0.
          2    1    4    4  502    0  0.61857129982E+01 -0.48983322979E+02  0.55522497007E+02  0.74299237205E+02  0.00000000000E+00 0. -1.
         -1    1    4    4    0  502 -0.41306030495E+02  0.68951602092E+01  0.10617239359E+02  0.43202513366E+02  0.00000000000E+00 0.  1.
          5    1    3    3  503    0  0.14909863303E+02  0.77349403189E+02  0.25835360441E+02  0.83034872473E+02  0.47000000000E+01 0. -1.
         13    1    6    6    0    0 -0.21228156989E+02 -0.16968651852E+02  0.32616084407E+02  0.42454431534E+02  0.00000000000E+00 0. -1.
        -14    1    6    6    0    0 -0.27411105460E+02  0.26529511315E+02  0.34249592555E+03  0.34461375871E+03  0.00000000000E+00 0.  1.
         -5    1    5    5    0  501  0.68849716643E+02 -0.44822099882E+02  0.45305913077E+03  0.46047146501E+03  0.47000000000E+01 0.  1.
<mgrwt>
<rscale>  2 0.17917551E+03</rscale>
<asrwt>0</asrwt>
<pdfrwt beam="1">  1        1 0.15140172E+00 0.17917551E+03</pdfrwt>
<pdfrwt beam="2">  1       -1 0.98407731E-02 0.17917551E+03</pdfrwt>
<totfact> 0.10315172E+03</totfact>
</mgrwt>
</event>
<event>
12    1  0.5759937E-002  0.2048890E+03  0.7546771E-02  0.1145678E+00
          2   -1    0    0  503    0  0.00000000000E+00  0.00000000000E+00  0.38709664454E+03  0.38709664454E+03  0.00000000000E+00 0.  1.
         -2   -1    0    0    0  501 -0.00000000000E+00 -0.00000000000E+00 -0.11062676607E+03  0.11062676607E+03  0.00000000000E+00 0. -1.
          6    2    1    2  503    0  0.10912567303E+03 -0.86195129505E+01  0.17332338699E+03  0.26854877857E+03  0.17347836025E+03 0.  0.
         24    2    3    3    0    0  0.37164136813E+02  0.47619872414E+02  0.13713579375E+03  0.17019755557E+03  0.80697934802E+02 0.  0.
         -6    2    1    2    0  501 -0.10912567303E+03  0.86195129505E+01  0.10314649148E+03  0.22917463204E+03  0.17291357594E+03 0.  0.
        -24    2    5    5    0    0 -0.13017644224E+03 -0.33443346141E+02  0.74746531509E+02  0.17402876433E+03  0.81453074376E+02 0.  0.
          2    1    4    4  502    0  0.49793129230E+02  0.13705186834E+02  0.36468906466E+02  0.63223168249E+02  0.00000000000E+00 0. -1.
         -1    1    4    4    0  502 -0.12628992418E+02  0.33914685580E+02  0.10066688728E+03  0.10697438732E+03  0.00000000000E+00 0.  1.
          5    1    3    3  503    0  0.71961536220E+02 -0.56239385364E+02  0.36187593243E+02  0.98351223002E+02  0.47000000000E+01 0. -1.
         13    1    6    6    0    0  0.10181147332E+02 -0.71749043174E+01 -0.80071155727E+00  0.12481031687E+02  0.00000000000E+00 0. -1.
        -14    1    6    6    0    0 -0.14035758957E+03 -0.26268441823E+02  0.75547243066E+02  0.16154773264E+03  0.00000000000E+00 0.  1.
         -5    1    5    5    0  501  0.21050769206E+02  0.42062859091E+02  0.28399959970E+02  0.55145867709E+02  0.47000000000E+01 0.  1.
<mgrwt>
<rscale>  2 0.20488904E+03</rscale>
<asrwt>0</asrwt>
<pdfrwt beam="1">  1        2 0.59553329E-01 0.20488904E+03</pdfrwt>
<pdfrwt beam="2">  1       -2 0.17019503E-01 0.20488904E+03</pdfrwt>
<totfact> 0.22683522E+03</totfact>
</mgrwt>
</event>
<event>
12    1  0.5759937E-002  0.4035066E+03  0.7546771E-02  0.1042572E+00
          2   -1    0    0  503    0  0.00000000000E+00  0.00000000000E+00  0.13732739435E+04  0.13732739435E+04  0.00000000000E+00 0. -1.
         -2   -1    0    0    0  501 -0.00000000000E+00 -0.00000000000E+00 -0.11857853992E+03  0.11857853992E+03  0.00000000000E+00 0.  1.
          6    2    1    2  503    0  0.36039017881E+03  0.51705215938E+02  0.63667786572E+03  0.75392195386E+03  0.17459982093E+03 0.  0.
         24    2    3    3    0    0  0.25249596399E+03  0.18687799555E+02  0.31063425798E+03  0.40887436942E+03  0.81124361653E+02 0.  0.
         -6    2    1    2    0  501 -0.36039017881E+03 -0.51705215938E+02  0.61801753791E+03  0.73793052961E+03  0.17332420208E+03 0.  0.
        -24    2    5    5    0    0 -0.31851225570E+03 -0.98553729906E+01  0.58890897721E+03  0.67179001173E+03  0.54229613868E+02 0.  0.
          2    1    4    4  502    0  0.24621726404E+03  0.21706873208E+02  0.31519150022E+03  0.40054938680E+03  0.00000000000E+00 0. -1.
         -1    1    4    4    0  502  0.62786999575E+01 -0.30190736532E+01 -0.45572422378E+01  0.83249826243E+01  0.00000000000E+00 0.  1.
          5    1    3    3  503    0  0.10789421482E+03  0.33017416383E+02  0.32604360774E+03  0.34504758443E+03  0.47000000000E+01 0. -1.
         13    1    6    6    0    0 -0.12903916228E+03 -0.51864004359E+01  0.29552798153E+03  0.32251324317E+03  0.00000000000E+00 0. -1.
        -14    1    6    6    0    0 -0.18947309341E+03 -0.46689725548E+01  0.29338099567E+03  0.34927676856E+03  0.00000000000E+00 0.  1.
         -5    1    5    5    0  501 -0.41877923116E+02 -0.41849842947E+02  0.29108560702E+02  0.66140517880E+02  0.47000000000E+01 0.  1.
<mgrwt>
<rscale>  2 0.40350656E+03</rscale>
<asrwt>0</asrwt>
<pdfrwt beam="1">  1        2 0.21127290E+00 0.40350656E+03</pdfrwt>
<pdfrwt beam="2">  1       -2 0.18242853E-01 0.40350656E+03</pdfrwt>
<totfact> 0.38955502E+02</totfact>
</mgrwt>
</event>
<event>
12    1  0.5759937E-002  0.2491642E+03  0.7546771E-02  0.1113834E+00
          1   -1    0    0  503    0  0.00000000000E+00  0.00000000000E+00  0.37706043508E+03  0.37706043508E+03  0.00000000000E+00 0. -1.
         -1   -1    0    0    0  501 -0.00000000000E+00 -0.00000000000E+00 -0.16824140408E+03  0.16824140408E+03  0.00000000000E+00 0.  1.
          6    2    1    2  503    0  0.15686988433E+03 -0.86121416171E+02  0.14383223965E+03  0.28685335770E+03  0.17196533584E+03 0.  0.
         24    2    3    3    0    0  0.14434824930E+03 -0.44927604578E+02  0.42935382241E+02  0.17705359772E+03  0.81545218667E+02 0.  0.
         -6    2    1    2    0  501 -0.15686988433E+03  0.86121416171E+02  0.64986791344E+02  0.25844848147E+03  0.17477778918E+03 0.  0.
        -24    2    5    5    0    0 -0.17043581889E+03  0.62206927847E+02  0.95953627442E+02  0.21677148217E+03  0.69747448904E+02 0.  0.
          2    1    4    4  502    0  0.13522923376E+03 -0.16682623811E+02  0.52275241331E+02  0.14593819396E+03  0.00000000000E+00 0. -1.
         -1    1    4    4    0  502  0.91190155365E+01 -0.28244980767E+02 -0.93398590902E+01  0.31115403753E+02  0.00000000000E+00 0.  1.
          5    1    3    3  503    0  0.12521635031E+02 -0.41193811593E+02  0.10089685741E+03  0.10979975999E+03  0.47000000000E+01 0. -1.
         13    1    6    6    0    0 -0.12789321478E+03  0.56360835187E+02  0.38358428299E+02  0.14492959377E+03  0.00000000000E+00 0. -1.
        -14    1    6    6    0    0 -0.42542604116E+02  0.58460926602E+01  0.57595199143E+02  0.71841888398E+02  0.00000000000E+00 0.  1.
         -5    1    5    5    0  501  0.13565934564E+02  0.23914488324E+02 -0.30966836098E+02  0.41676999296E+02  0.47000000000E+01 0.  1.
<mgrwt>
<rscale>  2 0.24916424E+03</rscale>
<asrwt>0</asrwt>
<pdfrwt beam="1">  1        1 0.58009298E-01 0.24916424E+03</pdfrwt>
<pdfrwt beam="2">  1       -1 0.25883293E-01 0.24916424E+03</pdfrwt>
<totfact> 0.86073783E+02</totfact>
</mgrwt>
</event>
<event>
12    1  0.5759937E-002  0.2153177E+03  0.7546771E-02  0.1137423E+00
          1   -1    0    0  503    0  0.00000000000E+00  0.00000000000E+00  0.16877746506E+04  0.16877746506E+04  0.00000000000E+00 0. -1.
         -1   -1    0    0    0  501 -0.00000000000E+00 -0.00000000000E+00 -0.28257176152E+02  0.28257176152E+02  0.00000000000E+00 0.  1.
          6    2    1    2  503    0 -0.88067674241E+02  0.90748485055E+02  0.68193817055E+03  0.71475409522E+03  0.17274995050E+03 0.  0.
         24    2    3    3    0    0 -0.10013623808E+03  0.93785313556E+01  0.46611831412E+03  0.48374106523E+03  0.81387421635E+02 0.  0.
         -6    2    1    2    0  501  0.88067674241E+02 -0.90748485055E+02  0.97757930393E+03  0.10012777316E+04  0.17579703486E+03 0.  0.
        -24    2    5    5    0    0 -0.99279175626E+01 -0.39717214002E+02  0.28766110384E+03  0.30255279323E+03  0.84340152899E+02 0.  0.
          4    1    4    4  502    0  0.73188407395E+01 -0.14375303942E+02  0.31296338587E+02  0.35209027282E+02  0.00000000000E+00 0. -1.
         -3    1    4    4    0  502 -0.10745507882E+03  0.23753835297E+02  0.43482197554E+03  0.44853203795E+03  0.00000000000E+00 0.  1.
          5    1    3    3  503    0  0.12068563843E+02  0.81369953699E+02  0.21581985643E+03  0.23101302999E+03  0.47000000000E+01 0. -1.
         13    1    6    6    0    0  0.30878270327E+02  0.69992779714E+01  0.10242291905E+03  0.10720499903E+03  0.00000000000E+00 0. -1.
        -14    1    6    6    0    0 -0.40806187890E+02 -0.46716491974E+02  0.18523818479E+03  0.19534779420E+03  0.00000000000E+00 0.  1.
         -5    1    5    5    0  501  0.97995591803E+02 -0.51031271052E+02  0.68991820009E+03  0.69872493834E+03  0.47000000000E+01 0.  1.
<mgrwt>
<rscale>  2 0.21531775E+03</rscale>
<asrwt>0</asrwt>
<pdfrwt beam="1">  1        1 0.25965756E+00 0.21531775E+03</pdfrwt>
<pdfrwt beam="2">  1       -1 0.43472592E-02 0.21531775E+03</pdfrwt>
<totfact> 0.11734822E+03</totfact>
</mgrwt>
</event>
<event>
12    1  0.5759937E-002  0.2340274E+03  0.7546771E-02  0.1123837E+00
          2   -1    0    0  503    0  0.00000000000E+00  0.00000000000E+00  0.81177534598E+03  0.81177534598E+03  0.00000000000E+00 0.  1.
         -2   -1    0    0    0  501 -0.00000000000E+00 -0.00000000000E+00 -0.26211090029E+03  0.26211090029E+03  0.00000000000E+00 0. -1.
          6    2    1    2  503    0 -0.15600720313E+03  0.26129028629E+02  0.73758498258E+03  0.77386892731E+03  0.17268623731E+03 0.  0.
         24    2    3    3    0    0 -0.71145586723E+02 -0.50751972677E+02  0.40981979620E+03  0.42664523902E+03  0.80227410427E+02 0.  0.
         -6    2    1    2    0  501  0.15600720313E+03 -0.26129028629E+02 -0.18792053689E+03  0.30001731896E+03  0.17226517328E+03 0.  0.
        -24    2    5    5    0    0  0.12795237752E+03 -0.69300742444E+02 -0.18458175454E+03  0.24820894530E+03  0.79767490886E+02 0.  0.
          4    1    4    4  502    0  0.42644541817E+01 -0.42526889228E+02  0.14267936410E+03  0.14894335439E+03  0.00000000000E+00 0. -1.
         -3    1    4    4    0  502 -0.75410040905E+02 -0.82250834493E+01  0.26714043210E+03  0.27770188464E+03  0.00000000000E+00 0.  1.
          5    1    3    3  503    0 -0.84861616404E+02  0.76881001306E+02  0.32776518638E+03  0.34722368828E+03  0.47000000000E+01 0. -1.
         13    1    6    6    0    0  0.51826666465E+02 -0.73069125457E+02 -0.94606381502E+02  0.13028993773E+03  0.00000000000E+00 0. -1.
        -14    1    6    6    0    0  0.76125711054E+02  0.37683830125E+01 -0.89975373034E+02  0.11791900757E+03  0.00000000000E+00 0.  1.
         -5    1    5    5    0  501  0.28054825609E+02  0.43171713815E+02 -0.33387823569E+01  0.51808373660E+02  0.47000000000E+01 0.  1.
<mgrwt>
<rscale>  2 0.23402743E+03</rscale>
<asrwt>0</asrwt>
<pdfrwt beam="1">  1        2 0.12488851E+00 0.23402743E+03</pdfrwt>
<pdfrwt beam="2">  1       -2 0.40324754E-01 0.23402743E+03</pdfrwt>
<totfact> 0.20729235E+02</totfact>
</mgrwt>
</event>
<event>
12    1  0.5759937E-002  0.2123866E+03  0.7546771E-02  0.1139690E+00
         -2   -1    0    0    0  501 -0.00000000000E+00  0.00000000000E+00  0.44877313352E+03  0.44877313352E+03  0.00000000000E+00 0. -1.
          2   -1    0    0  503    0  0.00000000000E+00 -0.00000000000E+00 -0.10360986015E+03  0.10360986015E+03  0.00000000000E+00 0.  1.
          6    2    1    2  503    0  0.10585172261E+03  0.62848159653E+02  0.22061565040E+03  0.30649516044E+03  0.17353253246E+03 0.  0.
         24    2    3    3    0    0  0.69823713405E+01  0.23641588061E+02  0.16680843318E+03  0.18720722936E+03  0.81325365962E+02 0.  0.
         -6    2    1    2    0  501 -0.10585172261E+03 -0.62848159653E+02  0.12454762297E+03  0.24588783323E+03  0.17261007442E+03 0.  0.
        -24    2    5    5    0    0 -0.10246488219E+03 -0.10090333612E+03  0.12562079105E+03  0.20737927790E+03  0.80901461265E+02 0.  0.
          4    1    4    4  502    0  0.19181327592E+02  0.89995741221E+01  0.16680912816E+03  0.16814934106E+03  0.00000000000E+00 0. -1.
         -3    1    4    4    0  502 -0.12198956251E+02  0.14642013939E+02 -0.69497990367E-03  0.19057888296E+02  0.00000000000E+00 0.  1.
          5    1    3    3  503    0  0.98869351271E+02  0.39206571592E+02  0.53807217216E+02  0.11928793108E+03  0.47000000000E+01 0. -1.
         11    1    6    6    0    0 -0.81367896343E+02 -0.87593159570E+02  0.13536239495E+03  0.18059976225E+03  0.00000000000E+00 0. -1.
        -12    1    6    6    0    0 -0.21096985847E+02 -0.13310176551E+02 -0.97416039003E+01  0.26779515645E+02  0.00000000000E+00 0.  1.
         -5    1    5    5    0  501 -0.33868404211E+01  0.38055176468E+02 -0.10731680846E+01  0.38508555332E+02  0.47000000000E+01 0.  1.
<mgrwt>
<rscale>  2 0.21238664E+03</rscale>
<asrwt>0</asrwt>
<pdfrwt beam="2">  1        2 0.15939979E-01 0.21238664E+03</pdfrwt>
<pdfrwt beam="1">  1       -2 0.69042020E-01 0.21238664E+03</pdfrwt>
<totfact> 0.70942708E+02</totfact>
</mgrwt>
</event>
<event>
12    1  0.5759937E-002  0.2336860E+03  0.7546771E-02  0.1124072E+00
          2   -1    0    0  503    0  0.00000000000E+00  0.00000000000E+00  0.14374388699E+04  0.14374388699E+04  0.00000000000E+00 0.  1.
         -2   -1    0    0    0  501 -0.00000000000E+00 -0.00000000000E+00 -0.38414584288E+02  0.38414584288E+02  0.00000000000E+00 0. -1.
          6    2    1    2  503    0 -0.15705299456E+03  0.19562098865E+02  0.77821169187E+03  0.81265601605E+03  0.17247621358E+03 0.  0.
         24    2    3    3    0    0 -0.17177108385E+03  0.47657749190E+02  0.68681545043E+03  0.71579864323E+03  0.94210765862E+02 0.  0.
         -6    2    1    2    0  501  0.15705299456E+03 -0.19562098865E+02  0.62081259370E+03  0.66319743809E+03  0.17138916705E+03 0.  0.
        -24    2    5    5    0    0  0.48553600435E+02  0.46059200593E+02  0.32442228171E+03  0.34078841137E+03  0.80050124185E+02 0.  0.
          4    1    4    4  502    0 -0.13487443245E+03  0.39201413018E+02  0.35413721446E+03  0.38097379172E+03  0.00000000000E+00 0. -1.
         -3    1    4    4    0  502 -0.36896651406E+02  0.84563361719E+01  0.33267823597E+03  0.33482485152E+03  0.00000000000E+00 0.  1.
          5    1    3    3  503    0  0.14718089293E+02 -0.28095650325E+02  0.91396241441E+02  0.96857372817E+02  0.47000000000E+01 0. -1.
         11    1    6    6    0    0  0.32314295816E+02  0.13515637001E+02  0.36536347821E+02  0.50614137054E+02  0.00000000000E+00 0. -1.
        -12    1    6    6    0    0  0.16239304619E+02  0.32543563592E+02  0.28788593389E+03  0.29017427432E+03  0.00000000000E+00 0.  1.
         -5    1    5    5    0  501  0.10849939413E+03 -0.65621299458E+02  0.29639031199E+03  0.32240902671E+03  0.47000000000E+01 0.  1.
<mgrwt>
<rscale>  2 0.23368600E+03</rscale>
<asrwt>0</asrwt>
<pdfrwt beam="1">  1        2 0.22114440E+00 0.23368600E+03</pdfrwt>
<pdfrwt beam="2">  1       -2 0.59099372E-02 0.23368600E+03</pdfrwt>
<totfact> 0.22348778E+03</totfact>
</mgrwt>
</event>
<event>
12    1  0.5759937E-002  0.1962729E+03  0.7546771E-02  0.1152922E+00
          2   -1    0    0  503    0  0.00000000000E+00  0.00000000000E+00  0.60038864238E+03  0.60038864238E+03  0.00000000000E+00 0.  1.
         -2   -1    0    0    0  501 -0.00000000000E+00 -0.00000000000E+00 -0.65255945362E+02  0.65255945362E+02  0.00000000000E+00 0. -1.
          6    2    1    2  503    0 -0.87645177945E+02 -0.27307131151E+02  0.31021419359E+03  0.36692708064E+03  0.17313370549E+03 0.  0.
         24    2    3    3    0    0 -0.90959373626E+02  0.37850996375E+02  0.16354717288E+03  0.20633483164E+03  0.78230936427E+02 0.  0.
         -6    2    1    2    0  501  0.87645177945E+02  0.27307131151E+02  0.22491850343E+03  0.29871750710E+03  0.17382882165E+03 0.  0.
        -24    2    5    5    0    0  0.37334838759E+01 -0.36486562953E+02  0.92661446936E+02  0.12952877579E+03  0.82742684465E+02 0.  0.
          2    1    4    4  502    0 -0.52450077662E+02 -0.89014470778E+01  0.33486436104E+02  0.62861656117E+02  0.00000000000E+00 0. -1.
         -1    1    4    4    0  502 -0.38509295964E+02  0.46752443452E+02  0.13006073677E+03  0.14347317552E+03  0.00000000000E+00 0.  1.
          5    1    3    3  503    0  0.33141956816E+01 -0.65158127526E+02  0.14666702071E+03  0.16059224900E+03  0.47000000000E+01 0. -1.
         11    1    6    6    0    0 -0.25647572071E+02 -0.23772403741E+02  0.39201060939E+01  0.35189378576E+02  0.00000000000E+00 0. -1.
        -12    1    6    6    0    0  0.29381055946E+02 -0.12714159211E+02  0.88741340843E+02  0.94339397218E+02  0.00000000000E+00 0.  1.
         -5    1    5    5    0  501  0.83911694069E+02  0.63793694104E+02  0.13225705650E+03  0.16918873131E+03  0.47000000000E+01 0.  1.
<mgrwt>
<rscale>  2 0.19627286E+03</rscale>
<asrwt>0</asrwt>
<pdfrwt beam="1">  1        2 0.92367480E-01 0.19627286E+03</pdfrwt>
<pdfrwt beam="2">  1       -2 0.10039377E-01 0.19627286E+03</pdfrwt>
<totfact> 0.32827638E+03</totfact>
</mgrwt>
</event>
<event>
12    1  0.5759937E-002  0.2292277E+03  0.7546771E-02  0.1127185E+00
          4   -1    0    0  503    0  0.00000000000E+00  0.00000000000E+00  0.26630977516E+02  0.26630977516E+02  0.00000000000E+00 0.  1.
         -4   -1    0    0    0  501 -0.00000000000E+00 -0.00000000000E+00 -0.19768085977E+04  0.19768085977E+04  0.00000000000E+00 0. -1.
          6    2    1    2  503    0 -0.12519798640E+03  0.83030130338E+02 -0.93450129122E+03  0.96236005134E+03  0.17399904243E+03 0.  0.
         24    2    3    3    0    0 -0.83283877519E+02 -0.22074934513E+02 -0.48958699731E+03  0.50325800809E+03  0.78419945092E+02 0.  0.
         -6    2    1    2    0  501  0.12519798640E+03 -0.83030130338E+02 -0.10156763290E+04  0.10410795239E+04  0.17227777421E+03 0.  0.
        -24    2    5    5    0    0  0.94964915194E+02 -0.31829982050E+02 -0.91328850911E+03  0.92258543359E+03  0.83883839532E+02 0.  0.
          2    1    4    4  502    0 -0.12470386858E+02  0.17454642461E+02 -0.23704330332E+03  0.23801198025E+03  0.00000000000E+00 0. -1.
         -1    1    4    4    0  502 -0.70813490661E+02 -0.39529576974E+02 -0.25254369398E+03  0.26524602784E+03  0.00000000000E+00 0.  1.
          5    1    3    3  503    0 -0.41914108884E+02  0.10510506485E+03 -0.44491429392E+03  0.45910204324E+03  0.47000000000E+01 0. -1.
         11    1    6    6    0    0  0.56004136230E+01  0.23421837145E+02 -0.12218740670E+03  0.12453798394E+03  0.00000000000E+00 0. -1.
        -12    1    6    6    0    0  0.89364501571E+02 -0.55251819195E+02 -0.79110110241E+03  0.79804744966E+03  0.00000000000E+00 0.  1.
         -5    1    5    5    0  501  0.30233071208E+02 -0.51200148289E+02 -0.10238781989E+03  0.11849409032E+03  0.47000000000E+01 0.  1.
<mgrwt>
<rscale>  2 0.22922771E+03</rscale>
<asrwt>0</asrwt>
<pdfrwt beam="1">  1        4 0.40970721E-02 0.22922771E+03</pdfrwt>
<pdfrwt beam="2">  1       -4 0.30412450E+00 0.22922771E+03</pdfrwt>
<totfact> 0.20638773E+01</totfact>
</mgrwt>
</event>
<event>
12    1  0.5759937E-002  0.2175393E+03  0.7546771E-02  0.1135731E+00
         -4   -1    0    0    0  501 -0.00000000000E+00  0.00000000000E+00  0.19859936894E+03  0.19859936894E+03  0.00000000000E+00 0. -1.
          4   -1    0    0  503    0  0.00000000000E+00 -0.00000000000E+00 -0.26572791142E+03  0.26572791142E+03  0.00000000000E+00 0.  1.
          6    2    1    2  503    0  0.58080440749E+02  0.12128517597E+03 -0.10798124557E+03  0.24171241931E+03  0.16935617127E+03 0.  0.
         24    2    3    3    0    0  0.77937330937E+02  0.26222240804E+02 -0.33536995736E+02  0.11925714558E+03  0.79597130746E+02 0.  0.
         -6    2    1    2    0  501 -0.58080440749E+02 -0.12128517597E+03  0.40852703095E+02  0.22261486105E+03  0.17264125088E+03 0.  0.
        -24    2    5    5    0    0  0.18668709106E+02 -0.44569618568E+02  0.60785644641E+02  0.11218333969E+03  0.80964408919E+02 0.  0.
          2    1    4    4  502    0 -0.64240650838E+01 -0.17900188273E+02 -0.84059908465E+01  0.20792932322E+02  0.00000000000E+00 0. -1.
         -1    1    4    4    0  502  0.84361396020E+02  0.44122429078E+02 -0.25131004889E+02  0.98464213260E+02  0.00000000000E+00 0.  1.
          5    1    3    3  503    0 -0.19856890188E+02  0.95062935166E+02 -0.74444249833E+02  0.12245527373E+03  0.47000000000E+01 0. -1.
         11    1    6    6    0    0 -0.22072446837E+02 -0.42194849264E+02  0.51863804198E+02  0.70409178377E+02  0.00000000000E+00 0. -1.
        -12    1    6    6    0    0  0.40741155944E+02 -0.23747693033E+01  0.89218404426E+01  0.41774161317E+02  0.00000000000E+00 0.  1.
         -5    1    5    5    0  501 -0.76749149855E+02 -0.76715557402E+02 -0.19932941546E+02  0.11043152136E+03  0.47000000000E+01 0.  1.
<mgrwt>
<rscale>  2 0.21753932E+03</rscale>
<asrwt>0</asrwt>
<pdfrwt beam="2">  1        4 0.40881217E-01 0.21753932E+03</pdfrwt>
<pdfrwt beam="1">  1       -4 0.30553749E-01 0.21753932E+03</pdfrwt>
<totfact> 0.10747825E+02</totfact>
</mgrwt>
</event>
<event>
12    1  0.5759937E-002  0.2002915E+03  0.7546771E-02  0.1149493E+00
          1   -1    0    0  503    0  0.00000000000E+00  0.00000000000E+00  0.12123752098E+03  0.12123752098E+03  0.00000000000E+00 0. -1.
         -1   -1    0    0    0  501 -0.00000000000E+00 -0.00000000000E+00 -0.33114073183E+03  0.33114073183E+03  0.00000000000E+00 0.  1.
          6    2    1    2  503    0  0.33934518365E+02  0.96110059313E+02 -0.98540657413E+02  0.22278949985E+03  0.17186100500E+03 0.  0.
         24    2    3    3    0    0  0.44280467799E+02  0.38640858892E+02 -0.12367529946E+03  0.15904322233E+03  0.80902973168E+02 0.  0.
         -6    2    1    2    0  501 -0.33934518365E+02 -0.96110059313E+02 -0.11136255343E+03  0.22958875297E+03  0.17297595828E+03 0.  0.
        -24    2    5    5    0    0 -0.15394976736E+02 -0.12849083345E+02  0.42788113490E+01  0.85814207334E+02  0.83328660750E+02 0.  0.
          2    1    4    4  502    0 -0.85041320129E+01  0.14096202862E+01 -0.81377044662E+02  0.81832332782E+02  0.00000000000E+00 0. -1.
         -1    1    4    4    0  502  0.52784599811E+02  0.37231238606E+02 -0.42298254797E+02  0.77210889545E+02  0.00000000000E+00 0.  1.
          5    1    3    3  503    0 -0.10345949434E+02  0.57469200421E+02  0.25134642046E+02  0.63746277519E+02  0.47000000000E+01 0. -1.
         13    1    6    6    0    0  0.23228833805E+02 -0.17682622435E+02 -0.23925548877E+02  0.37745009540E+02  0.00000000000E+00 0. -1.
        -14    1    6    6    0    0 -0.38623810541E+02  0.48335390899E+01  0.28204360226E+02  0.48069197795E+02  0.00000000000E+00 0.  1.
         -5    1    5    5    0  501 -0.18539541629E+02 -0.83260975969E+02 -0.11564136478E+03  0.14377454563E+03  0.47000000000E+01 0.  1.
<mgrwt>
<rscale>  2 0.20029148E+03</rscale>
<asrwt>0</asrwt>
<pdfrwt beam="1">  1        1 0.18651926E-01 0.20029148E+03</pdfrwt>
<pdfrwt beam="2">  1       -1 0.50944728E-01 0.20029148E+03</pdfrwt>
<totfact> 0.11038773E+03</totfact>
</mgrwt>
</event>
<event>
12    1  0.5759937E-002  0.1995543E+03  0.7546771E-02  0.1150116E+00
          2   -1    0    0  503    0  0.00000000000E+00  0.00000000000E+00  0.72148322104E+03  0.72148322104E+03  0.00000000000E+00 0.  1.
         -2   -1    0    0    0  501 -0.00000000000E+00 -0.00000000000E+00 -0.56045893075E+02  0.56045893075E+02  0.00000000000E+00 0. -1.
          6    2    1    2  503    0 -0.99399612755E+02  0.83366853227E+01  0.37932817186E+03  0.42825407444E+03  0.17193576410E+03 0.  0.
         24    2    3    3    0    0 -0.13683280649E+03  0.95814814077E+01  0.28868522586E+03  0.33006534205E+03  0.82395076768E+02 0.  0.
         -6    2    1    2    0  501  0.99399612755E+02 -0.83366853227E+01  0.28610915611E+03  0.34927503967E+03  0.17373779321E+03 0.  0.
        -24    2    5    5    0    0  0.78114645838E+02  0.56135877644E+02  0.22409668218E+03  0.25720225262E+03  0.81734577366E+02 0.  0.
          2    1    4    4  502    0 -0.42666935641E+02 -0.27141736005E+02  0.51180407026E+02  0.71948421064E+02  0.00000000000E+00 0. -1.
         -1    1    4    4    0  502 -0.94165870846E+02  0.36723217413E+02  0.23750481884E+03  0.25811692099E+03  0.00000000000E+00 0.  1.
          5    1    3    3  503    0  0.37433193732E+02 -0.12447960850E+01  0.90642945993E+02  0.98188732391E+02  0.47000000000E+01 0. -1.
         13    1    6    6    0    0  0.46624584918E+02  0.71893435537E+02  0.12107993063E+03  0.14833363608E+03  0.00000000000E+00 0. -1.
        -14    1    6    6    0    0  0.31490060920E+02 -0.15757557894E+02  0.10301675155E+03  0.10886861654E+03  0.00000000000E+00 0.  1.
         -5    1    5    5    0  501  0.21284966917E+02 -0.64472562967E+02  0.62012473934E+02  0.92072787052E+02  0.47000000000E+01 0.  1.
<mgrwt>
<rscale>  2 0.19955433E+03</rscale>
<asrwt>0</asrwt>
<pdfrwt beam="1">  1        2 0.11099741E+00 0.19955433E+03</pdfrwt>
<pdfrwt beam="2">  1       -2 0.86224456E-02 0.19955433E+03</pdfrwt>
<totfact> 0.33582167E+03</totfact>
</mgrwt>
</event>
<event>
12    1  0.5759937E-002  0.1911228E+03  0.7546771E-02  0.1157452E+00
          1   -1    0    0  503    0  0.00000000000E+00  0.00000000000E+00  0.10196018884E+04  0.10196018884E+04  0.00000000000E+00 0.  1.
         -1   -1    0    0    0  501 -0.00000000000E+00 -0.00000000000E+00 -0.35832550548E+02  0.35832550548E+02  0.00000000000E+00 0. -1.
          6    2    1    2  503    0 -0.81576010798E+02 -0.34156327219E+01  0.50058281226E+03  0.53604984088E+03  0.17349342320E+03 0.  0.
         24    2    3    3    0    0  0.15406317835E+02 -0.32674685290E+02  0.19025760412E+03  0.20957550953E+03  0.80118341105E+02 0.  0.
         -6    2    1    2    0  501  0.81576010798E+02  0.34156327219E+01  0.48318652555E+03  0.51938459803E+03  0.17211865125E+03 0.  0.
        -24    2    5    5    0    0  0.31661857536E+02 -0.66477695870E+02  0.25341393535E+03  0.27403987466E+03  0.73874711515E+02 0.  0.
          2    1    4    4  502    0  0.59329609051E+01 -0.16741917592E+02 -0.64625118831E+00  0.17773842307E+02  0.00000000000E+00 0. -1.
         -1    1    4    4    0  502  0.94733569298E+01 -0.15932767697E+02  0.19090385531E+03  0.19180166722E+03  0.00000000000E+00 0.  1.
          5    1    3    3  503    0 -0.96982328633E+02  0.29259052568E+02  0.31032520815E+03  0.32647433136E+03  0.47000000000E+01 0. -1.
         13    1    6    6    0    0  0.75943920235E+01 -0.18389167844E+02  0.59004549631E+01  0.20752148154E+02  0.00000000000E+00 0. -1.
        -14    1    6    6    0    0  0.24067465513E+02 -0.48088528025E+02  0.24751348039E+03  0.25328772650E+03  0.00000000000E+00 0.  1.
         -5    1    5    5    0  501  0.49914153262E+02  0.69893328592E+02  0.22977259020E+03  0.24534472337E+03  0.47000000000E+01 0.  1.
<mgrwt>
<rscale>  2 0.19112284E+03</rscale>
<asrwt>0</asrwt>
<pdfrwt beam="1">  1        1 0.15686181E+00 0.19112284E+03</pdfrwt>
<pdfrwt beam="2">  1       -1 0.55127009E-02 0.19112284E+03</pdfrwt>
<totfact> 0.23369936E+03</totfact>
</mgrwt>
</event>
<event>
12    1  0.5759937E-002  0.1767147E+03  0.7546771E-02  0.1171021E+00
          1   -1    0    0  503    0  0.00000000000E+00  0.00000000000E+00  0.86651481265E+03  0.86651481265E+03  0.00000000000E+00 0. -1.
         -1   -1    0    0    0  501 -0.00000000000E+00 -0.00000000000E+00 -0.41888547279E+02  0.41888547279E+02  0.00000000000E+00 0.  1.
          6    2    1    2  503    0 -0.12304904961E+02 -0.31169678685E+02  0.24339387414E+03  0.30101853787E+03  0.17392131157E+03 0.  0.
         24    2    3    3    0    0  0.24700776597E+02  0.30973335419E+02  0.75388366816E+02  0.11804554762E+03  0.81742703593E+02 0.  0.
         -6    2    1    2    0  501  0.12304904961E+02  0.31169678685E+02  0.58123239123E+03  0.60738482206E+03  0.17309612906E+03 0.  0.
        -24    2    5    5    0    0 -0.37536222367E+02  0.65879433940E+02  0.44113873358E+03  0.45461955115E+03  0.79539211795E+02 0.  0.
          4    1    4    4  502    0 -0.17018316949E+02  0.43655595482E+02  0.33667228798E+02  0.57696762679E+02  0.00000000000E+00 0. -1.
         -3    1    4    4    0  502  0.41719093546E+02 -0.12682260063E+02  0.41721138018E+02  0.60348784943E+02  0.00000000000E+00 0.  1.
          5    1    3    3  503    0 -0.37005681557E+02 -0.62143014104E+02  0.16800550732E+03  0.18297299025E+03  0.47000000000E+01 0. -1.
         11    1    6    6    0    0  0.12331772282E+02 -0.11926109815E+02  0.82549044327E+02  0.84312806989E+02  0.00000000000E+00 0. -1.
        -12    1    6    6    0    0 -0.49867994649E+02  0.77805543756E+02  0.35858968926E+03  0.37030674416E+03  0.00000000000E+00 0.  1.
         -5    1    5    5    0  501  0.49841127327E+02 -0.34709755255E+02  0.14009365765E+03  0.15276527091E+03  0.47000000000E+01 0.  1.
<mgrwt>
<rscale>  2 0.17671468E+03</rscale>
<asrwt>0</asrwt>
<pdfrwt beam="1">  1        1 0.13330996E+00 0.17671468E+03</pdfrwt>
<pdfrwt beam="2">  1       -1 0.64443926E-02 0.17671468E+03</pdfrwt>
<totfact> 0.24144965E+03</totfact>
</mgrwt>
</event>
<event>
12    1  0.5759937E-002  0.2088607E+03  0.7546771E-02  0.1142471E+00
         -1   -1    0    0    0  501 -0.00000000000E+00  0.00000000000E+00  0.11476158008E+03  0.11476158008E+03  0.00000000000E+00 0.  1.
          1   -1    0    0  503    0  0.00000000000E+00 -0.00000000000E+00 -0.60648901199E+03  0.60648901199E+03  0.00000000000E+00 0. -1.
          6    2    1    2  503    0 -0.39944495948E+02  0.10617169908E+03 -0.26859979542E+02  0.21233503067E+03  0.17747313686E+03 0.  0.
         24    2    3    3    0    0 -0.72383849074E+02  0.82596298797E+02 -0.70370682936E+02  0.15297694411E+03  0.79927105738E+02 0.  0.
         -6    2    1    2    0  501  0.39944495948E+02 -0.10617169908E+03 -0.46486745236E+03  0.50891556140E+03  0.17327812305E+03 0.  0.
        -24    2    5    5    0    0  0.64138553798E+02 -0.13209684283E+03 -0.32597515557E+03  0.36549092746E+03  0.75897865828E+02 0.  0.
          4    1    4    4  502    0 -0.16411266218E+02  0.75103974017E+02 -0.25982597733E+02  0.81148209820E+02  0.00000000000E+00 0. -1.
         -3    1    4    4    0  502 -0.55972582856E+02  0.74923247795E+01 -0.44388085202E+02  0.71828734293E+02  0.00000000000E+00 0.  1.
          5    1    3    3  503    0  0.32439353126E+02  0.23575400288E+02  0.43510703394E+02  0.59358086558E+02  0.47000000000E+01 0. -1.
         13    1    6    6    0    0  0.52480257611E+02 -0.41589495886E+02 -0.87715506753E+02  0.11035340381E+03  0.00000000000E+00 0. -1.
        -14    1    6    6    0    0  0.11658296187E+02 -0.90507346945E+02 -0.23825964882E+03  0.25513752365E+03  0.00000000000E+00 0.  1.
         -5    1    5    5    0  501 -0.24194057850E+02  0.25925143746E+02 -0.13889229679E+03  0.14342463394E+03  0.47000000000E+01 0.  1.
<mgrwt>
<rscale>  2 0.20886072E+03</rscale>
<asrwt>0</asrwt>
<pdfrwt beam="2">  1        1 0.93306000E-01 0.20886072E+03</pdfrwt>
<pdfrwt beam="1">  1       -1 0.17655628E-01 0.20886072E+03</pdfrwt>
<totfact> 0.85898220E+02</totfact>
</mgrwt>
</event>
<event>
12    1  0.5759937E-002  0.2779285E+03  0.7546771E-02  0.1096826E+00
         -4   -1    0    0    0  501 -0.00000000000E+00  0.00000000000E+00  0.21462929515E+03  0.21462929515E+03  0.00000000000E+00 0. -1.
          4   -1    0    0  503    0  0.00000000000E+00 -0.00000000000E+00 -0.39223660264E+03  0.39223660264E+03  0.00000000000E+00 0.  1.
          6    2    1    2  503    0 -0.21184845837E+03  0.38851315413E+02 -0.17525395265E+03  0.32671697969E+03  0.17216516161E+03 0.  0.
         24    2    3    3    0    0 -0.16759826751E+03 -0.33564654823E+02 -0.11011240460E+03  0.21962980296E+03  0.83046633743E+02 0.  0.
         -6    2    1    2    0  501  0.21184845837E+03 -0.38851315413E+02 -0.23533548307E+01  0.28014891810E+03  0.17913314604E+03 0.  0.
        -24    2    5    5    0    0  0.16370711266E+03 -0.71779921597E+02  0.47840966951E+02  0.20305519455E+03  0.83607882610E+02 0.  0.
          2    1    4    4  502    0 -0.18230262341E+02  0.69446294740E+01  0.11638247100E+02  0.22716054655E+02  0.00000000000E+00 0. -1.
         -1    1    4    4    0  502 -0.14936800517E+03 -0.40509284297E+02 -0.12175065170E+03  0.19691374830E+03  0.00000000000E+00 0.  1.
          5    1    3    3  503    0 -0.44250190863E+02  0.72415970236E+02 -0.65141548060E+02  0.10708717673E+03  0.47000000000E+01 0. -1.
         13    1    6    6    0    0  0.36934905913E+02 -0.40390484821E+02  0.47476640500E+02  0.72454191956E+02  0.00000000000E+00 0. -1.
        -14    1    6    6    0    0  0.12677220674E+03 -0.31389436776E+02  0.36432645163E+00  0.13060100259E+03  0.00000000000E+00 0.  1.
         -5    1    5    5    0  501  0.48141345716E+02  0.32928606184E+02 -0.50194321782E+02  0.77093723556E+02  0.47000000000E+01 0.  1.
<mgrwt>
<rscale>  2 0.27792852E+03</rscale>
<asrwt>0</asrwt>
<pdfrwt beam="2">  1        4 0.60344092E-01 0.27792852E+03</pdfrwt>
<pdfrwt beam="1">  1       -4 0.33019892E-01 0.27792852E+03</pdfrwt>
<totfact> 0.42691295E+01</totfact>
</mgrwt>
</event>
<event>
12    1  0.5759937E-002  0.1873115E+03  0.7546771E-02  0.1160909E+00
          3   -1    0    0  503    0  0.00000000000E+00  0.00000000000E+00  0.98530546927E+02  0.98530546927E+02  0.00000000000E+00 0. -1.
         -3   -1    0    0    0  501 -0.00000000000E+00 -0.00000000000E+00 -0.39453358996E+03  0.39453358996E+03  0.00000000000E+00 0.  1.
          6    2    1    2  503    0  0.44516439997E+02 -0.51423139103E+02 -0.71629199594E+02  0.20129896485E+03  0.17539805686E+03 0.  0.
         24    2    3    3    0    0  0.59765529613E+02  0.30347675845E+02 -0.53155486224E+02  0.11596216741E+03  0.78286771523E+02 0.  0.
         -6    2    1    2    0  501 -0.44516439997E+02  0.51423139103E+02 -0.22437384344E+03  0.29176517204E+03  0.17365840414E+03 0.  0.
        -24    2    5    5    0    0 -0.72220243934E+02 -0.61068301815E+01 -0.81595362425E+02  0.13528839178E+03  0.79950539543E+02 0.  0.
          2    1    4    4  502    0 -0.16120537285E+02  0.20646448894E+02 -0.94024457459E+01  0.27830802365E+02  0.00000000000E+00 0. -1.
         -1    1    4    4    0  502  0.75886066898E+02  0.97012269511E+01 -0.43753040478E+02  0.88131365045E+02  0.00000000000E+00 0.  1.
          5    1    3    3  503    0 -0.15249089616E+02 -0.81770814948E+02 -0.18473713370E+02  0.85336797439E+02  0.47000000000E+01 0. -1.
         13    1    6    6    0    0 -0.24124956148E+02 -0.40439435388E+02 -0.24337919107E+02  0.53006563274E+02  0.00000000000E+00 0. -1.
        -14    1    6    6    0    0 -0.48095287786E+02  0.34332605207E+02 -0.57257443318E+02  0.82281828509E+02  0.00000000000E+00 0.  1.
         -5    1    5    5    0  501  0.27703803936E+02  0.57529969285E+02 -0.14277848102E+03  0.15647678026E+03  0.47000000000E+01 0.  1.
<mgrwt>
<rscale>  2 0.18731150E+03</rscale>
<asrwt>0</asrwt>
<pdfrwt beam="1">  1        3 0.15158545E-01 0.18731150E+03</pdfrwt>
<pdfrwt beam="2">  1       -3 0.60697477E-01 0.18731150E+03</pdfrwt>
<totfact> 0.23750635E+02</totfact>
</mgrwt>
</event>
<event>
12    1  0.5759937E-002  0.5610101E+03  0.7546771E-02  0.9989772E-01
         -2   -1    0    0    0  501 -0.00000000000E+00  0.00000000000E+00  0.92414391215E+02  0.92414391215E+02  0.00000000000E+00 0.  1.
          2   -1    0    0  503    0  0.00000000000E+00 -0.00000000000E+00 -0.37304617521E+04  0.37304617521E+04  0.00000000000E+00 0. -1.
          6    2    1    2  503    0  0.43858999617E+03 -0.30087281501E+03 -0.12529778687E+04  0.13725570028E+04  0.17627691548E+03 0.  0.
         24    2    3    3    0    0  0.33028086611E+03 -0.20481376060E+03 -0.74106599468E+03  0.84054754203E+03  0.79418101740E+02 0.  0.
         -6    2    1    2    0  501 -0.43858999617E+03  0.30087281501E+03 -0.23850694921E+04  0.24503191405E+04  0.18061498352E+03 0.  0.
        -24    2    5    5    0    0 -0.90661422755E+02  0.59325513885E+02 -0.70840014161E+03  0.72097198276E+03  0.78935601080E+02 0.  0.
          2    1    4    4  502    0  0.45321553111E+01 -0.93852838625E+01 -0.36596925484E+01  0.11046145685E+02  0.00000000000E+00 0. -1.
         -1    1    4    4    0  502  0.32574871080E+03 -0.19542847674E+03 -0.73740630213E+03  0.82950139634E+03  0.00000000000E+00 0.  1.
          5    1    3    3  503    0  0.10830913006E+03 -0.96059054409E+02 -0.51191187407E+03  0.53200946082E+03  0.47000000000E+01 0. -1.
         13    1    6    6    0    0 -0.94059950858E+02  0.52578745835E+02 -0.70406207284E+03  0.71226062735E+03  0.00000000000E+00 0. -1.
        -14    1    6    6    0    0  0.33985281032E+01  0.67467680496E+01 -0.43380687767E+01  0.87113554109E+01  0.00000000000E+00 0.  1.
         -5    1    5    5    0  501 -0.34792857342E+03  0.24154730113E+03 -0.16766693505E+04  0.17293471577E+04  0.47000000000E+01 0.  1.
<mgrwt>
<rscale>  2 0.56101011E+03</rscale>
<asrwt>0</asrwt>
<pdfrwt beam="2">  1        2 0.57391706E+00 0.56101011E+03</pdfrwt>
<pdfrwt beam="1">  1       -2 0.14217602E-01 0.56101011E+03</pdfrwt>
<totfact> 0.24012376E+01</totfact>
</mgrwt>
</event>
<event>
12    1  0.5759937E-002  0.1862293E+03  0.7546771E-02  0.1161907E+00
         -2   -1    0    0    0  501 -0.00000000000E+00  0.00000000000E+00  0.21851281111E+03  0.21851281111E+03  0.00000000000E+00 0.  1.
          2   -1    0    0  503    0  0.00000000000E+00 -0.00000000000E+00 -0.25691852485E+03  0.25691852485E+03  0.00000000000E+00 0. -1.
          6    2    1    2  503    0 -0.68012920836E+02  0.50299397113E+01  0.12778051508E+03  0.22564998217E+03  0.17302888985E+03 0.  0.
         24    2    3    3    0    0 -0.95121665882E+02 -0.38687663496E+02  0.99177881499E+02  0.16660496937E+03  0.85884207011E+02 0.  0.
         -6    2    1    2    0  501  0.68012920836E+02 -0.50299397113E+01 -0.16618622881E+03  0.24978135379E+03  0.17355634348E+03 0.  0.
        -24    2    5    5    0    0 -0.29316489305E+02 -0.22047234926E+02 -0.76534004915E+02  0.11628148988E+03  0.79488325352E+02 0.  0.
          4    1    4    4  502    0 -0.69671518865E+02 -0.54604830734E+02  0.33960467497E+02  0.94810977387E+02  0.00000000000E+00 0. -1.
         -3    1    4    4    0  502 -0.25450147017E+02  0.15917167238E+02  0.65217414003E+02  0.71793991986E+02  0.00000000000E+00 0.  1.
          5    1    3    3  503    0  0.27108745046E+02  0.43717603207E+02  0.28602633581E+02  0.59045012795E+02  0.47000000000E+01 0. -1.
         11    1    6    6    0    0  0.25782266251E+02 -0.27274089299E+01 -0.10069095296E+02  0.27812779303E+02  0.00000000000E+00 0. -1.
        -12    1    6    6    0    0 -0.55098755556E+02 -0.19319825996E+02 -0.66464909619E+02  0.88468710576E+02  0.00000000000E+00 0.  1.
         -5    1    5    5    0  501  0.97329410141E+02  0.17017295215E+02 -0.89652223898E+02  0.13349986391E+03  0.47000000000E+01 0.  1.
<mgrwt>
<rscale>  2 0.18622926E+03</rscale>
<asrwt>0</asrwt>
<pdfrwt beam="2">  1        2 0.39525927E-01 0.18622926E+03</pdfrwt>
<pdfrwt beam="1">  1       -2 0.33617356E-01 0.18622926E+03</pdfrwt>
<totfact> 0.10664464E+03</totfact>
</mgrwt>
</event>
<event>
12    1  0.5759937E-002  0.1880019E+03  0.7546771E-02  0.1160276E+00
          2   -1    0    0  503    0  0.00000000000E+00  0.00000000000E+00  0.22215278432E+04  0.22215278432E+04  0.00000000000E+00 0.  1.
         -2   -1    0    0    0  501 -0.00000000000E+00 -0.00000000000E+00 -0.23533202303E+02  0.23533202303E+02  0.00000000000E+00 0. -1.
          6    2    1    2  503    0  0.66216382958E+02 -0.35700825213E+02  0.17400094304E+04  0.17501945566E+04  0.17288438261E+03 0.  0.
         24    2    3    3    0    0  0.10896953027E+03 -0.14243507365E+01  0.12538494016E+04  0.12609335098E+04  0.77062357445E+02 0.  0.
         -6    2    1    2    0  501 -0.66216382958E+02  0.35700825213E+02  0.45798521040E+03  0.49486648882E+03  0.17170681557E+03 0.  0.
        -24    2    5    5    0    0 -0.41999894139E+02  0.10934293912E+02  0.10192733108E+03  0.13709683830E+03  0.80763929817E+02 0.  0.
          4    1    4    4  502    0  0.30598242813E+02  0.34767558048E+02  0.50729787978E+03  0.50940767013E+03  0.00000000000E+00 0. -1.
         -3    1    4    4    0  502  0.78371287457E+02 -0.36191908784E+02  0.74655152179E+03  0.75152583964E+03  0.00000000000E+00 0.  1.
          5    1    3    3  503    0 -0.42753147312E+02 -0.34276474476E+02  0.48616002888E+03  0.48926104687E+03  0.47000000000E+01 0. -1.
         11    1    6    6    0    0  0.54432361546E+01  0.63342265464E+01  0.86637289082E+02  0.87038905699E+02  0.00000000000E+00 0. -1.
        -12    1    6    6    0    0 -0.47443130294E+02  0.46000673659E+01  0.15290041996E+02  0.50057932599E+02  0.00000000000E+00 0.  1.
         -5    1    5    5    0  501 -0.24216488818E+02  0.24766531300E+02  0.35605787932E+03  0.35776965052E+03  0.47000000000E+01 0.  1.
<mgrwt>
<rscale>  2 0.18800185E+03</rscale>
<asrwt>0</asrwt>
<pdfrwt beam="1">  1        2 0.34177335E+00 0.18800185E+03</pdfrwt>
<pdfrwt beam="2">  1       -2 0.36204944E-02 0.18800185E+03</pdfrwt>
<totfact> 0.18251883E+03</totfact>
</mgrwt>
</event>
<event>
12    1  0.5759937E-002  0.3006436E+03  0.7546771E-02  0.1084919E+00
         -2   -1    0    0    0  501 -0.00000000000E+00  0.00000000000E+00  0.18831140246E+03  0.18831140246E+03  0.00000000000E+00 0.  1.
          2   -1    0    0  503    0  0.00000000000E+00 -0.00000000000E+00 -0.49093225991E+03  0.49093225991E+03  0.00000000000E+00 0. -1.
          6    2    1    2  503    0 -0.23285060126E+03 -0.78429234081E+02 -0.10067237930E+03  0.31720108710E+03  0.17352537117E+03 0.  0.
         24    2    3    3    0    0 -0.22285826712E+03 -0.87070552753E+02 -0.13064733635E+03  0.28410868344E+03  0.80012056160E+02 0.  0.
         -6    2    1    2    0  501  0.23285060126E+03  0.78429234081E+02 -0.20194847815E+03  0.36204257526E+03  0.17297714070E+03 0.  0.
        -24    2    5    5    0    0  0.82646382643E+02  0.77662261960E+02 -0.47129441311E+02  0.14628131899E+03  0.79468160611E+02 0.  0.
          4    1    4    4  502    0 -0.17372141090E+03 -0.10109185929E+03 -0.10859824602E+03  0.22845627953E+03  0.00000000000E+00 0. -1.
         -3    1    4    4    0  502 -0.49136856221E+02  0.14021306538E+02 -0.22049090327E+02  0.55652403907E+02  0.00000000000E+00 0.  1.
          5    1    3    3  503    0 -0.99923341425E+01  0.86413186721E+01  0.29974957051E+02  0.33092403663E+02  0.47000000000E+01 0. -1.
         13    1    6    6    0    0 -0.66968763325E+00  0.50330996853E+02 -0.11486624504E+02  0.51629451558E+02  0.00000000000E+00 0. -1.
        -14    1    6    6    0    0  0.83316070277E+02  0.27331265107E+02 -0.35642816807E+02  0.94651867434E+02  0.00000000000E+00 0.  1.
         -5    1    5    5    0  501  0.15020421862E+03  0.76697212052E+00 -0.15481903684E+03  0.21576125627E+03  0.47000000000E+01 0.  1.
<mgrwt>
<rscale>  2 0.30064359E+03</rscale>
<asrwt>0</asrwt>
<pdfrwt beam="2">  1        2 0.75528039E-01 0.30064359E+03</pdfrwt>
<pdfrwt beam="1">  1       -2 0.28970985E-01 0.30064359E+03</pdfrwt>
<totfact> 0.69502671E+02</totfact>
</mgrwt>
</event>
<event>
12    1  0.5759937E-002  0.2350478E+03  0.7546771E-02  0.1123137E+00
          4   -1    0    0  503    0  0.00000000000E+00  0.00000000000E+00  0.55581073346E+03  0.55581073346E+03  0.00000000000E+00 0. -1.
         -4   -1    0    0    0  501 -0.00000000000E+00 -0.00000000000E+00 -0.15709785655E+03  0.15709785655E+03  0.00000000000E+00 0.  1.
          6    2    1    2  503    0  0.14567110276E+03  0.59492024047E+02 -0.16077986327E+02  0.23668315552E+03  0.17607113153E+03 0.  0.
         24    2    3    3    0    0 -0.11439749109E+02  0.38719141297E+02  0.15055962082E+02  0.75107336860E+02  0.61517398300E+02 0.  0.
         -6    2    1    2    0  501 -0.14567110276E+03 -0.59492024047E+02  0.41479086324E+03  0.47622543449E+03  0.17314685422E+03 0.  0.
        -24    2    5    5    0    0 -0.13642957611E+03 -0.61101330967E+02  0.20509077748E+03  0.26626302916E+03  0.80544222697E+02 0.  0.
          2    1    4    4  502    0 -0.22920752513E+02  0.91308481076E+00  0.25439924853E+02  0.34254698892E+02  0.00000000000E+00 0. -1.
         -1    1    4    4    0  502  0.11481003404E+02  0.37806056486E+02 -0.10383962770E+02  0.40852637969E+02  0.00000000000E+00 0.  1.
          5    1    3    3  503    0  0.15711085187E+03  0.20772882750E+02 -0.31133948410E+02  0.16157581866E+03  0.47000000000E+01 0. -1.
         11    1    6    6    0    0 -0.76778686410E+02 -0.30038017323E+02  0.17321926268E+03  0.19183889631E+03  0.00000000000E+00 0. -1.
        -12    1    6    6    0    0 -0.59650889696E+02 -0.31063313644E+02  0.31871514795E+02  0.74424132856E+02  0.00000000000E+00 0.  1.
         -5    1    5    5    0  501 -0.92415266510E+01  0.16093069195E+01  0.20970008576E+03  0.20996240533E+03  0.47000000000E+01 0.  1.
<mgrwt>
<rscale>  2 0.23504776E+03</rscale>
<asrwt>0</asrwt>
<pdfrwt beam="1">  1        4 0.85509343E-01 0.23504776E+03</pdfrwt>
<pdfrwt beam="2">  1       -4 0.24168901E-01 0.23504776E+03</pdfrwt>
<totfact> 0.35284221E+01</totfact>
</mgrwt>
</event>
<event>
12    1  0.5759937E-002  0.1936343E+03  0.7546771E-02  0.1155224E+00
         -2   -1    0    0    0  501 -0.00000000000E+00  0.00000000000E+00  0.34683921934E+02  0.34683921934E+02  0.00000000000E+00 0. -1.
          2   -1    0    0  503    0  0.00000000000E+00 -0.00000000000E+00 -0.11380486886E+04  0.11380486886E+04  0.00000000000E+00 0.  1.
          6    2    1    2  503    0 -0.18674749267E+02  0.82457881492E+02 -0.41899835033E+03  0.46135488056E+03  0.17361065567E+03 0.  0.
         24    2    3    3    0    0  0.22874086954E+02 -0.14899929394E+02 -0.24115452882E+03  0.25433950920E+03  0.76077903628E+02 0.  0.
         -6    2    1    2    0  501  0.18674749267E+02 -0.82457881492E+02 -0.68436641631E+03  0.71137772994E+03  0.17479369097E+03 0.  0.
        -24    2    5    5    0    0  0.35614035664E+02  0.12951053272E+02 -0.26953562278E+03  0.28535369128E+03  0.85680732159E+02 0.  0.
          4    1    4    4  502    0 -0.13905079781E+01  0.29382502214E+02 -0.10793390469E+03  0.11187042831E+03  0.00000000000E+00 0. -1.
         -3    1    4    4    0  502  0.24264594932E+02 -0.44282431607E+02 -0.13322062413E+03  0.14246908089E+03  0.00000000000E+00 0.  1.
          5    1    3    3  503    0 -0.41548836220E+02  0.97357810886E+02 -0.17784382151E+03  0.20701537136E+03  0.47000000000E+01 0. -1.
         11    1    6    6    0    0  0.43795211582E+02 -0.22754058861E+02 -0.95433492539E+02  0.10743984014E+03  0.00000000000E+00 0. -1.
        -12    1    6    6    0    0 -0.81811759172E+01  0.35705112132E+02 -0.17410213024E+03  0.17791385114E+03  0.00000000000E+00 0.  1.
         -5    1    5    5    0  501 -0.16939286398E+02 -0.95408934764E+02 -0.41483079353E+03  0.42602403866E+03  0.47000000000E+01 0.  1.
<mgrwt>
<rscale>  2 0.19363427E+03</rscale>
<asrwt>0</asrwt>
<pdfrwt beam="2">  1        2 0.17508442E+00 0.19363427E+03</pdfrwt>
<pdfrwt beam="1">  1       -2 0.53359877E-02 0.19363427E+03</pdfrwt>
<totfact> 0.38169086E+03</totfact>
</mgrwt>
</event>
<event>
12    1  0.5759937E-002  0.2324407E+03  0.7546771E-02  0.1124934E+00
         -1   -1    0    0    0  501 -0.00000000000E+00  0.00000000000E+00  0.45865310376E+02  0.45865310376E+02  0.00000000000E+00 0. -1.
          1   -1    0    0  503    0  0.00000000000E+00 -0.00000000000E+00 -0.12208345577E+04  0.12208345577E+04  0.00000000000E+00 0.  1.
          6    2    1    2  503    0  0.92131335428E+02  0.12546755455E+03 -0.70424940511E+03  0.74137731602E+03  0.17158907278E+03 0.  0.
         24    2    3    3    0    0  0.10000739573E+03  0.15143811810E+03 -0.65652618751E+03  0.68627651751E+03  0.83748676374E+02 0.  0.
         -6    2    1    2    0  501 -0.92131335428E+02 -0.12546755455E+03 -0.47071984219E+03  0.52532255203E+03  0.17365576188E+03 0.  0.
        -24    2    5    5    0    0 -0.10854446788E+02 -0.89028928099E+01 -0.11681576468E+03  0.14392585689E+03  0.82895409325E+02 0.  0.
          2    1    4    4  502    0  0.25945933478E+02  0.82757129720E+02 -0.42369107350E+03  0.43247665804E+03  0.00000000000E+00 0. -1.
         -1    1    4    4    0  502  0.74061462251E+02  0.68680988382E+02 -0.23283511400E+03  0.25379985947E+03  0.00000000000E+00 0.  1.
          5    1    3    3  503    0 -0.78760603010E+01 -0.25970563556E+02 -0.47723217606E+02  0.55100798506E+02  0.47000000000E+01 0. -1.
         11    1    6    6    0    0 -0.30987523894E+02 -0.10386155306E+02 -0.85330593825E+01  0.33777388317E+02  0.00000000000E+00 0. -1.
        -12    1    6    6    0    0  0.20133077105E+02  0.14832624959E+01 -0.10828270530E+03  0.11014846857E+03  0.00000000000E+00 0.  1.
         -5    1    5    5    0  501 -0.81276888640E+02 -0.11656466174E+03 -0.35390407751E+03  0.38139669515E+03  0.47000000000E+01 0.  1.
<mgrwt>
<rscale>  2 0.23244070E+03</rscale>
<asrwt>0</asrwt>
<pdfrwt beam="2">  1        1 0.18782067E+00 0.23244070E+03</pdfrwt>
<pdfrwt beam="1">  1       -1 0.70562029E-02 0.23244070E+03</pdfrwt>
<totfact> 0.11581765E+03</totfact>
</mgrwt>
</event>
<event>
12    1  0.5759937E-002  0.2204950E+03  0.7546771E-02  0.1133515E+00
         -2   -1    0    0    0  501 -0.00000000000E+00  0.00000000000E+00  0.19672009348E+03  0.19672009348E+03  0.00000000000E+00 0.  1.
          2   -1    0    0  503    0  0.00000000000E+00 -0.00000000000E+00 -0.24745462393E+03  0.24745462393E+03  0.00000000000E+00 0. -1.
          6    2    1    2  503    0  0.44998325909E+02  0.11552197312E+03 -0.27482806267E+02  0.23000784035E+03  0.19177624038E+03 0.  0.
         24    2    3    3    0    0  0.65511508973E+02  0.10257417604E+03  0.46119438947E+02  0.15236882549E+03  0.79221442375E+02 0.  0.
         -6    2    1    2    0  501 -0.44998325909E+02 -0.11552197312E+03 -0.23251724180E+02  0.21416687706E+03  0.17307984557E+03 0.  0.
        -24    2    5    5    0    0  0.26373556442E+02 -0.98338493448E+02 -0.30680495102E+02  0.14023113332E+03  0.91419112883E+02 0.  0.
          4    1    4    4  502    0  0.35164315799E+02  0.80388505851E+02 -0.61805000522E+01  0.87960443152E+02  0.00000000000E+00 0. -1.
         -3    1    4    4    0  502  0.30347193174E+02  0.22185670192E+02  0.52299938999E+02  0.64408382333E+02  0.00000000000E+00 0.  1.
          5    1    3    3  503    0 -0.20513183064E+02  0.12947797074E+02 -0.73602245215E+02  0.77639014864E+02  0.47000000000E+01 0. -1.
         11    1    6    6    0    0 -0.18422235738E+02 -0.49459298253E+02 -0.48391251499E+02  0.71605266391E+02  0.00000000000E+00 0. -1.
        -12    1    6    6    0    0  0.44795792180E+02 -0.48879195195E+02  0.17710756397E+02  0.68625866932E+02  0.00000000000E+00 0.  1.
         -5    1    5    5    0  501 -0.71371882351E+02 -0.17183479670E+02  0.74287709221E+01  0.73935743733E+02  0.47000000000E+01 0.  1.
<mgrwt>
<rscale>  2 0.22049504E+03</rscale>
<asrwt>0</asrwt>
<pdfrwt beam="2">  1        2 0.38069942E-01 0.22049504E+03</pdfrwt>
<pdfrwt beam="1">  1       -2 0.30264630E-01 0.22049504E+03</pdfrwt>
<totfact> 0.13508465E+03</totfact>
</mgrwt>
</event>
<event>
12    1  0.5759937E-002  0.2330926E+03  0.7546771E-02  0.1124482E+00
         -2   -1    0    0    0  501 -0.00000000000E+00  0.00000000000E+00  0.46978900161E+02  0.46978900161E+02  0.00000000000E+00 0.  1.
          2   -1    0    0  503    0  0.00000000000E+00 -0.00000000000E+00 -0.13434043171E+04  0.13434043171E+04  0.00000000000E+00 0. -1.
          6    2    1    2  503    0  0.15839680902E+03 -0.10808733949E+02 -0.39073329551E+03  0.45536398804E+03  0.17169005664E+03 0.  0.
         24    2    3    3    0    0  0.18326745732E+03 -0.29129888733E+01 -0.37362715970E+03  0.42381082941E+03  0.80143110980E+02 0.  0.
         -6    2    1    2    0  501 -0.15839680902E+03  0.10808733949E+02 -0.90569212145E+03  0.93501922925E+03  0.16963597012E+03 0.  0.
        -24    2    5    5    0    0 -0.11442909940E+03  0.43915273559E+02 -0.81999346559E+03  0.83306064907E+03  0.81106050210E+02 0.  0.
          2    1    4    4  502    0  0.13532363011E+03  0.25184804279E+02 -0.31090321073E+03  0.34001112581E+03  0.00000000000E+00 0. -1.
         -1    1    4    4    0  502  0.47943827219E+02 -0.28097793152E+02 -0.62723948968E+02  0.83799703595E+02  0.00000000000E+00 0.  1.
          5    1    3    3  503    0 -0.24870648306E+02 -0.78957450758E+01 -0.17106135807E+02  0.31553158633E+02  0.47000000000E+01 0. -1.
         11    1    6    6    0    0 -0.45791714397E+02 -0.12636466699E+02 -0.45128531188E+03  0.45377857388E+03  0.00000000000E+00 0. -1.
        -12    1    6    6    0    0 -0.68637385001E+02  0.56551740258E+02 -0.36870815371E+03  0.37928207518E+03  0.00000000000E+00 0.  1.
         -5    1    5    5    0  501 -0.43967709620E+02 -0.33106539609E+02 -0.85698655867E+02  0.10195858018E+03  0.47000000000E+01 0.  1.
<mgrwt>
<rscale>  2 0.23309261E+03</rscale>
<asrwt>0</asrwt>
<pdfrwt beam="2">  1        2 0.20667757E+00 0.23309261E+03</pdfrwt>
<pdfrwt beam="1">  1       -2 0.72275238E-02 0.23309261E+03</pdfrwt>
<totfact> 0.18419819E+03</totfact>
</mgrwt>
</event>
<event>
12    1  0.5759937E-002  0.2210166E+03  0.7546771E-02  0.1133127E+00
         -1   -1    0    0    0  501 -0.00000000000E+00  0.00000000000E+00  0.83799187735E+02  0.83799187735E+02  0.00000000000E+00 0.  1.
          1   -1    0    0  503    0  0.00000000000E+00 -0.00000000000E+00 -0.61434126977E+03  0.61434126977E+03  0.00000000000E+00 0. -1.
          6    2    1    2  503    0  0.13528080580E+03  0.15647129429E+02 -0.18629243293E+03  0.28903146897E+03  0.17403617558E+03 0.  0.
         24    2    3    3    0    0  0.98225312395E+01  0.43998528061E+02 -0.72201794960E+02  0.11703628261E+03  0.80324589381E+02 0.  0.
         -6    2    1    2    0  501 -0.13528080580E+03 -0.15647129429E+02 -0.34424964911E+03  0.40910898854E+03  0.17411666927E+03 0.  0.
        -24    2    5    5    0    0 -0.80781481053E+02 -0.58568577565E+02 -0.12514571872E+03  0.17923717770E+03  0.80675826594E+02 0.  0.
          4    1    4    4  502    0  0.19911284303E+02  0.12796242400E+02 -0.79916923999E+02  0.83348172167E+02  0.00000000000E+00 0. -1.
         -3    1    4    4    0  502 -0.10088753064E+02  0.31202285661E+02  0.77151290386E+01  0.33688110438E+02  0.00000000000E+00 0.  1.
          5    1    3    3  503    0  0.12545827456E+03 -0.28351398632E+02 -0.11409063797E+03  0.17199518636E+03  0.47000000000E+01 0. -1.
         11    1    6    6    0    0  0.10608353647E+02 -0.24748237861E+02 -0.47652669452E+02  0.54733804456E+02  0.00000000000E+00 0. -1.
        -12    1    6    6    0    0 -0.91389834699E+02 -0.33820339704E+02 -0.77493049265E+02  0.12450337324E+03  0.00000000000E+00 0.  1.
         -5    1    5    5    0  501 -0.54499324745E+02  0.42921448136E+02 -0.21910393039E+03  0.22987181084E+03  0.47000000000E+01 0.  1.
<mgrwt>
<rscale>  2 0.22101658E+03</rscale>
<asrwt>0</asrwt>
<pdfrwt beam="2">  1        1 0.94514045E-01 0.22101658E+03</pdfrwt>
<pdfrwt beam="1">  1       -1 0.12892182E-01 0.22101658E+03</pdfrwt>
<totfact> 0.13895597E+03</totfact>
</mgrwt>
</event>
<event>
12    1  0.5759937E-002  0.2269296E+03  0.7546771E-02  0.1128820E+00
         -1   -1    0    0    0  501 -0.00000000000E+00  0.00000000000E+00  0.15877822070E+03  0.15877822070E+03  0.00000000000E+00 0. -1.
          1   -1    0    0  503    0  0.00000000000E+00 -0.00000000000E+00 -0.50452924501E+03  0.50452924501E+03  0.00000000000E+00 0.  1.
          6    2    1    2  503    0  0.28533044324E+02 -0.13266601320E+03  0.29088754853E+02  0.22066977385E+03  0.17156511229E+03 0.  0.
         24    2    3    3    0    0 -0.41558101225E+02 -0.33581706506E+02  0.48473401051E+01  0.96814193813E+02  0.80589606205E+02 0.  0.
         -6    2    1    2    0  501 -0.28533044324E+02  0.13266601320E+03 -0.37483977916E+03  0.44263769185E+03  0.19237687110E+03 0.  0.
        -24    2    5    5    0    0 -0.54531487554E+02  0.12918818846E+03 -0.38220472282E+03  0.41499087087E+03  0.80459316342E+02 0.  0.
          4    1    4    4  502    0  0.20737412778E+02  0.66263744967E+01  0.62722472783E+01  0.22655909022E+02  0.00000000000E+00 0. -1.
         -3    1    4    4    0  502 -0.62295514002E+02 -0.40208081002E+02 -0.14249071732E+01  0.74158284791E+02  0.00000000000E+00 0.  1.
          5    1    3    3  503    0  0.70091145548E+02 -0.99084306697E+02  0.24241414748E+02  0.12385558004E+03  0.47000000000E+01 0. -1.
         13    1    6    6    0    0 -0.44760318955E+02  0.71694819335E+02 -0.31437239739E+03  0.32553592354E+03  0.00000000000E+00 0. -1.
        -14    1    6    6    0    0 -0.97711685986E+01  0.57493369120E+02 -0.67832325429E+02  0.89454947329E+02  0.00000000000E+00 0.  1.
         -5    1    5    5    0  501  0.25998443230E+02  0.34778247469E+01  0.73649436640E+01  0.27646820984E+02  0.47000000000E+01 0.  1.
<mgrwt>
<rscale>  2 0.22692964E+03</rscale>
<asrwt>0</asrwt>
<pdfrwt beam="2">  1        1 0.77619886E-01 0.22692964E+03</pdfrwt>
<pdfrwt beam="1">  1       -1 0.24427418E-01 0.22692964E+03</pdfrwt>
<totfact> 0.64920753E+02</totfact>
</mgrwt>
</event>
<event>
12    1  0.5759937E-002  0.1878175E+03  0.7546771E-02  0.1160445E+00
          1   -1    0    0  503    0  0.00000000000E+00  0.00000000000E+00  0.35356382522E+03  0.35356382522E+03  0.00000000000E+00 0.  1.
         -1   -1    0    0    0  501 -0.00000000000E+00 -0.00000000000E+00 -0.10052848572E+03  0.10052848572E+03  0.00000000000E+00 0. -1.
          6    2    1    2  503    0 -0.58141664809E+02 -0.45509868100E+02  0.14582389277E+03  0.23732233435E+03  0.17206301578E+03 0.  0.
         24    2    3    3    0    0  0.31645099664E+02 -0.37982481369E+02  0.56765517691E+02  0.11054769652E+03  0.80959174798E+02 0.  0.
         -6    2    1    2    0  501  0.58141664809E+02  0.45509868100E+02  0.10721144673E+03  0.21676997659E+03  0.17333011037E+03 0.  0.
        -24    2    5    5    0    0 -0.47832605796E+01  0.11375261480E+02 -0.73398012466E+01  0.81607866457E+02  0.80334892978E+02 0.  0.
          4    1    4    4  502    0  0.44985223423E+02 -0.14124736658E+02 -0.43403162728E+00  0.47152591610E+02  0.00000000000E+00 0. -1.
         -3    1    4    4    0  502 -0.13340123760E+02 -0.23857744710E+02  0.57199549319E+02  0.63395104912E+02  0.00000000000E+00 0.  1.
          5    1    3    3  503    0 -0.89786764473E+02 -0.75273867312E+01  0.89058375079E+02  0.12677463783E+03  0.47000000000E+01 0. -1.
         11    1    6    6    0    0  0.78674961450E+01  0.44727377387E+02 -0.13239073679E+01  0.45433341438E+02  0.00000000000E+00 0. -1.
        -12    1    6    6    0    0 -0.12650756725E+02 -0.33352115907E+02 -0.60158938788E+01  0.36174525019E+02  0.00000000000E+00 0.  1.
         -5    1    5    5    0  501  0.62924925388E+02  0.34134606620E+02  0.11455124797E+03  0.13516211014E+03  0.47000000000E+01 0.  1.
<mgrwt>
<rscale>  2 0.18781754E+03</rscale>
<asrwt>0</asrwt>
<pdfrwt beam="1">  1        1 0.54394434E-01 0.18781754E+03</pdfrwt>
<pdfrwt beam="2">  1       -1 0.15465921E-01 0.18781754E+03</pdfrwt>
<totfact> 0.21476489E+03</totfact>
</mgrwt>
</event>
<event>
12    1  0.5759937E-002  0.1829342E+03  0.7546771E-02  0.1164993E+00
          1   -1    0    0  503    0  0.00000000000E+00  0.00000000000E+00  0.21671924601E+03  0.21671924601E+03  0.00000000000E+00 0.  1.
         -1   -1    0    0    0  501 -0.00000000000E+00 -0.00000000000E+00 -0.18968371596E+03  0.18968371596E+03  0.00000000000E+00 0. -1.
          6    2    1    2  503    0  0.38910268234E+02  0.42106832047E+02  0.10115738417E+03  0.20934656857E+03  0.17408668852E+03 0.  0.
         24    2    3    3    0    0  0.17968953721E+02  0.34964170395E+02  0.13891663843E+03  0.16533057657E+03  0.80566684232E+02 0.  0.
         -6    2    1    2    0  501 -0.38910268234E+02 -0.42106832047E+02 -0.74121854117E+02  0.19705639340E+03  0.17334987351E+03 0.  0.
        -24    2    5    5    0    0 -0.76340820272E+02 -0.55764246264E+02 -0.19069499784E+02  0.12893574377E+03  0.85575745385E+02 0.  0.
          4    1    4    4  502    0 -0.26173612361E+02  0.35037644911E+02  0.52808132955E+02  0.68566708038E+02  0.00000000000E+00 0. -1.
         -3    1    4    4    0  502  0.44142566082E+02 -0.73474516126E-01  0.86108505474E+02  0.96763868535E+02  0.00000000000E+00 0.  1.
          5    1    3    3  503    0  0.20941314513E+02  0.71426616516E+01 -0.37759254258E+02  0.44015991993E+02  0.47000000000E+01 0. -1.
         13    1    6    6    0    0 -0.37509196649E+01 -0.24307152285E+02 -0.40130367451E+02  0.47067541282E+02  0.00000000000E+00 0. -1.
        -14    1    6    6    0    0 -0.72589900607E+02 -0.31457093978E+02  0.21060867667E+02  0.81868202488E+02  0.00000000000E+00 0.  1.
         -5    1    5    5    0  501  0.37430552038E+02  0.13657414217E+02 -0.55052354333E+02  0.68120649634E+02  0.47000000000E+01 0.  1.
<mgrwt>
<rscale>  2 0.18293421E+03</rscale>
<asrwt>0</asrwt>
<pdfrwt beam="1">  1        1 0.33341422E-01 0.18293421E+03</pdfrwt>
<pdfrwt beam="2">  1       -1 0.29182110E-01 0.18293421E+03</pdfrwt>
<totfact> 0.14064753E+03</totfact>
</mgrwt>
</event>
<event>
12    1  0.5759937E-002  0.1792328E+03  0.7546771E-02  0.1168548E+00
         -2   -1    0    0    0  501 -0.00000000000E+00  0.00000000000E+00  0.79666319702E+02  0.79666319702E+02  0.00000000000E+00 0.  1.
          2   -1    0    0  503    0  0.00000000000E+00 -0.00000000000E+00 -0.47212725629E+03  0.47212725629E+03  0.00000000000E+00 0. -1.
          6    2    1    2  503    0 -0.40837963570E+02 -0.30612875757E+02 -0.90720641806E+02  0.20076946290E+03  0.17167776487E+03 0.  0.
         24    2    3    3    0    0 -0.66044977907E+02 -0.68954528419E+02 -0.36189961477E+02  0.12934705046E+03  0.79399496571E+02 0.  0.
         -6    2    1    2    0  501  0.40837963570E+02  0.30612875757E+02 -0.30174029478E+03  0.35102411309E+03  0.17194718680E+03 0.  0.
        -24    2    5    5    0    0 -0.26815560931E+02  0.18709353706E+02 -0.73647761820E+02  0.11276587754E+03  0.78886222453E+02 0.  0.
          2    1    4    4  502    0 -0.77431038963E+02 -0.35104997487E+02 -0.38975280828E+02  0.93525393124E+02  0.00000000000E+00 0. -1.
         -1    1    4    4    0  502  0.11386061056E+02 -0.33849530932E+02  0.27853193512E+01  0.35821657340E+02  0.00000000000E+00 0.  1.
          5    1    3    3  503    0  0.25207014337E+02  0.38341652662E+02 -0.54530680329E+02  0.71422412434E+02  0.47000000000E+01 0. -1.
         11    1    6    6    0    0 -0.23373744704E+02  0.33720088356E+02 -0.84494499879E+02  0.93929211697E+02  0.00000000000E+00 0. -1.
        -12    1    6    6    0    0 -0.34418162265E+01 -0.15010734651E+02  0.10846738059E+02  0.18836665846E+02  0.00000000000E+00 0.  1.
         -5    1    5    5    0  501  0.67653524501E+02  0.11903522051E+02 -0.22809253296E+03  0.23825823555E+03  0.47000000000E+01 0.  1.
<mgrwt>
<rscale>  2 0.17923281E+03</rscale>
<asrwt>0</asrwt>
<pdfrwt beam="2">  1        2 0.72634961E-01 0.17923281E+03</pdfrwt>
<pdfrwt beam="1">  1       -2 0.12256357E-01 0.17923281E+03</pdfrwt>
<totfact> 0.31177169E+03</totfact>
</mgrwt>
</event>
<event>
12    1  0.5759937E-002  0.2506891E+03  0.7546771E-02  0.1112870E+00
          2   -1    0    0  503    0  0.00000000000E+00  0.00000000000E+00  0.24227947641E+04  0.24227947641E+04  0.00000000000E+00 0. -1.
         -2   -1    0    0    0  501 -0.00000000000E+00 -0.00000000000E+00 -0.26730190435E+02  0.26730190435E+02  0.00000000000E+00 0.  1.
          6    2    1    2  503    0  0.17208165120E+03  0.51323490015E+02  0.14007438175E+04  0.14227041877E+04  0.17250440007E+03 0.  0.
         24    2    3    3    0    0  0.28101257476E+02 -0.22208557410E+02  0.47161001138E+03  0.47959813030E+03  0.79469887745E+02 0.  0.
         -6    2    1    2    0  501 -0.17208165120E+03 -0.51323490015E+02  0.99532075618E+03  0.10268207669E+04  0.17734509948E+03 0.  0.
        -24    2    5    5    0    0 -0.12969536079E+03 -0.99046439044E+02  0.62170830114E+03  0.64776610850E+03  0.80303399170E+02 0.  0.
          4    1    4    4  502    0  0.23570296978E+02 -0.51101707764E+02  0.26343808319E+03  0.26938182402E+03  0.00000000000E+00 0. -1.
         -3    1    4    4    0  502  0.45309604979E+01  0.28893150353E+02  0.20817192818E+03  0.21021630628E+03  0.00000000000E+00 0.  1.
          5    1    3    3  503    0  0.14398039372E+03  0.73532047425E+02  0.92913380615E+03  0.94310605740E+03  0.47000000000E+01 0. -1.
         11    1    6    6    0    0 -0.62458740708E+02 -0.95059702017E+02  0.41878340832E+03  0.43395504874E+03  0.00000000000E+00 0. -1.
        -12    1    6    6    0    0 -0.67236620083E+02 -0.39867370264E+01  0.20292489282E+03  0.21381105976E+03  0.00000000000E+00 0.  1.
         -5    1    5    5    0  501 -0.42386290406E+02  0.47722949029E+02  0.37361245504E+03  0.37905465838E+03  0.47000000000E+01 0.  1.
<mgrwt>
<rscale>  2 0.25068908E+03</rscale>
<asrwt>0</asrwt>
<pdfrwt beam="1">  1        2 0.37273748E+00 0.25068908E+03</pdfrwt>
<pdfrwt beam="2">  1       -2 0.41123389E-02 0.25068908E+03</pdfrwt>
<totfact> 0.11678630E+03</totfact>
</mgrwt>
</event>
<event>
12    1  0.5759937E-002  0.1818086E+03  0.7546771E-02  0.1166064E+00
          2   -1    0    0  503    0  0.00000000000E+00  0.00000000000E+00  0.66171564346E+03  0.66171564346E+03  0.00000000000E+00 0. -1.
         -2   -1    0    0    0  501 -0.00000000000E+00 -0.00000000000E+00 -0.58218708221E+02  0.58218708221E+02  0.00000000000E+00 0.  1.
          6    2    1    2  503    0 -0.31232557043E+02 -0.57980969392E+02  0.43222621379E+03  0.46757336219E+03  0.16573498033E+03 0.  0.
         24    2    3    3    0    0 -0.25689403042E+01 -0.25416797813E+02  0.98518713366E+02  0.13102497928E+03  0.82516636182E+02 0.  0.
         -6    2    1    2    0  501  0.31232557043E+02  0.57980969392E+02  0.17127072144E+03  0.25236098949E+03  0.17324879094E+03 0.  0.
        -24    2    5    5    0    0  0.28902323070E+02  0.59680775835E+02  0.19848871746E+03  0.22458998591E+03  0.81521478941E+02 0.  0.
          2    1    4    4  502    0  0.22448584504E+02 -0.45396034019E+02  0.77997441745E+02  0.92996450307E+02  0.00000000000E+00 0. -1.
         -1    1    4    4    0  502 -0.25017524809E+02  0.19979236206E+02  0.20521271621E+02  0.38028528973E+02  0.00000000000E+00 0.  1.
          5    1    3    3  503    0 -0.28663616739E+02 -0.32564171578E+02  0.33370750043E+03  0.33654838291E+03  0.47000000000E+01 0. -1.
         13    1    6    6    0    0 -0.19094452737E+02  0.17642161406E+02  0.12314874580E+03  0.12586285225E+03  0.00000000000E+00 0. -1.
        -14    1    6    6    0    0  0.47996775807E+02  0.42038614429E+02  0.75339971664E+02  0.98727133663E+02  0.00000000000E+00 0.  1.
         -5    1    5    5    0  501  0.23302339729E+01 -0.16998064435E+01 -0.27217996022E+02  0.27771003578E+02  0.47000000000E+01 0.  1.
<mgrwt>
<rscale>  2 0.18180857E+03</rscale>
<asrwt>0</asrwt>
<pdfrwt beam="1">  1        2 0.10180240E+00 0.18180857E+03</pdfrwt>
<pdfrwt beam="2">  1       -2 0.89567248E-02 0.18180857E+03</pdfrwt>
<totfact> 0.34994418E+03</totfact>
</mgrwt>
</event>
<event>
12    1  0.5759937E-002  0.2057331E+03  0.7546771E-02  0.1144990E+00
         -2   -1    0    0    0  501 -0.00000000000E+00  0.00000000000E+00  0.27799959128E+02  0.27799959128E+02  0.00000000000E+00 0.  1.
          2   -1    0    0  503    0  0.00000000000E+00 -0.00000000000E+00 -0.17557630053E+04  0.17557630053E+04  0.00000000000E+00 0. -1.
          6    2    1    2  503    0 -0.29514327625E+02  0.10747299625E+03 -0.53983614272E+03  0.57779693647E+03  0.17321864321E+03 0.  0.
         24    2    3    3    0    0 -0.17068911071E+02  0.60780321437E+02 -0.13139821913E+03  0.16648352592E+03  0.80409434856E+02 0.  0.
         -6    2    1    2    0  501  0.29514327625E+02 -0.10747299625E+03 -0.11881269034E+04  0.12057660279E+04  0.17264018942E+03 0.  0.
        -24    2    5    5    0    0 -0.40177842471E+02 -0.98696768012E+02 -0.90410494280E+03  0.91314923949E+03  0.71277450528E+02 0.  0.
          4    1    4    4  502    0  0.18363648862E+02  0.19425668540E+02 -0.10023743025E+03  0.10374065076E+03  0.00000000000E+00 0. -1.
         -3    1    4    4    0  502 -0.35432559933E+02  0.41354652897E+02 -0.31160788882E+02  0.62742875161E+02  0.00000000000E+00 0.  1.
          5    1    3    3  503    0 -0.12445416553E+02  0.46692674812E+02 -0.40843792359E+03  0.41131341055E+03  0.47000000000E+01 0. -1.
         11    1    6    6    0    0  0.66119593665E+01 -0.73440157906E+02 -0.45997758997E+03  0.46585036017E+03  0.00000000000E+00 0. -1.
        -12    1    6    6    0    0 -0.46789801837E+02 -0.25256610106E+02 -0.44412735283E+03  0.44729887932E+03  0.00000000000E+00 0.  1.
         -5    1    5    5    0  501  0.69692170096E+02 -0.87762282364E+01 -0.28402196064E+03  0.29261678845E+03  0.47000000000E+01 0.  1.
<mgrwt>
<rscale>  2 0.20573305E+03</rscale>
<asrwt>0</asrwt>
<pdfrwt beam="2">  1        2 0.27011744E+00 0.20573305E+03</pdfrwt>
<pdfrwt beam="1">  1       -2 0.42769159E-02 0.20573305E+03</pdfrwt>
<totfact> 0.24829701E+03</totfact>
</mgrwt>
</event>
<event>
12    1  0.5759937E-002  0.1887530E+03  0.7546771E-02  0.1159591E+00
         -4   -1    0    0    0  501 -0.00000000000E+00  0.00000000000E+00  0.97074653476E+02  0.97074653476E+02  0.00000000000E+00 0.  1.
          4   -1    0    0  503    0  0.00000000000E+00 -0.00000000000E+00 -0.38401745404E+03  0.38401745404E+03  0.00000000000E+00 0. -1.
          6    2    1    2  503    0  0.95027834560E+01  0.62731225103E+02 -0.96823290729E+02  0.21658981504E+03  0.18305979584E+03 0.  0.
         24    2    3    3    0    0 -0.34800383115E+02  0.98372375996E+02 -0.88642999903E+02  0.15895241951E+03  0.80747131296E+02 0.  0.
         -6    2    1    2    0  501 -0.95027834560E+01 -0.62731225103E+02 -0.19011950984E+03  0.26450229248E+03  0.17259931984E+03 0.  0.
        -24    2    5    5    0    0 -0.37362073954E+02 -0.34165708154E+02 -0.27996989264E+02  0.97475556587E+02  0.78450191461E+02 0.  0.
          2    1    4    4  502    0 -0.40255739216E+02  0.10048864740E+03 -0.99233491058E+02  0.14685291466E+03  0.00000000000E+00 0. -1.
         -1    1    4    4    0  502  0.54553561013E+01 -0.21162714015E+01  0.10590491154E+02  0.12099504855E+02  0.00000000000E+00 0.  1.
          5    1    3    3  503    0  0.44303166571E+02 -0.35641150894E+02 -0.81802908256E+01  0.57637395528E+02  0.47000000000E+01 0. -1.
         11    1    6    6    0    0 -0.53792058263E+02 -0.26835051340E+02 -0.43113978257E+02  0.73976487033E+02  0.00000000000E+00 0. -1.
        -12    1    6    6    0    0  0.16429984309E+02 -0.73306568148E+01  0.15116988993E+02  0.23499069554E+02  0.00000000000E+00 0.  1.
         -5    1    5    5    0  501  0.27859290498E+02 -0.28565516948E+02 -0.16212252058E+03  0.16702673589E+03  0.47000000000E+01 0.  1.
<mgrwt>
<rscale>  2 0.18875298E+03</rscale>
<asrwt>0</asrwt>
<pdfrwt beam="2">  1        4 0.59079608E-01 0.18875298E+03</pdfrwt>
<pdfrwt beam="1">  1       -4 0.14934562E-01 0.18875298E+03</pdfrwt>
<totfact> 0.18354825E+02</totfact>
</mgrwt>
</event>
<event>
12    1  0.5759937E-002  0.2128216E+03  0.7546771E-02  0.1139351E+00
         -2   -1    0    0    0  501 -0.00000000000E+00  0.00000000000E+00  0.92299767687E+01  0.92299767687E+01  0.00000000000E+00 0.  1.
          2   -1    0    0  503    0  0.00000000000E+00 -0.00000000000E+00 -0.49728177037E+04  0.49728177037E+04  0.00000000000E+00 0. -1.
          6    2    1    2  503    0  0.91013914151E+02  0.86367346734E+02 -0.27787314079E+04  0.27869423416E+04  0.17307953850E+03 0.  0.
         24    2    3    3    0    0  0.47286407871E+02  0.67511622374E+02 -0.25833543153E+04  0.25857908278E+04  0.76163399873E+02 0.  0.
         -6    2    1    2    0  501 -0.91013914151E+02 -0.86367346734E+02 -0.21848563190E+04  0.21951053389E+04  0.17072628107E+03 0.  0.
        -24    2    5    5    0    0  0.10076798704E+02 -0.69296833482E+02 -0.94521710650E+03  0.95122503847E+03  0.80561171652E+02 0.  0.
          4    1    4    4  502    0  0.27010423903E+02  0.61576121773E+02 -0.24361915443E+04  0.24371192876E+04  0.00000000000E+00 0. -1.
         -3    1    4    4    0  502  0.20275983968E+02  0.59355006004E+01 -0.14716277103E+03  0.14867154022E+03  0.00000000000E+00 0.  1.
          5    1    3    3  503    0  0.43727506280E+02  0.18855724360E+02 -0.19537709265E+03  0.20115151373E+03  0.47000000000E+01 0. -1.
         13    1    6    6    0    0  0.39984228054E+02 -0.12373372454E+02 -0.42235475092E+03  0.42442357906E+03  0.00000000000E+00 0. -1.
        -14    1    6    6    0    0 -0.29907429350E+02 -0.56923461028E+02 -0.52286235558E+03  0.52680145941E+03  0.00000000000E+00 0.  1.
         -5    1    5    5    0  501 -0.10109071286E+03 -0.17070513252E+02 -0.12396392125E+04  0.12438803005E+04  0.47000000000E+01 0.  1.
<mgrwt>
<rscale>  2 0.21282161E+03</rscale>
<asrwt>0</asrwt>
<pdfrwt beam="2">  1        2 0.76504840E+00 0.21282161E+03</pdfrwt>
<pdfrwt beam="1">  1       -2 0.14199973E-02 0.21282161E+03</pdfrwt>
<totfact> 0.72171791E+01</totfact>
</mgrwt>
</event>
<event>
12    1  0.5759937E-002  0.2334384E+03  0.7546771E-02  0.1124243E+00
          1   -1    0    0  503    0  0.00000000000E+00  0.00000000000E+00  0.11397620547E+04  0.11397620547E+04  0.00000000000E+00 0.  1.
         -1   -1    0    0    0  501 -0.00000000000E+00 -0.00000000000E+00 -0.52743428164E+02  0.52743428164E+02  0.00000000000E+00 0. -1.
          6    2    1    2  503    0  0.22121205365E+02 -0.15576653052E+03  0.72418271339E+03  0.76063840082E+03  0.17139899263E+03 0.  0.
         24    2    3    3    0    0  0.72466163215E+02 -0.73145908796E+02  0.33486486381E+03  0.35945108807E+03  0.80429714108E+02 0.  0.
         -6    2    1    2    0  501 -0.22121205365E+02  0.15576653052E+03  0.36283591315E+03  0.43186708204E+03  0.17351287251E+03 0.  0.
        -24    2    5    5    0    0 -0.36589304472E+02  0.18152853631E+03  0.29459540443E+03  0.35735625153E+03  0.81398105010E+02 0.  0.
          2    1    4    4  502    0  0.65816957041E+02 -0.12610713744E+02  0.13852316144E+03  0.15388166945E+03  0.00000000000E+00 0. -1.
         -1    1    4    4    0  502  0.66492061741E+01 -0.60535195052E+02  0.19634170237E+03  0.20556941862E+03  0.00000000000E+00 0.  1.
          5    1    3    3  503    0 -0.50344957850E+02 -0.82620621724E+02  0.38931784958E+03  0.40118731276E+03  0.47000000000E+01 0. -1.
         13    1    6    6    0    0  0.22831507524E+02  0.89916403872E+02  0.14528213962E+03  0.17237499098E+03  0.00000000000E+00 0. -1.
        -14    1    6    6    0    0 -0.59420811996E+02  0.91612132438E+02  0.14931326481E+03  0.18498126055E+03  0.00000000000E+00 0.  1.
         -5    1    5    5    0  501  0.14468099107E+02 -0.25762005789E+02  0.68240508716E+02  0.74510830514E+02  0.47000000000E+01 0.  1.
<mgrwt>
<rscale>  2 0.23343844E+03</rscale>
<asrwt>0</asrwt>
<pdfrwt beam="1">  1        1 0.17534799E+00 0.23343844E+03</pdfrwt>
<pdfrwt beam="2">  1       -1 0.81143744E-02 0.23343844E+03</pdfrwt>
<totfact> 0.10668746E+03</totfact>
</mgrwt>
</event>
<event>
12    1  0.5759937E-002  0.2233381E+03  0.7546771E-02  0.1131419E+00
          3   -1    0    0  503    0  0.00000000000E+00  0.00000000000E+00  0.12377555255E+03  0.12377555255E+03  0.00000000000E+00 0.  1.
         -3   -1    0    0    0  501 -0.00000000000E+00 -0.00000000000E+00 -0.44798763283E+03  0.44798763283E+03  0.00000000000E+00 0. -1.
          6    2    1    2  503    0  0.13067007069E+03  0.53101754284E+02 -0.25289437153E+03  0.33757945919E+03  0.17352194223E+03 0.  0.
         24    2    3    3    0    0  0.38926066760E+02  0.10970630630E+02 -0.21048417574E+02  0.84663207831E+02  0.71338835623E+02 0.  0.
         -6    2    1    2    0  501 -0.13067007069E+03 -0.53101754284E+02 -0.71317708755E+02  0.23418372618E+03  0.17280433543E+03 0.  0.
        -24    2    5    5    0    0 -0.13923354194E+03 -0.65282048449E+02 -0.10052939473E+03  0.20106114774E+03  0.81680480371E+02 0.  0.
          4    1    4    4  502    0  0.40849089383E+02 -0.23729499197E+02 -0.11461099615E+02  0.48611665677E+02  0.00000000000E+00 0. -1.
         -3    1    4    4    0  502 -0.19230226222E+01  0.34700129827E+02 -0.95873179589E+01  0.36051542154E+02  0.00000000000E+00 0.  1.
          5    1    3    3  503    0  0.91744003933E+02  0.42131123654E+02 -0.23184595395E+03  0.25291625136E+03  0.47000000000E+01 0. -1.
         13    1    6    6    0    0 -0.61238262650E+02 -0.17378588414E+02 -0.88097878797E+02  0.10868935733E+03  0.00000000000E+00 0. -1.
        -14    1    6    6    0    0 -0.77995279292E+02 -0.47903460034E+02 -0.12431515929E+02  0.92371790409E+02  0.00000000000E+00 0.  1.
         -5    1    5    5    0  501  0.85634712478E+01  0.12180294164E+02  0.29211685972E+02  0.33122578448E+02  0.47000000000E+01 0.  1.
<mgrwt>
<rscale>  2 0.22333811E+03</rscale>
<asrwt>0</asrwt>
<pdfrwt beam="1">  1        3 0.19042393E-01 0.22333811E+03</pdfrwt>
<pdfrwt beam="2">  1       -3 0.68921175E-01 0.22333811E+03</pdfrwt>
<totfact> 0.12419569E+02</totfact>
</mgrwt>
</event>
<event>
12    1  0.5759937E-002  0.3105623E+03  0.7546771E-02  0.1080077E+00
          2   -1    0    0  503    0  0.00000000000E+00  0.00000000000E+00  0.43722916592E+03  0.43722916592E+03  0.00000000000E+00 0. -1.
         -2   -1    0    0    0  501 -0.00000000000E+00 -0.00000000000E+00 -0.23487063481E+03  0.23487063481E+03  0.00000000000E+00 0.  1.
          6    2    1    2  503    0  0.16698456871E+03  0.19582609465E+03  0.18250814652E+02  0.31087245254E+03  0.17342688367E+03 0.  0.
         24    2    3    3    0    0  0.56188155742E+02  0.16999617960E+03  0.19568186056E+02  0.19700035277E+03  0.79814880591E+02 0.  0.
         -6    2    1    2    0  501 -0.16698456871E+03 -0.19582609465E+03  0.18410771647E+03  0.36122734819E+03  0.17423501453E+03 0.  0.
        -24    2    5    5    0    0 -0.13644559341E+03 -0.20124815724E+03  0.20090499518E+03  0.32564271181E+03  0.81007023848E+02 0.  0.
          4    1    4    4  502    0 -0.45704633378E+01 -0.45543700035E+01 -0.78428246170E+01  0.10155851477E+02  0.00000000000E+00 0. -1.
         -3    1    4    4    0  502  0.60758619080E+02  0.17455054960E+03  0.27411010673E+02  0.18684450130E+03  0.00000000000E+00 0.  1.
          5    1    3    3  503    0  0.11079641296E+03  0.25829915053E+02 -0.13173714045E+01  0.11387209976E+03  0.47000000000E+01 0. -1.
         13    1    6    6    0    0 -0.11110566426E+03 -0.96357422085E+02  0.99507089133E+02  0.17756937295E+03  0.00000000000E+00 0. -1.
        -14    1    6    6    0    0 -0.25339929151E+02 -0.10489073515E+03  0.10139790604E+03  0.14807333886E+03  0.00000000000E+00 0.  1.
         -5    1    5    5    0  501 -0.30538975292E+02  0.54220625882E+01 -0.16797278711E+02  0.35584636386E+02  0.47000000000E+01 0.  1.
<mgrwt>
<rscale>  2 0.31056234E+03</rscale>
<asrwt>0</asrwt>
<pdfrwt beam="1">  1        2 0.67266025E-01 0.31056234E+03</pdfrwt>
<pdfrwt beam="2">  1       -2 0.36133944E-01 0.31056234E+03</pdfrwt>
<totfact> 0.52543698E+02</totfact>
</mgrwt>
</event>
<event>
12    1  0.5759937E-002  0.2111428E+03  0.7546771E-02  0.1140664E+00
          1   -1    0    0  503    0  0.00000000000E+00  0.00000000000E+00  0.85008333531E+03  0.85008333531E+03  0.00000000000E+00 0. -1.
         -1   -1    0    0    0  501 -0.00000000000E+00 -0.00000000000E+00 -0.88527193191E+02  0.88527193191E+02  0.00000000000E+00 0.  1.
          6    2    1    2  503    0  0.30520531828E+02  0.11737027129E+03  0.81180953020E+02  0.22623278729E+03  0.17286886205E+03 0.  0.
         24    2    3    3    0    0  0.43222582125E+01  0.95365326527E+02  0.12056729903E+03  0.17385014334E+03  0.81081263717E+02 0.  0.
         -6    2    1    2    0  501 -0.30520531828E+02 -0.11737027129E+03  0.68037518910E+03  0.71237774121E+03  0.17281309206E+03 0.  0.
        -24    2    5    5    0    0 -0.12090784154E+01 -0.11554656544E+03  0.66346418811E+03  0.67816430586E+03  0.79809937886E+02 0.  0.
          4    1    4    4  502    0  0.16258910379E+02  0.67743886646E+02  0.12532366751E+03  0.14338621964E+03  0.00000000000E+00 0. -1.
         -3    1    4    4    0  502 -0.11936652167E+02  0.27621439881E+02 -0.47563684847E+01  0.30463923700E+02  0.00000000000E+00 0.  1.
          5    1    3    3  503    0  0.26198273616E+02  0.22004944762E+02 -0.39386346010E+02  0.52382643943E+02  0.47000000000E+01 0. -1.
         11    1    6    6    0    0 -0.38950423368E+02 -0.77177004288E+02  0.39268263703E+03  0.40208590985E+03  0.00000000000E+00 0. -1.
        -12    1    6    6    0    0  0.37741344952E+02 -0.38369561148E+02  0.27078155107E+03  0.27607839601E+03  0.00000000000E+00 0.  1.
         -5    1    5    5    0  501 -0.29311453413E+02 -0.18237058537E+01  0.16911000992E+02  0.34213435355E+02  0.47000000000E+01 0.  1.
<mgrwt>
<rscale>  2 0.21114281E+03</rscale>
<asrwt>0</asrwt>
<pdfrwt beam="1">  1        1 0.13078205E+00 0.21114281E+03</pdfrwt>
<pdfrwt beam="2">  1       -1 0.13619569E-01 0.21114281E+03</pdfrwt>
<totfact> 0.78942366E+02</totfact>
</mgrwt>
</event>
<event>
12    1  0.5759937E-002  0.2025357E+03  0.7546771E-02  0.1147617E+00
          2   -1    0    0  503    0  0.00000000000E+00  0.00000000000E+00  0.13058102172E+04  0.13058102172E+04  0.00000000000E+00 0.  1.
         -2   -1    0    0    0  501 -0.00000000000E+00 -0.00000000000E+00 -0.31445978690E+02  0.31445978690E+02  0.00000000000E+00 0. -1.
          6    2    1    2  503    0  0.80525261235E+02 -0.72847834668E+02  0.66386391823E+03  0.69467848836E+03  0.17341215517E+03 0.  0.
         24    2    3    3    0    0  0.88409182480E+02 -0.10648164974E+03  0.44164956623E+03  0.46974583630E+03  0.80326123363E+02 0.  0.
         -6    2    1    2    0  501 -0.80525261235E+02  0.72847834668E+02  0.61050032028E+03  0.64257770752E+03  0.16853588470E+03 0.  0.
        -24    2    5    5    0    0 -0.54401381475E+02  0.69000104794E+02  0.21334522135E+03  0.24451800758E+03  0.80946573654E+02 0.  0.
          4    1    4    4  502    0  0.33969197895E+02 -0.24379424311E+02  0.46642561872E+02  0.62640173318E+02  0.00000000000E+00 0. -1.
         -3    1    4    4    0  502  0.54439984585E+02 -0.82102225425E+02  0.39500700435E+03  0.40710566298E+03  0.00000000000E+00 0.  1.
          5    1    3    3  503    0 -0.78839212451E+01  0.33633815068E+02  0.22221435200E+03  0.22493265207E+03  0.47000000000E+01 0. -1.
         11    1    6    6    0    0  0.68162192179E+01  0.47854944622E+02  0.53786887702E+02  0.72315875559E+02  0.00000000000E+00 0. -1.
        -12    1    6    6    0    0 -0.61217600693E+02  0.21145160172E+02  0.15955833365E+03  0.17220213202E+03  0.00000000000E+00 0.  1.
         -5    1    5    5    0  501 -0.26123879760E+02  0.38477298737E+01  0.39715509893E+03  0.39805969995E+03  0.47000000000E+01 0.  1.
<mgrwt>
<rscale>  2 0.20253571E+03</rscale>
<asrwt>0</asrwt>
<pdfrwt beam="1">  1        2 0.20089384E+00 0.20253571E+03</pdfrwt>
<pdfrwt beam="2">  1       -2 0.48378439E-02 0.20253571E+03</pdfrwt>
<totfact> 0.35703933E+03</totfact>
</mgrwt>
</event>
<event>
12    1  0.5759937E-002  0.2169837E+03  0.7546771E-02  0.1136152E+00
         -2   -1    0    0    0  501 -0.00000000000E+00  0.00000000000E+00  0.16725127097E+03  0.16725127097E+03  0.00000000000E+00 0. -1.
          2   -1    0    0  503    0  0.00000000000E+00 -0.00000000000E+00 -0.76084583585E+03  0.76084583585E+03  0.00000000000E+00 0.  1.
          6    2    1    2  503    0  0.13078572524E+03  0.33542356432E+01  0.71302189387E+02  0.22883137280E+03  0.17367682098E+03 0.  0.
         24    2    3    3    0    0  0.98091102137E+02  0.68155788362E+02  0.39564937307E+02  0.14947444000E+03  0.80685489049E+02 0.  0.
         -6    2    1    2    0  501 -0.13078572524E+03 -0.33542356432E+01 -0.66489675427E+03  0.69926573401E+03  0.17253612984E+03 0.  0.
        -24    2    5    5    0    0 -0.91171432289E+02  0.25910070134E+02 -0.22345054714E+03  0.25505572108E+03  0.78356314602E+02 0.  0.
          2    1    4    4  502    0  0.48088169859E+02  0.75984255877E+02  0.41030496262E+02  0.98841190023E+02  0.00000000000E+00 0. -1.
         -1    1    4    4    0  502  0.50002932278E+02 -0.78284675154E+01 -0.14655589556E+01  0.50633249975E+02  0.00000000000E+00 0.  1.
          5    1    3    3  503    0  0.32694623104E+02 -0.64801552718E+02  0.31737252081E+02  0.79356932805E+02  0.47000000000E+01 0. -1.
         11    1    6    6    0    0 -0.16754818555E+02  0.43026449492E+02 -0.94889099756E+02  0.10552696600E+03  0.00000000000E+00 0. -1.
        -12    1    6    6    0    0 -0.74416613734E+02 -0.17116379358E+02 -0.12856144738E+03  0.14952875508E+03  0.00000000000E+00 0.  1.
         -5    1    5    5    0  501 -0.39614292951E+02 -0.29264305777E+02 -0.44144620713E+03  0.44421001293E+03  0.47000000000E+01 0.  1.
<mgrwt>
<rscale>  2 0.21698369E+03</rscale>
<asrwt>0</asrwt>
<pdfrwt beam="2">  1        2 0.11705321E+00 0.21698369E+03</pdfrwt>
<pdfrwt beam="1">  1       -2 0.25730964E-01 0.21698369E+03</pdfrwt>
<totfact> 0.51512076E+02</totfact>
</mgrwt>
</event>
<event>
12    1  0.5759937E-002  0.1841175E+03  0.7546771E-02  0.1163877E+00
         -2   -1    0    0    0  501 -0.00000000000E+00  0.00000000000E+00  0.41909402992E+02  0.41909402992E+02  0.00000000000E+00 0.  1.
          2   -1    0    0  503    0  0.00000000000E+00 -0.00000000000E+00 -0.81248999594E+03  0.81248999594E+03  0.00000000000E+00 0. -1.
          6    2    1    2  503    0  0.54941617281E+02 -0.33834299885E+02 -0.41378115395E+03  0.45289058516E+03  0.17242881896E+03 0.  0.
         24    2    3    3    0    0  0.32490953445E+02  0.48014528846E+02 -0.22739559282E+03  0.24803714861E+03  0.80328167037E+02 0.  0.
         -6    2    1    2    0  501 -0.54941617281E+02  0.33834299885E+02 -0.35679943900E+03  0.40150881377E+03  0.17245331747E+03 0.  0.
        -24    2    5    5    0    0 -0.13149250291E+01  0.79074722692E+02 -0.20304869695E+03  0.23244107983E+03  0.80904520663E+02 0.  0.
          4    1    4    4  502    0 -0.42185915444E+01  0.36632753786E+02 -0.19290149637E+03  0.19639435447E+03  0.00000000000E+00 0. -1.
         -3    1    4    4    0  502  0.36709544989E+02  0.11381775060E+02 -0.34494096450E+02  0.51642794141E+02  0.00000000000E+00 0.  1.
          5    1    3    3  503    0  0.22450663836E+02 -0.81848828732E+02 -0.18638556113E+03  0.20485343656E+03  0.47000000000E+01 0. -1.
         13    1    6    6    0    0 -0.17621120879E+02  0.15573650152E+02 -0.13833902439E+03  0.14032365499E+03  0.00000000000E+00 0. -1.
        -14    1    6    6    0    0  0.16306195850E+02  0.63501072541E+02 -0.64709672557E+02  0.92117424841E+02  0.00000000000E+00 0.  1.
         -5    1    5    5    0  501 -0.53626692252E+02 -0.45240422807E+02 -0.15375074205E+03  0.16906773394E+03  0.47000000000E+01 0.  1.
<mgrwt>
<rscale>  2 0.18411753E+03</rscale>
<asrwt>0</asrwt>
<pdfrwt beam="2">  1        2 0.12499846E+00 0.18411753E+03</pdfrwt>
<pdfrwt beam="1">  1       -2 0.64476007E-02 0.18411753E+03</pdfrwt>
<totfact> 0.45354001E+03</totfact>
</mgrwt>
</event>
<event>
12    1  0.5759937E-002  0.1890236E+03  0.7546771E-02  0.1159345E+00
         -2   -1    0    0    0  501 -0.00000000000E+00  0.00000000000E+00  0.49076580361E+02  0.49076580361E+02  0.00000000000E+00 0. -1.
          2   -1    0    0  503    0  0.00000000000E+00 -0.00000000000E+00 -0.80296668037E+03  0.80296668037E+03  0.00000000000E+00 0.  1.
          6    2    1    2  503    0  0.77259646149E+02  0.44142984863E+01 -0.24279057992E+03  0.30631005762E+03  0.16997072320E+03 0.  0.
         24    2    3    3    0    0 -0.11086613197E+02  0.25562129960E+02 -0.16760818300E+03  0.18829829921E+03  0.81162867098E+02 0.  0.
         -6    2    1    2    0  501 -0.77259646149E+02 -0.44142984863E+01 -0.51109952009E+03  0.54573320311E+03  0.17496705573E+03 0.  0.
        -24    2    5    5    0    0 -0.10209645696E+03 -0.49446509775E+02 -0.33958410833E+03  0.36661203269E+03  0.78856654933E+02 0.  0.
          2    1    4    4  502    0 -0.33997862527E+02 -0.16350352864E+02 -0.65952595693E+02  0.75979823465E+02  0.00000000000E+00 0. -1.
         -1    1    4    4    0  502  0.22911249330E+02  0.41912482824E+02 -0.10165558731E+03  0.11231847574E+03  0.00000000000E+00 0.  1.
          5    1    3    3  503    0  0.88346259346E+02 -0.21147831474E+02 -0.75182396919E+02  0.11801175841E+03  0.47000000000E+01 0. -1.
         13    1    6    6    0    0 -0.61373595545E+02  0.13622626168E+02 -0.14463721471E+03  0.15770928334E+03  0.00000000000E+00 0. -1.
        -14    1    6    6    0    0 -0.40722861411E+02 -0.63069135943E+02 -0.19494689363E+03  0.20890274935E+03  0.00000000000E+00 0.  1.
         -5    1    5    5    0  501  0.24836810808E+02  0.45032211289E+02 -0.17151541176E+03  0.17912117042E+03  0.47000000000E+01 0.  1.
<mgrwt>
<rscale>  2 0.18902356E+03</rscale>
<asrwt>0</asrwt>
<pdfrwt beam="2">  1        2 0.12353334E+00 0.18902356E+03</pdfrwt>
<pdfrwt beam="1">  1       -2 0.75502430E-02 0.18902356E+03</pdfrwt>
<totfact> 0.36118187E+03</totfact>
</mgrwt>
</event>
<event>
12    1  0.5759937E-002  0.2555857E+03  0.7546771E-02  0.1109825E+00
         -1   -1    0    0    0  501 -0.00000000000E+00  0.00000000000E+00  0.22482431767E+03  0.22482431767E+03  0.00000000000E+00 0.  1.
          1   -1    0    0  503    0  0.00000000000E+00 -0.00000000000E+00 -0.68327925381E+03  0.68327925381E+03  0.00000000000E+00 0. -1.
          6    2    1    2  503    0  0.16253888192E+03 -0.98264289415E+02 -0.57390470503E+03  0.62872700874E+03  0.17278970556E+03 0.  0.
         24    2    3    3    0    0  0.10311935830E+03 -0.10041385264E+02 -0.19318368820E+03  0.23339860948E+03  0.80128284929E+02 0.  0.
         -6    2    1    2    0  501 -0.16253888192E+03  0.98264289415E+02  0.11544976888E+03  0.27937656274E+03  0.16925677524E+03 0.  0.
        -24    2    5    5    0    0 -0.75262945904E+02  0.79019225052E+02  0.13159391736E+03  0.18843600501E+03  0.79262979671E+02 0.  0.
          2    1    4    4  502    0  0.78521024233E+02  0.12555082444E+02 -0.18125503939E+03  0.19793072183E+03  0.00000000000E+00 0. -1.
         -1    1    4    4    0  502  0.24598334064E+02 -0.22596467708E+02 -0.11928648816E+02  0.35467887647E+02  0.00000000000E+00 0.  1.
          5    1    3    3  503    0  0.59419523622E+02 -0.88222904151E+02 -0.38072101683E+03  0.39532839926E+03  0.47000000000E+01 0. -1.
         13    1    6    6    0    0 -0.18542012051E+02  0.22869470408E+02 -0.53572084448E+01  0.29925216289E+02  0.00000000000E+00 0. -1.
        -14    1    6    6    0    0 -0.56720933853E+02  0.56149754644E+02  0.13695112580E+03  0.15851078873E+03  0.00000000000E+00 0.  1.
         -5    1    5    5    0  501 -0.87275936016E+02  0.19245064363E+02 -0.16144148474E+02  0.90940557727E+02  0.47000000000E+01 0.  1.
<mgrwt>
<rscale>  2 0.25558567E+03</rscale>
<asrwt>0</asrwt>
<pdfrwt beam="2">  1        1 0.10511988E+00 0.25558567E+03</pdfrwt>
<pdfrwt beam="1">  1       -1 0.34588357E-01 0.25558567E+03</pdfrwt>
<totfact> 0.23588953E+02</totfact>
</mgrwt>
</event>
<event>
12    1  0.5759937E-002  0.1787012E+03  0.7546771E-02  0.1169066E+00
         -2   -1    0    0    0  501 -0.00000000000E+00  0.00000000000E+00  0.16161836550E+02  0.16161836550E+02  0.00000000000E+00 0. -1.
          2   -1    0    0  503    0  0.00000000000E+00 -0.00000000000E+00 -0.20254232266E+04  0.20254232266E+04  0.00000000000E+00 0.  1.
          6    2    1    2  503    0  0.30495208464E+02 -0.28574940247E+02 -0.84477311996E+03  0.86345842205E+03  0.17370186369E+03 0.  0.
         24    2    3    3    0    0  0.19530511704E+02 -0.74236516389E+02 -0.38154602729E+03  0.39783342971E+03  0.82471604790E+02 0.  0.
         -6    2    1    2    0  501 -0.30495208464E+02  0.28574940247E+02 -0.11644882701E+04  0.11781266411E+04  0.17379000648E+03 0.  0.
        -24    2    5    5    0    0 -0.30051673752E+02 -0.19657536339E+02 -0.10480956442E+04  0.10520476901E+04  0.83727779453E+02 0.  0.
          4    1    4    4  502    0 -0.51476537027E+01 -0.26572819672E+02 -0.29330126426E+03  0.29454752536E+03  0.00000000000E+00 0. -1.
         -3    1    4    4    0  502  0.24678165406E+02 -0.47663696717E+02 -0.88244763037E+02  0.10328590434E+03  0.00000000000E+00 0.  1.
          5    1    3    3  503    0  0.10964696760E+02  0.45661576142E+02 -0.46322709267E+03  0.46562499234E+03  0.47000000000E+01 0. -1.
         11    1    6    6    0    0  0.11617425733E+02 -0.41896816288E+02 -0.55134027968E+03  0.55305190696E+03  0.00000000000E+00 0. -1.
        -12    1    6    6    0    0 -0.41669099485E+02  0.22239279949E+02 -0.49675536455E+03  0.49899578318E+03  0.00000000000E+00 0.  1.
         -5    1    5    5    0  501 -0.44353471144E+00  0.48232476586E+02 -0.11639262586E+03  0.12607895096E+03  0.47000000000E+01 0.  1.
<mgrwt>
<rscale>  2 0.17870124E+03</rscale>
<asrwt>0</asrwt>
<pdfrwt beam="2">  1        2 0.31160336E+00 0.17870124E+03</pdfrwt>
<pdfrwt beam="1">  1       -2 0.24864381E-02 0.17870124E+03</pdfrwt>
<totfact> 0.40314959E+03</totfact>
</mgrwt>
</event>
<event>
12    1  0.5759937E-002  0.1912146E+03  0.7546771E-02  0.1157370E+00
         -2   -1    0    0    0  501 -0.00000000000E+00  0.00000000000E+00  0.50366746500E+02  0.50366746500E+02  0.00000000000E+00 0.  1.
          2   -1    0    0  503    0  0.00000000000E+00 -0.00000000000E+00 -0.73037092121E+03  0.73037092121E+03  0.00000000000E+00 0. -1.
          6    2    1    2  503    0  0.80061331859E+02  0.12526972332E+02 -0.30984991605E+03  0.36418078300E+03  0.17336069432E+03 0.  0.
         24    2    3    3    0    0  0.47788919658E+02 -0.35150701643E+02 -0.80359956307E+02  0.12753251910E+03  0.79293556998E+02 0.  0.
         -6    2    1    2    0  501 -0.80061331859E+02 -0.12526972332E+02 -0.37015425865E+03  0.41655688470E+03  0.17302809339E+03 0.  0.
        -24    2    5    5    0    0 -0.90156038533E+02 -0.57597008972E+02 -0.32629502596E+03  0.35269035514E+03  0.80476803615E+02 0.  0.
          4    1    4    4  502    0  0.43455867038E+02 -0.50963551903E+02 -0.87042201377E+02  0.10982732275E+03  0.00000000000E+00 0. -1.
         -3    1    4    4    0  502  0.43330526201E+01  0.15812850261E+02  0.66822450702E+01  0.17705196343E+02  0.00000000000E+00 0.  1.
          5    1    3    3  503    0  0.32272412200E+02  0.47677673974E+02 -0.22948995975E+03  0.23664826390E+03  0.47000000000E+01 0. -1.
         11    1    6    6    0    0 -0.37588771435E+02  0.10587023900E+02 -0.16818677027E+03  0.17266091193E+03  0.00000000000E+00 0. -1.
        -12    1    6    6    0    0 -0.52567267098E+02 -0.68184032871E+02 -0.15810825568E+03  0.18002944322E+03  0.00000000000E+00 0.  1.
         -5    1    5    5    0  501  0.10094706674E+02  0.45070036640E+02 -0.43859232697E+02  0.63866529562E+02  0.47000000000E+01 0.  1.
<mgrwt>
<rscale>  2 0.19121460E+03</rscale>
<asrwt>0</asrwt>
<pdfrwt beam="2">  1        2 0.11236476E+00 0.19121460E+03</pdfrwt>
<pdfrwt beam="1">  1       -2 0.77487303E-02 0.19121460E+03</pdfrwt>
<totfact> 0.39035939E+03</totfact>
</mgrwt>
</event>
<event>
12    1  0.5759937E-002  0.1848506E+03  0.7546771E-02  0.1163189E+00
          2   -1    0    0  503    0  0.00000000000E+00  0.00000000000E+00  0.48945526439E+03  0.48945526439E+03  0.00000000000E+00 0.  1.
         -2   -1    0    0    0  501 -0.00000000000E+00 -0.00000000000E+00 -0.15272727751E+03  0.15272727751E+03  0.00000000000E+00 0. -1.
          6    2    1    2  503    0  0.17729828060E+02 -0.60025712210E+02  0.40517318823E+03  0.44557328509E+03  0.17450732649E+03 0.  0.
         24    2    3    3    0    0  0.49370592572E+02 -0.88585574382E+02  0.36256215975E+03  0.38512005148E+03  0.81125057593E+02 0.  0.
         -6    2    1    2    0  501 -0.17729828060E+02  0.60025712210E+02 -0.68445201349E+02  0.19660925680E+03  0.17335807262E+03 0.  0.
        -24    2    5    5    0    0 -0.41449913332E+02  0.10024383189E+03 -0.61917770263E+02  0.14922954646E+03  0.81662268606E+02 0.  0.
          4    1    4    4  502    0  0.31818343402E+02 -0.14650689141E+01  0.17107375617E+03  0.17401374501E+03  0.00000000000E+00 0. -1.
         -3    1    4    4    0  502  0.17552249170E+02 -0.87120505468E+02  0.19148840358E+03  0.21110630647E+03  0.00000000000E+00 0.  1.
          5    1    3    3  503    0 -0.31640764512E+02  0.28559862171E+02  0.42611028483E+02  0.60453233615E+02  0.47000000000E+01 0. -1.
         13    1    6    6    0    0 -0.99351883985E+01 -0.10320856097E+00 -0.40746711254E+02  0.41940590107E+02  0.00000000000E+00 0. -1.
        -14    1    6    6    0    0 -0.31514724933E+02  0.10034704045E+03 -0.21171059009E+02  0.10728895635E+03  0.00000000000E+00 0.  1.
         -5    1    5    5    0  501  0.23720085272E+02 -0.40218119679E+02 -0.65274310862E+01  0.47379710345E+02  0.47000000000E+01 0.  1.
<mgrwt>
<rscale>  2 0.18485065E+03</rscale>
<asrwt>0</asrwt>
<pdfrwt beam="1">  1        2 0.75300809E-01 0.18485065E+03</pdfrwt>
<pdfrwt beam="2">  1       -2 0.23496505E-01 0.18485065E+03</pdfrwt>
<totfact> 0.10106154E+03</totfact>
</mgrwt>
</event>
<event>
12    1  0.5759937E-002  0.3322177E+03  0.7546771E-02  0.1070160E+00
         -2   -1    0    0    0  501 -0.00000000000E+00  0.00000000000E+00  0.33061036723E+03  0.33061036723E+03  0.00000000000E+00 0.  1.
          2   -1    0    0  503    0  0.00000000000E+00 -0.00000000000E+00 -0.39196658532E+03  0.39196658532E+03  0.00000000000E+00 0. -1.
          6    2    1    2  503    0  0.25927838144E+03 -0.11410012946E+03  0.10843921697E+03  0.34970568674E+03  0.17404276755E+03 0.  0.
         24    2    3    3    0    0  0.13809513923E+03 -0.22144808037E+02 -0.27648096082E+01  0.16121275622E+03  0.80132693657E+02 0.  0.
         -6    2    1    2    0  501 -0.25927838144E+03  0.11410012946E+03 -0.16979543507E+03  0.37287126581E+03  0.17308487074E+03 0.  0.
        -24    2    5    5    0    0 -0.21956737547E+03  0.34042723421E+02 -0.15343620368E+03  0.28189947509E+03  0.80968549866E+02 0.  0.
          2    1    4    4  502    0  0.54211955862E+02  0.25320576613E+02 -0.20431110730E+02  0.63225770411E+02  0.00000000000E+00 0. -1.
         -1    1    4    4    0  502  0.83883183372E+02 -0.47465384650E+02  0.17666301121E+02  0.97986985809E+02  0.00000000000E+00 0.  1.
          5    1    3    3  503    0  0.12118324220E+03 -0.91955321418E+02  0.11120402658E+03  0.18849293052E+03  0.47000000000E+01 0. -1.
         11    1    6    6    0    0  0.48069491737E+01  0.93699833032E+01 -0.95278121585E+01  0.14201498230E+02  0.00000000000E+00 0. -1.
        -12    1    6    6    0    0 -0.22437432464E+03  0.24672740118E+02 -0.14390839152E+03  0.26769797686E+03  0.00000000000E+00 0.  1.
         -5    1    5    5    0  501 -0.39711005967E+02  0.80057406034E+02 -0.16359231384E+02  0.90971790722E+02  0.47000000000E+01 0.  1.
<mgrwt>
<rscale>  2 0.33221773E+03</rscale>
<asrwt>0</asrwt>
<pdfrwt beam="2">  1        2 0.60302551E-01 0.33221773E+03</pdfrwt>
<pdfrwt beam="1">  1       -2 0.50863134E-01 0.33221773E+03</pdfrwt>
<totfact> 0.30415040E+02</totfact>
</mgrwt>
</event>
<event>
12    1  0.5759937E-002  0.1861387E+03  0.7546771E-02  0.1161991E+00
         -2   -1    0    0    0  501 -0.00000000000E+00  0.00000000000E+00  0.43411255421E+03  0.43411255421E+03  0.00000000000E+00 0.  1.
          2   -1    0    0  503    0  0.00000000000E+00 -0.00000000000E+00 -0.15514657835E+03  0.15514657835E+03  0.00000000000E+00 0. -1.
          6    2    1    2  503    0 -0.19793206785E+02  0.61326354987E+02  0.34488232875E+03  0.39202336613E+03  0.17488798145E+03 0.  0.
         24    2    3    3    0    0  0.40866990696E+02  0.80172768112E+02  0.23753111525E+03  0.26719860942E+03  0.82923353115E+02 0.  0.
         -6    2    1    2    0  501  0.19793206785E+02 -0.61326354987E+02 -0.65916352886E+02  0.19723576643E+03  0.17436825723E+03 0.  0.
        -24    2    5    5    0    0 -0.84184035331E+01  0.63208779796E+01 -0.88698330356E+02  0.12033874709E+03  0.80642403409E+02 0.  0.
          2    1    4    4  502    0  0.59466548876E+02  0.70581335911E+02  0.14167832093E+03  0.16908797130E+03  0.00000000000E+00 0. -1.
         -1    1    4    4    0  502 -0.18599558180E+02  0.95914322008E+01  0.95852794314E+02  0.98110638128E+02  0.00000000000E+00 0.  1.
          5    1    3    3  503    0 -0.60660197481E+02 -0.18846413125E+02  0.10735121350E+03  0.12482475670E+03  0.47000000000E+01 0. -1.
         13    1    6    6    0    0 -0.27540979765E+02 -0.28033926346E+02 -0.28937398166E+02  0.48803479440E+02  0.00000000000E+00 0. -1.
        -14    1    6    6    0    0  0.19122576232E+02  0.34354804326E+02 -0.59760932191E+02  0.71535267654E+02  0.00000000000E+00 0.  1.
         -5    1    5    5    0  501  0.28211610318E+02 -0.67647232967E+02  0.22781977470E+02  0.76897019333E+02  0.47000000000E+01 0.  1.
<mgrwt>
<rscale>  2 0.18613872E+03</rscale>
<asrwt>0</asrwt>
<pdfrwt beam="2">  1        2 0.23868705E-01 0.18613872E+03</pdfrwt>
<pdfrwt beam="1">  1       -2 0.66786546E-01 0.18613872E+03</pdfrwt>
<totfact> 0.47820343E+02</totfact>
</mgrwt>
</event>
<event>
12    1  0.5759937E-002  0.1754765E+03  0.7546771E-02  0.1172254E+00
         -2   -1    0    0    0  501 -0.00000000000E+00  0.00000000000E+00  0.98043453263E+02  0.98043453263E+02  0.00000000000E+00 0. -1.
          2   -1    0    0  503    0  0.00000000000E+00 -0.00000000000E+00 -0.37733512616E+03  0.37733512616E+03  0.00000000000E+00 0.  1.
          6    2    1    2  503    0  0.18675668661E+02  0.25144548249E+01 -0.41563227920E+02  0.17921164184E+03  0.17330380138E+03 0.  0.
         24    2    3    3    0    0  0.30906094392E+02 -0.62087059546E+02 -0.12398736368E+02  0.10713115529E+03  0.80705428179E+02 0.  0.
         -6    2    1    2    0  501 -0.18675668661E+02 -0.25144548249E+01 -0.23772844497E+03  0.29616693758E+03  0.17562727090E+03 0.  0.
        -24    2    5    5    0    0 -0.30274596613E+02  0.29940820888E+02 -0.29472836757E+02  0.85026301028E+02  0.67437525195E+02 0.  0.
          2    1    4    4  502    0  0.44974862061E+02 -0.25139706671E+02  0.20742379926E+02  0.55542680831E+02  0.00000000000E+00 0. -1.
         -1    1    4    4    0  502 -0.14068767669E+02 -0.36947352875E+02 -0.33141116295E+02  0.51588474463E+02  0.00000000000E+00 0.  1.
          5    1    3    3  503    0 -0.12230425731E+02  0.64601514371E+02 -0.29164491552E+02  0.72080486542E+02  0.47000000000E+01 0. -1.
         11    1    6    6    0    0 -0.24170036916E+02 -0.17147659503E+02 -0.98056096363E+00  0.29651212635E+02  0.00000000000E+00 0. -1.
        -12    1    6    6    0    0 -0.61045596976E+01  0.47088480391E+02 -0.28492275794E+02  0.55375088393E+02  0.00000000000E+00 0.  1.
         -5    1    5    5    0  501  0.11598927952E+02 -0.32455275713E+02 -0.20825560822E+03  0.21114063656E+03  0.47000000000E+01 0.  1.
<mgrwt>
<rscale>  2 0.17547652E+03</rscale>
<asrwt>0</asrwt>
<pdfrwt beam="2">  1        2 0.58051557E-01 0.17547652E+03</pdfrwt>
<pdfrwt beam="1">  1       -2 0.15083608E-01 0.17547652E+03</pdfrwt>
<totfact> 0.28342247E+03</totfact>
</mgrwt>
</event>
<event>
12    1  0.5759937E-002  0.1771929E+03  0.7546771E-02  0.1170548E+00
         -2   -1    0    0    0  501 -0.00000000000E+00  0.00000000000E+00  0.29608003012E+02  0.29608003012E+02  0.00000000000E+00 0.  1.
          2   -1    0    0  503    0  0.00000000000E+00 -0.00000000000E+00 -0.14676247431E+04  0.14676247431E+04  0.00000000000E+00 0. -1.
          6    2    1    2  503    0 -0.19766279038E+02 -0.34436680446E+02 -0.32212579953E+03  0.36722260498E+03  0.17178713613E+03 0.  0.
         24    2    3    3    0    0 -0.38283836094E+02 -0.22085185020E+02 -0.32900948130E+03  0.34345425558E+03  0.88091880382E+02 0.  0.
         -6    2    1    2    0  501  0.19766279038E+02  0.34436680446E+02 -0.11158909406E+04  0.11300101412E+04  0.17359071719E+03 0.  0.
        -24    2    5    5    0    0 -0.41318505951E+02  0.32774324234E+02 -0.91163963673E+03  0.91676193011E+03  0.81143292980E+02 0.  0.
          2    1    4    4  502    0 -0.36081807194E+02  0.16075968787E+02 -0.27176500671E+03  0.27462074294E+03  0.00000000000E+00 0. -1.
         -1    1    4    4    0  502 -0.22020288999E+01 -0.38161153807E+02 -0.57244474589E+02  0.68833512639E+02  0.00000000000E+00 0.  1.
          5    1    3    3  503    0  0.18517557056E+02 -0.12351495426E+02  0.68836817654E+01  0.23768349401E+02  0.47000000000E+01 0. -1.
         13    1    6    6    0    0 -0.27440319310E+02  0.11518875945E+02 -0.84386004375E+03  0.84438464521E+03  0.00000000000E+00 0. -1.
        -14    1    6    6    0    0 -0.13878186641E+02  0.21255448290E+02 -0.67779592980E+02  0.72377284910E+02  0.00000000000E+00 0.  1.
         -5    1    5    5    0  501  0.61084784989E+02  0.16623562121E+01 -0.20425130385E+03  0.21324821104E+03  0.47000000000E+01 0.  1.
<mgrwt>
<rscale>  2 0.17719290E+03</rscale>
<asrwt>0</asrwt>
<pdfrwt beam="2">  1        2 0.22578843E+00 0.17719290E+03</pdfrwt>
<pdfrwt beam="1">  1       -2 0.45550773E-02 0.17719290E+03</pdfrwt>
<totfact> 0.31946897E+03</totfact>
</mgrwt>
</event>
<event>
12    1  0.5759937E-002  0.2705184E+03  0.7546771E-02  0.1100983E+00
          2   -1    0    0  503    0  0.00000000000E+00  0.00000000000E+00  0.80160092262E+03  0.80160092262E+03  0.00000000000E+00 0. -1.
         -2   -1    0    0    0  501 -0.00000000000E+00 -0.00000000000E+00 -0.10101245166E+03  0.10101245166E+03  0.00000000000E+00 0.  1.
          6    2    1    2  503    0  0.19467635541E+03 -0.72835788119E+02  0.49045204454E+03  0.56017714727E+03  0.17335308748E+03 0.  0.
         24    2    3    3    0    0  0.64827471591E+02  0.74155195604E+00  0.30377220318E+03  0.32112524752E+03  0.81490626446E+02 0.  0.
         -6    2    1    2    0  501 -0.19467635541E+03  0.72835788119E+02  0.21013642641E+03  0.34243622701E+03  0.17291997131E+03 0.  0.
        -24    2    5    5    0    0 -0.13364562391E+03  0.45108937383E+02  0.22109325486E+03  0.27435046837E+03  0.80560431554E+02 0.  0.
          4    1    4    4  502    0  0.71748230278E+02 -0.40017436275E+00  0.30557300931E+03  0.31388346994E+03  0.00000000000E+00 0. -1.
         -3    1    4    4    0  502 -0.69207586866E+01  0.11417263188E+01 -0.18008061259E+01  0.72417775779E+01  0.00000000000E+00 0.  1.
          5    1    3    3  503    0  0.12984888382E+03 -0.73577340076E+02  0.18667984136E+03  0.23905189975E+03  0.47000000000E+01 0. -1.
         11    1    6    6    0    0 -0.38289253743E+02 -0.17140287717E+02  0.28858908745E+02  0.50918493980E+02  0.00000000000E+00 0. -1.
        -12    1    6    6    0    0 -0.95356370164E+02  0.62249225100E+02  0.19223434611E+03  0.22343197439E+03  0.00000000000E+00 0.  1.
         -5    1    5    5    0  501 -0.61030731502E+02  0.27726850736E+02 -0.10956828447E+02  0.68085758636E+02  0.47000000000E+01 0.  1.
<mgrwt>
<rscale>  2 0.27051839E+03</rscale>
<asrwt>0</asrwt>
<pdfrwt beam="1">  1        2 0.12332322E+00 0.27051839E+03</pdfrwt>
<pdfrwt beam="2">  1       -2 0.15540378E-01 0.27051839E+03</pdfrwt>
<totfact> 0.11432474E+03</totfact>
</mgrwt>
</event>
<event>
12    1  0.5759937E-002  0.2393335E+03  0.7546771E-02  0.1120238E+00
          2   -1    0    0  503    0  0.00000000000E+00  0.00000000000E+00  0.44076276698E+03  0.44076276698E+03  0.00000000000E+00 0. -1.
         -2   -1    0    0    0  501 -0.00000000000E+00 -0.00000000000E+00 -0.14501002536E+03  0.14501002536E+03  0.00000000000E+00 0.  1.
          6    2    1    2  503    0  0.20691267366E+01 -0.16563471753E+03  0.53653361126E+02  0.24551972683E+03  0.17309567344E+03 0.  0.
         24    2    3    3    0    0 -0.26126693972E+02 -0.20762867410E+02  0.42926889788E+02  0.97465667610E+02  0.80889663709E+02 0.  0.
         -6    2    1    2    0  501 -0.20691267366E+01  0.16563471753E+03  0.24209938049E+03  0.34025306551E+03  0.17239749886E+03 0.  0.
        -24    2    5    5    0    0  0.58201862744E+01  0.17470172018E+03  0.14266902143E+03  0.23998872438E+03  0.81765350574E+02 0.  0.
          4    1    4    4  502    0 -0.18851176475E+02 -0.24471887720E+02  0.66064157658E+02  0.72929507540E+02  0.00000000000E+00 0. -1.
         -3    1    4    4    0  502 -0.72755174973E+01  0.37090203106E+01 -0.23137267870E+02  0.24536160070E+02  0.00000000000E+00 0.  1.
          5    1    3    3  503    0  0.28195820709E+02 -0.14487185012E+03  0.10726471338E+02  0.14805405922E+03  0.47000000000E+01 0. -1.
         11    1    6    6    0    0  0.26040414545E+02  0.21078065055E+02  0.47572934876E+02  0.58185669618E+02  0.00000000000E+00 0. -1.
        -12    1    6    6    0    0 -0.20220228271E+02  0.15362365512E+03  0.95096086552E+02  0.18180305477E+03  0.00000000000E+00 0.  1.
         -5    1    5    5    0  501 -0.78893130110E+01 -0.90670026446E+01  0.99430359067E+02  0.10026434112E+03  0.47000000000E+01 0.  1.
<mgrwt>
<rscale>  2 0.23933349E+03</rscale>
<asrwt>0</asrwt>
<pdfrwt beam="1">  1        2 0.67809656E-01 0.23933349E+03</pdfrwt>
<pdfrwt beam="2">  1       -2 0.22309235E-01 0.23933349E+03</pdfrwt>
<totfact> 0.12451969E+03</totfact>
</mgrwt>
</event>
<event>
12    1  0.5759937E-002  0.1792953E+03  0.7546771E-02  0.1168487E+00
          3   -1    0    0  503    0  0.00000000000E+00  0.00000000000E+00  0.47449906491E+02  0.47449906491E+02  0.00000000000E+00 0.  1.
         -3   -1    0    0    0  501 -0.00000000000E+00 -0.00000000000E+00 -0.74128555763E+03  0.74128555763E+03  0.00000000000E+00 0. -1.
          6    2    1    2  503    0 -0.21069589266E+02  0.88231355447E+01 -0.22267432922E+03  0.28273332587E+03  0.17272087700E+03 0.  0.
         24    2    3    3    0    0  0.22501551988E+02  0.59411333287E+02 -0.85522235486E+02  0.13012140983E+03  0.74709451677E+02 0.  0.
         -6    2    1    2    0  501  0.21069589266E+02 -0.88231355447E+01 -0.47116132192E+03  0.50600213825E+03  0.18309395765E+03 0.  0.
        -24    2    5    5    0    0 -0.61713616790E+02 -0.63750094769E+01 -0.30020042516E+03  0.31597905873E+03  0.76637191049E+02 0.  0.
          2    1    4    4  502    0  0.34939495922E+02 -0.18911880133E+01 -0.37271137083E+02  0.51122232217E+02  0.00000000000E+00 0. -1.
         -1    1    4    4    0  502 -0.12437943934E+02  0.61302521301E+02 -0.48251098403E+02  0.78999177617E+02  0.00000000000E+00 0.  1.
          5    1    3    3  503    0 -0.43571141254E+02 -0.50588197743E+02 -0.13715209373E+03  0.15261191604E+03  0.47000000000E+01 0. -1.
         13    1    6    6    0    0  0.17304410906E+02  0.47799956682E+01 -0.40651026438E+02  0.44438687490E+02  0.00000000000E+00 0. -1.
        -14    1    6    6    0    0 -0.79018027696E+02 -0.11155005145E+02 -0.25954939872E+03  0.27154037124E+03  0.00000000000E+00 0.  1.
         -5    1    5    5    0  501  0.82783206056E+02 -0.24481260679E+01 -0.17096089677E+03  0.19002307952E+03  0.47000000000E+01 0.  1.
<mgrwt>
<rscale>  2 0.17929528E+03</rscale>
<asrwt>0</asrwt>
<pdfrwt beam="1">  1        3 0.72999856E-02 0.17929528E+03</pdfrwt>
<pdfrwt beam="2">  1       -3 0.11404393E+00 0.17929528E+03</pdfrwt>
<totfact> 0.19950954E+02</totfact>
</mgrwt>
</event>
<event>
12    1  0.5759937E-002  0.2790456E+03  0.7546771E-02  0.1096211E+00
          1   -1    0    0  503    0  0.00000000000E+00  0.00000000000E+00  0.46685259106E+03  0.46685259106E+03  0.00000000000E+00 0.  1.
         -1   -1    0    0    0  501 -0.00000000000E+00 -0.00000000000E+00 -0.16736504493E+03  0.16736504493E+03  0.00000000000E+00 0. -1.
          6    2    1    2  503    0 -0.16152119524E+03 -0.13699365696E+03  0.12921069143E+03  0.30092450828E+03  0.17030501563E+03 0.  0.
         24    2    3    3    0    0 -0.13622177089E+03 -0.48796236652E+02  0.12368552570E+03  0.20888395593E+03  0.86005547496E+02 0.  0.
         -6    2    1    2    0  501  0.16152119524E+03  0.13699365696E+03  0.17027685470E+03  0.33329312770E+03  0.19296047047E+03 0.  0.
        -24    2    5    5    0    0  0.28525958828E+02 -0.90647257460E+00  0.15634111311E+02  0.87039911033E+02  0.80727744033E+02 0.  0.
          2    1    4    4  502    0 -0.24963944369E+02  0.22799778391E+02  0.12435659577E+02  0.36023243083E+02  0.00000000000E+00 0. -1.
         -1    1    4    4    0  502 -0.11125782652E+03 -0.71596015043E+02  0.11124986612E+03  0.17286071284E+03  0.00000000000E+00 0.  1.
          5    1    3    3  503    0 -0.25299424348E+02 -0.88197420311E+02  0.55251657269E+01  0.92040552357E+02  0.47000000000E+01 0. -1.
         13    1    6    6    0    0  0.79674562943E+00  0.14118944717E+02 -0.29071899638E+02  0.32328853244E+02  0.00000000000E+00 0. -1.
        -14    1    6    6    0    0  0.27729213199E+02 -0.15025417291E+02  0.44706010949E+02  0.54711057789E+02  0.00000000000E+00 0.  1.
         -5    1    5    5    0  501  0.13299523641E+03  0.13790012954E+03  0.15464274339E+03  0.24625321667E+03  0.47000000000E+01 0.  1.
<mgrwt>
<rscale>  2 0.27904565E+03</rscale>
<asrwt>0</asrwt>
<pdfrwt beam="1">  1        1 0.71823475E-01 0.27904565E+03</pdfrwt>
<pdfrwt beam="2">  1       -1 0.25748469E-01 0.27904565E+03</pdfrwt>
<totfact> 0.65812372E+02</totfact>
</mgrwt>
</event>
<event>
12    1  0.5759937E-002  0.1940899E+03  0.7546771E-02  0.1154823E+00
         -1   -1    0    0    0  501 -0.00000000000E+00  0.00000000000E+00  0.11536257802E+03  0.11536257802E+03  0.00000000000E+00 0.  1.
          1   -1    0    0  503    0  0.00000000000E+00 -0.00000000000E+00 -0.49635487246E+03  0.49635487246E+03  0.00000000000E+00 0. -1.
          6    2    1    2  503    0  0.95723096073E+01 -0.86530365887E+02 -0.36907432915E+03  0.41676759421E+03  0.17291684075E+03 0.  0.
         24    2    3    3    0    0 -0.25122033864E+02 -0.79464300255E+02 -0.12516892012E+03  0.17026086954E+03  0.79848691489E+02 0.  0.
         -6    2    1    2    0  501 -0.95723096073E+01  0.86530365887E+02 -0.11917965290E+02  0.19494985627E+03  0.17402377778E+03 0.  0.
        -24    2    5    5    0    0  0.38156096532E+02  0.30882042590E+02  0.43136101322E+02  0.10314693209E+03  0.79805877631E+02 0.  0.
          4    1    4    4  502    0 -0.26021092593E+02  0.80707419389E+01 -0.22464602796E+02  0.35311365224E+02  0.00000000000E+00 0. -1.
         -3    1    4    4    0  502  0.89905872966E+00 -0.87535042194E+02 -0.10270431732E+03  0.13494950432E+03  0.00000000000E+00 0.  1.
          5    1    3    3  503    0  0.34694343471E+02 -0.70660656313E+01 -0.24390540903E+03  0.24650672467E+03  0.47000000000E+01 0. -1.
         13    1    6    6    0    0  0.15816130096E+02  0.41273513034E+02 -0.93385151680E+01  0.45175886432E+02  0.00000000000E+00 0. -1.
        -14    1    6    6    0    0  0.22339966436E+02 -0.10391470445E+02  0.52474616490E+02  0.57971045653E+02  0.00000000000E+00 0.  1.
         -5    1    5    5    0  501 -0.47728406139E+02  0.55648323297E+02 -0.55054066612E+02  0.91802924185E+02  0.47000000000E+01 0.  1.
<mgrwt>
<rscale>  2 0.19408992E+03</rscale>
<asrwt>0</asrwt>
<pdfrwt beam="2">  1        1 0.76362288E-01 0.19408992E+03</pdfrwt>
<pdfrwt beam="1">  1       -1 0.17748089E-01 0.19408992E+03</pdfrwt>
<totfact> 0.11162386E+03</totfact>
</mgrwt>
</event>
<event>
12    1  0.5759937E-002  0.1916186E+03  0.7546771E-02  0.1157010E+00
          1   -1    0    0  503    0  0.00000000000E+00  0.00000000000E+00  0.59287824619E+03  0.59287824619E+03  0.00000000000E+00 0. -1.
         -1   -1    0    0    0  501 -0.00000000000E+00 -0.00000000000E+00 -0.19991626444E+03  0.19991626444E+03  0.00000000000E+00 0.  1.
          6    2    1    2  503    0  0.51569319992E+02 -0.62399022873E+02 -0.13302691379E+03  0.23278849468E+03  0.17303551844E+03 0.  0.
         24    2    3    3    0    0  0.15740149750E+02  0.32413959063E+02 -0.72495852443E+02  0.11463888456E+03  0.81166545914E+02 0.  0.
         -6    2    1    2    0  501 -0.51569319992E+02  0.62399022873E+02  0.52598889554E+03  0.56000601595E+03  0.17432551979E+03 0.  0.
        -24    2    5    5    0    0 -0.69247758185E+02 -0.12853301906E+02  0.22077431403E+03  0.24511957558E+03  0.79886477044E+02 0.  0.
          2    1    4    4  502    0 -0.99037710407E+00  0.42424301530E+02 -0.30917509113E+01  0.42548338755E+02  0.00000000000E+00 0. -1.
         -1    1    4    4    0  502  0.16730526854E+02 -0.10010342467E+02 -0.69404101532E+02  0.72090545805E+02  0.00000000000E+00 0.  1.
          5    1    3    3  503    0  0.35829170242E+02 -0.94812981936E+02 -0.60531061352E+02  0.11814961012E+03  0.47000000000E+01 0. -1.
         13    1    6    6    0    0 -0.33184120930E+02  0.14009871658E+02  0.18264039662E+03  0.18615847245E+03  0.00000000000E+00 0. -1.
        -14    1    6    6    0    0 -0.36063637255E+02 -0.26863173564E+02  0.38133917411E+02  0.58961103137E+02  0.00000000000E+00 0.  1.
         -5    1    5    5    0  501  0.17678438193E+02  0.75252324779E+02  0.30521458151E+03  0.31488644036E+03  0.47000000000E+01 0.  1.
<mgrwt>
<rscale>  2 0.19161860E+03</rscale>
<asrwt>0</asrwt>
<pdfrwt beam="1">  1        1 0.91212037E-01 0.19161860E+03</pdfrwt>
<pdfrwt beam="2">  1       -1 0.30756349E-01 0.19161860E+03</pdfrwt>
<totfact> 0.35544582E+02</totfact>
</mgrwt>
</event>
<event>
12    1  0.5759937E-002  0.3294782E+03  0.7546771E-02  0.1071368E+00
          4   -1    0    0  503    0  0.00000000000E+00  0.00000000000E+00  0.83142103734E+02  0.83142103734E+02  0.00000000000E+00 0.  1.
         -4   -1    0    0    0  501 -0.00000000000E+00 -0.00000000000E+00 -0.14435997068E+04  0.14435997068E+04  0.00000000000E+00 0. -1.
          6    2    1    2  503    0  0.22289061597E+03  0.17057447119E+03 -0.91717595826E+03  0.97473898067E+03  0.17357553146E+03 0.  0.
         24    2    3    3    0    0  0.71626542620E+02  0.10723625795E+03 -0.44537178533E+03  0.47522540054E+03  0.10417858476E+03 0.  0.
         -6    2    1    2    0  501 -0.22289061597E+03 -0.17057447119E+03 -0.44328164485E+03  0.55200282991E+03  0.17155940852E+03 0.  0.
        -24    2    5    5    0    0 -0.18300070163E+03 -0.59228953727E+02 -0.25340096382E+03  0.32824896390E+03  0.80857950004E+02 0.  0.
          2    1    4    4  502    0 -0.11003830465E+02 -0.12773127386E+02 -0.23663189137E+02  0.29054837605E+02  0.00000000000E+00 0. -1.
         -1    1    4    4    0  502  0.82630373086E+02  0.12000938533E+03 -0.42170859620E+03  0.44617056293E+03  0.00000000000E+00 0.  1.
          5    1    3    3  503    0  0.15126407335E+03  0.63338213244E+02 -0.47180417293E+03  0.49951358013E+03  0.47000000000E+01 0. -1.
         13    1    6    6    0    0 -0.10307072272E+02  0.30513598906E+01 -0.62432427541E+02  0.63351042175E+02  0.00000000000E+00 0. -1.
        -14    1    6    6    0    0 -0.17269362936E+03 -0.62280313617E+02 -0.19096853628E+03  0.26489792172E+03  0.00000000000E+00 0.  1.
         -5    1    5    5    0  501 -0.39889914346E+02 -0.11134551746E+03 -0.18988068103E+03  0.22375386601E+03  0.47000000000E+01 0.  1.
<mgrwt>
<rscale>  2 0.32947817E+03</rscale>
<asrwt>0</asrwt>
<pdfrwt beam="1">  1        4 0.12791093E-01 0.32947817E+03</pdfrwt>
<pdfrwt beam="2">  1       -4 0.22209226E+00 0.32947817E+03</pdfrwt>
<totfact> 0.96311396E+00</totfact>
</mgrwt>
</event>
<event>
12    1  0.5759937E-002  0.1748295E+03  0.7546771E-02  0.1172903E+00
         -2   -1    0    0    0  501 -0.00000000000E+00  0.00000000000E+00  0.13258311338E+03  0.13258311338E+03  0.00000000000E+00 0. -1.
          2   -1    0    0  503    0  0.00000000000E+00 -0.00000000000E+00 -0.23105718476E+03  0.23105718476E+03  0.00000000000E+00 0.  1.
          6    2    1    2  503    0  0.28530555189E+01  0.35878463316E+02 -0.57887383024E+02  0.18425291421E+03  0.17118055738E+03 0.  0.
         24    2    3    3    0    0 -0.59451471497E+02  0.49356379203E+02 -0.24397173312E+02  0.11209203527E+03  0.77452389725E+02 0.  0.
         -6    2    1    2    0  501 -0.28530555189E+01 -0.35878463316E+02 -0.40586688350E+02  0.17938738393E+03  0.17098874286E+03 0.  0.
        -24    2    5    5    0    0 -0.17474873214E+02 -0.80452567189E+02 -0.50944972925E+02  0.13111697531E+03  0.88421061894E+02 0.  0.
          4    1    4    4  502    0 -0.64376198004E+02  0.53357107101E+02  0.32984655471E+01  0.83678883971E+02  0.00000000000E+00 0. -1.
         -3    1    4    4    0  502  0.49247265072E+01 -0.40007278985E+01 -0.27695638859E+02  0.28413151298E+02  0.00000000000E+00 0.  1.
          5    1    3    3  503    0  0.62304527015E+02 -0.13477915886E+02 -0.33490209712E+02  0.72160878943E+02  0.47000000000E+01 0. -1.
         11    1    6    6    0    0 -0.15110724555E+02 -0.20896132887E+02  0.24090725937E+02  0.35289452282E+02  0.00000000000E+00 0. -1.
        -12    1    6    6    0    0 -0.23641486596E+01 -0.59556434302E+02 -0.75035698862E+02  0.95827523026E+02  0.00000000000E+00 0.  1.
         -5    1    5    5    0  501  0.14621817696E+02  0.44574103872E+02  0.10358284575E+02  0.48270408617E+02  0.47000000000E+01 0.  1.
<mgrwt>
<rscale>  2 0.17482950E+03</rscale>
<asrwt>0</asrwt>
<pdfrwt beam="2">  1        2 0.35547259E-01 0.17482950E+03</pdfrwt>
<pdfrwt beam="1">  1       -2 0.20397402E-01 0.17482950E+03</pdfrwt>
<totfact> 0.28915507E+03</totfact>
</mgrwt>
</event>
<event>
12    1  0.5759937E-002  0.1938430E+03  0.7546771E-02  0.1155040E+00
         -2   -1    0    0    0  501 -0.00000000000E+00  0.00000000000E+00  0.12808629495E+03  0.12808629495E+03  0.00000000000E+00 0.  1.
          2   -1    0    0  503    0  0.00000000000E+00 -0.00000000000E+00 -0.46447942367E+03  0.46447942367E+03  0.00000000000E+00 0. -1.
          6    2    1    2  503    0  0.18839382849E+02 -0.83894645632E+02  0.11523910225E+02  0.19439470836E+03  0.17396341057E+03 0.  0.
         24    2    3    3    0    0  0.49847514724E+02 -0.25588408632E+02  0.57076881767E+02  0.11403125440E+03  0.81276166049E+02 0.  0.
         -6    2    1    2    0  501 -0.18839382849E+02  0.83894645632E+02 -0.34791703895E+03  0.39817101027E+03  0.17349539912E+03 0.  0.
        -24    2    5    5    0    0 -0.22083365777E+02  0.30363890220E+02 -0.62864198042E+02  0.10807916738E+03  0.79495648647E+02 0.  0.
          4    1    4    4  502    0  0.14161851889E+01 -0.37138469438E+02  0.52094524757E+02  0.63993054329E+02  0.00000000000E+00 0. -1.
         -3    1    4    4    0  502  0.48431329535E+02  0.11550060806E+02  0.49823570103E+01  0.50038200073E+02  0.00000000000E+00 0.  1.
          5    1    3    3  503    0 -0.31008131875E+02 -0.58306236999E+02 -0.45552971542E+02  0.80363453955E+02  0.47000000000E+01 0. -1.
         13    1    6    6    0    0  0.52169487810E+01  0.26087363503E+02 -0.73732660070E+02  0.78385408401E+02  0.00000000000E+00 0. -1.
        -14    1    6    6    0    0 -0.27300314558E+02  0.42765267167E+01  0.10868462029E+02  0.29693758983E+02  0.00000000000E+00 0.  1.
         -5    1    5    5    0  501  0.32439829274E+01  0.53530755412E+02 -0.28505284090E+03  0.29009184288E+03  0.47000000000E+01 0.  1.
<mgrwt>
<rscale>  2 0.19384300E+03</rscale>
<asrwt>0</asrwt>
<pdfrwt beam="2">  1        2 0.71458372E-01 0.19384300E+03</pdfrwt>
<pdfrwt beam="1">  1       -2 0.19705584E-01 0.19384300E+03</pdfrwt>
<totfact> 0.14506104E+03</totfact>
</mgrwt>
</event>
<event>
12    1  0.5759937E-002  0.2557414E+03  0.7546771E-02  0.1109729E+00
          1   -1    0    0  503    0  0.00000000000E+00  0.00000000000E+00  0.14400518317E+04  0.14400518317E+04  0.00000000000E+00 0. -1.
         -1   -1    0    0    0  501 -0.00000000000E+00 -0.00000000000E+00 -0.74315386219E+02  0.74315386219E+02  0.00000000000E+00 0.  1.
          6    2    1    2  503    0 -0.16453618012E+03 -0.90902304131E+02  0.21060120923E+03  0.33124721243E+03  0.17331030826E+03 0.  0.
         24    2    3    3    0    0 -0.16113758793E+03 -0.37711878895E+02  0.10173486450E+03  0.20994287294E+03  0.79614817630E+02 0.  0.
         -6    2    1    2    0  501  0.16453618012E+03  0.90902304131E+02  0.11551352362E+04  0.11831200055E+04  0.17349394771E+03 0.  0.
        -24    2    5    5    0    0  0.32263500611E+02  0.12728093469E+02  0.61968722919E+03  0.62604377442E+03  0.81948811046E+02 0.  0.
          4    1    4    4  502    0 -0.10900299807E+03 -0.95982370698E+01  0.23678745733E+02  0.11195741486E+03  0.00000000000E+00 0. -1.
         -3    1    4    4    0  502 -0.52134589867E+02 -0.28113641825E+02  0.78056118768E+02  0.97985458076E+02  0.00000000000E+00 0.  1.
          5    1    3    3  503    0 -0.33985921839E+01 -0.53190425236E+02  0.10886634473E+03  0.12130433949E+03  0.47000000000E+01 0. -1.
         11    1    6    6    0    0  0.25020252250E+02  0.36946567162E+02  0.17366764095E+03  0.17930842524E+03  0.00000000000E+00 0. -1.
        -12    1    6    6    0    0  0.72432483615E+01 -0.24218473693E+02  0.44601958824E+03  0.44673534918E+03  0.00000000000E+00 0.  1.
         -5    1    5    5    0  501  0.13227267951E+03  0.78174210662E+02  0.53544800705E+03  0.55707623106E+03  0.47000000000E+01 0.  1.
<mgrwt>
<rscale>  2 0.25574144E+03</rscale>
<asrwt>0</asrwt>
<pdfrwt beam="1">  1        1 0.22154641E+00 0.25574144E+03</pdfrwt>
<pdfrwt beam="2">  1       -1 0.11433137E-01 0.25574144E+03</pdfrwt>
<totfact> 0.39008864E+02</totfact>
</mgrwt>
</event>
<event>
12    1  0.5759937E-002  0.4122308E+03  0.7546771E-02  0.1039625E+00
          2   -1    0    0  503    0  0.00000000000E+00  0.00000000000E+00  0.40779617559E+04  0.40779617559E+04  0.00000000000E+00 0.  1.
         -2   -1    0    0    0  501 -0.00000000000E+00 -0.00000000000E+00 -0.51720153048E+02  0.51720153048E+02  0.00000000000E+00 0. -1.
          6    2    1    2  503    0 -0.37207293275E+03  0.41809216215E+02  0.11023361981E+04  0.11768375461E+04  0.17209078508E+03 0.  0.
         24    2    3    3    0    0 -0.15656029976E+03 -0.35664427405E+02  0.40315359271E+03  0.44108876684E+03  0.79015201526E+02 0.  0.
         -6    2    1    2    0  501  0.37207293275E+03 -0.41809216215E+02  0.29239054047E+04  0.29528443629E+04  0.17286045738E+03 0.  0.
        -24    2    5    5    0    0  0.35473382436E+03 -0.36540093935E+02  0.23173429016E+04  0.23459930067E+04  0.80210966444E+02 0.  0.
          2    1    4    4  502    0 -0.96953091749E+02  0.12708934209E+02  0.17633838146E+03  0.20163492699E+03  0.00000000000E+00 0. -1.
         -1    1    4    4    0  502 -0.59607208010E+02 -0.48373361614E+02  0.22681521126E+03  0.23945383985E+03  0.00000000000E+00 0.  1.
          5    1    3    3  503    0 -0.21551263299E+03  0.77473643620E+02  0.69918260542E+03  0.73574877924E+03  0.47000000000E+01 0. -1.
         13    1    6    6    0    0  0.19646353864E+03 -0.22460462810E+02  0.10232700696E+04  0.10422015303E+04  0.00000000000E+00 0. -1.
        -14    1    6    6    0    0  0.15827028572E+03 -0.14079631125E+02  0.12940728320E+04  0.13037914764E+04  0.00000000000E+00 0.  1.
         -5    1    5    5    0  501  0.17339108393E+02 -0.52691222799E+01  0.60656250310E+03  0.60685135617E+03  0.47000000000E+01 0.  1.
<mgrwt>
<rscale>  2 0.41223078E+03</rscale>
<asrwt>0</asrwt>
<pdfrwt beam="1">  1        2 0.62737848E+00 0.41223078E+03</pdfrwt>
<pdfrwt beam="2">  1       -2 0.79569498E-02 0.41223078E+03</pdfrwt>
<totfact> 0.35093379E+01</totfact>
</mgrwt>
</event>
<event>
12    1  0.5759937E-002  0.1779767E+03  0.7546771E-02  0.1169776E+00
          2   -1    0    0  503    0  0.00000000000E+00  0.00000000000E+00  0.12407067348E+04  0.12407067348E+04  0.00000000000E+00 0. -1.
         -2   -1    0    0    0  501 -0.00000000000E+00 -0.00000000000E+00 -0.64442744090E+02  0.64442744090E+02  0.00000000000E+00 0.  1.
          6    2    1    2  503    0  0.33427306438E+02 -0.21966407036E+02  0.10945979953E+04  0.11088963566E+04  0.17293481580E+03 0.  0.
         24    2    3    3    0    0 -0.65035293517E+01 -0.71670924460E+02  0.51439176998E+03  0.52517864692E+03  0.77683337006E+02 0.  0.
         -6    2    1    2    0  501 -0.33427306438E+02  0.21966407036E+02  0.81665995416E+02  0.19625312229E+03  0.17391390212E+03 0.  0.
        -24    2    5    5    0    0  0.15757797761E+02  0.53742506027E+02  0.15769302746E+02  0.10797311863E+03  0.90955804066E+02 0.  0.
          2    1    4    4  502    0  0.21507153886E+02 -0.15826657857E+02  0.31730672237E+03  0.31842832290E+03  0.00000000000E+00 0. -1.
         -1    1    4    4    0  502 -0.28010683237E+02 -0.55844266603E+02  0.19708504761E+03  0.20675032402E+03  0.00000000000E+00 0.  1.
          5    1    3    3  503    0  0.39930835789E+02  0.49704517424E+02  0.58020622532E+03  0.58371770969E+03  0.47000000000E+01 0. -1.
         13    1    6    6    0    0  0.58490019315E+01 -0.92278937546E+01  0.38712551951E+02  0.40224700438E+02  0.00000000000E+00 0. -1.
        -14    1    6    6    0    0  0.99087958292E+01  0.62970399782E+02 -0.22943249205E+02  0.67748418192E+02  0.00000000000E+00 0.  1.
         -5    1    5    5    0  501 -0.49185104198E+02 -0.31776098992E+02  0.65896692670E+02  0.88280003664E+02  0.47000000000E+01 0.  1.
<mgrwt>
<rscale>  2 0.17797669E+03</rscale>
<asrwt>0</asrwt>
<pdfrwt beam="1">  1        2 0.19087794E+00 0.17797669E+03</pdfrwt>
<pdfrwt beam="2">  1       -2 0.99142692E-02 0.17797669E+03</pdfrwt>
<totfact> 0.12803346E+03</totfact>
</mgrwt>
</event>
<event>
12    1  0.5759937E-002  0.2743954E+03  0.7546771E-02  0.1098790E+00
          2   -1    0    0  503    0  0.00000000000E+00  0.00000000000E+00  0.81996681487E+03  0.81996681487E+03  0.00000000000E+00 0.  1.
         -2   -1    0    0    0  501 -0.00000000000E+00 -0.00000000000E+00 -0.92023156204E+02  0.92023156204E+02  0.00000000000E+00 0. -1.
          6    2    1    2  503    0 -0.16872189930E+02  0.21236250772E+03  0.38528582328E+03  0.47305926290E+03  0.17308204736E+03 0.  0.
         24    2    3    3    0    0  0.21709851001E+02  0.33099892002E+02  0.14795878679E+03  0.17310948123E+03  0.80673226174E+02 0.  0.
         -6    2    1    2    0  501  0.16872189930E+02 -0.21236250772E+03  0.34265783539E+03  0.43893070817E+03  0.17280992144E+03 0.  0.
        -24    2    5    5    0    0  0.68338456581E+02 -0.14322280336E+03  0.28390452091E+03  0.33451271507E+03  0.78192477270E+02 0.  0.
          4    1    4    4  502    0  0.28510324271E+02 -0.19740955264E+02  0.41639127973E+02  0.54188198744E+02  0.00000000000E+00 0. -1.
         -3    1    4    4    0  502 -0.68004732697E+01  0.52840847266E+02  0.10631965882E+03  0.11892128249E+03  0.00000000000E+00 0.  1.
          5    1    3    3  503    0 -0.38582040931E+02  0.17926261572E+03  0.23732703648E+03  0.29994978167E+03  0.47000000000E+01 0. -1.
         11    1    6    6    0    0  0.29656007091E+02 -0.21664544625E+02  0.21029706458E+02  0.42321150789E+02  0.00000000000E+00 0. -1.
        -12    1    6    6    0    0  0.38682449490E+02 -0.12155825874E+03  0.26287481445E+03  0.29219156428E+03  0.00000000000E+00 0.  1.
         -5    1    5    5    0  501 -0.51466266651E+02 -0.69139704355E+02  0.58753314482E+02  0.10441799310E+03  0.47000000000E+01 0.  1.
<mgrwt>
<rscale>  2 0.27439538E+03</rscale>
<asrwt>0</asrwt>
<pdfrwt beam="1">  1        2 0.12614874E+00 0.27439538E+03</pdfrwt>
<pdfrwt beam="2">  1       -2 0.14157409E-01 0.27439538E+03</pdfrwt>
<totfact> 0.12959166E+03</totfact>
</mgrwt>
</event>
<event>
12    1  0.5759937E-002  0.1763614E+03  0.7546771E-02  0.1171372E+00
          2   -1    0    0  503    0  0.00000000000E+00  0.00000000000E+00  0.12661350924E+04  0.12661350924E+04  0.00000000000E+00 0.  1.
         -2   -1    0    0    0  501 -0.00000000000E+00 -0.00000000000E+00 -0.36397704543E+02  0.36397704543E+02  0.00000000000E+00 0. -1.
          6    2    1    2  503    0  0.11944537794E+02  0.16577534490E+02  0.23986767818E+03  0.29679541618E+03  0.17359011895E+03 0.  0.
         24    2    3    3    0    0  0.46229059558E+02  0.64564443297E+02  0.15679123374E+03  0.19480542907E+03  0.84023633179E+02 0.  0.
         -6    2    1    2    0  501 -0.11944537794E+02 -0.16577534490E+02  0.98986970964E+03  0.10057373807E+04  0.17677146346E+03 0.  0.
        -24    2    5    5    0    0  0.41179201858E+02 -0.58843008096E+02  0.54906053655E+03  0.55970675503E+03  0.81522711982E+02 0.  0.
          2    1    4    4  502    0  0.26832774190E+02  0.14196112618E+02  0.14909559469E+01  0.30393261323E+02  0.00000000000E+00 0. -1.
         -1    1    4    4    0  502  0.19396285368E+02  0.50368330679E+02  0.15530027779E+03  0.16441216775E+03  0.00000000000E+00 0.  1.
          5    1    3    3  503    0 -0.34284521764E+02 -0.47986908806E+02  0.83076444438E+02  0.10198998711E+03  0.47000000000E+01 0. -1.
         11    1    6    6    0    0 -0.22371980176E+02 -0.57091251376E+01  0.75355452970E+02  0.78813348483E+02  0.00000000000E+00 0. -1.
        -12    1    6    6    0    0  0.63551182034E+02 -0.53133882959E+02  0.47370508358E+03  0.48089340655E+03  0.00000000000E+00 0.  1.
         -5    1    5    5    0  501 -0.53123739652E+02  0.42265473606E+02  0.44080917309E+03  0.44603062569E+03  0.47000000000E+01 0.  1.
<mgrwt>
<rscale>  2 0.17636137E+03</rscale>
<asrwt>0</asrwt>
<pdfrwt beam="1">  1        2 0.19478998E+00 0.17636137E+03</pdfrwt>
<pdfrwt beam="2">  1       -2 0.55996478E-02 0.17636137E+03</pdfrwt>
<totfact> 0.30013231E+03</totfact>
</mgrwt>
</event>
<event>
12    1  0.5759937E-002  0.3461591E+03  0.7546771E-02  0.1064203E+00
          2   -1    0    0  503    0  0.00000000000E+00  0.00000000000E+00  0.21402842136E+03  0.21402842136E+03  0.00000000000E+00 0.  1.
         -2   -1    0    0    0  501 -0.00000000000E+00 -0.00000000000E+00 -0.73959688564E+03  0.73959688564E+03  0.00000000000E+00 0. -1.
          6    2    1    2  503    0  0.15147211452E+03  0.25595472228E+03 -0.28730330197E+02  0.34906863006E+03  0.18046289170E+03 0.  0.
         24    2    3    3    0    0  0.37527289507E+02  0.89419363101E+02  0.44447972152E+02  0.13437209320E+03  0.81707510347E+02 0.  0.
         -6    2    1    2    0  501 -0.15147211452E+03 -0.25595472228E+03 -0.49683813408E+03  0.60455667694E+03  0.17373549674E+03 0.  0.
        -24    2    5    5    0    0 -0.14165313276E+03 -0.20937558388E+03 -0.29286907227E+03  0.39505370152E+03  0.79946159667E+02 0.  0.
          2    1    4    4  502    0  0.55985064953E+02  0.47191774961E+02  0.48935814687E+02  0.88068752012E+02  0.00000000000E+00 0. -1.
         -1    1    4    4    0  502 -0.18457775446E+02  0.42227588140E+02 -0.44878425353E+01  0.46303341188E+02  0.00000000000E+00 0.  1.
          5    1    3    3  503    0  0.11394482501E+03  0.16653535918E+03 -0.73178302349E+02  0.21469653686E+03  0.47000000000E+01 0. -1.
         11    1    6    6    0    0 -0.11653745890E+03 -0.16912351599E+03 -0.27738368867E+03  0.34514555441E+03  0.00000000000E+00 0. -1.
        -12    1    6    6    0    0 -0.25115673866E+02 -0.40252067885E+02 -0.15485383601E+02  0.49908147111E+02  0.00000000000E+00 0.  1.
         -5    1    5    5    0  501 -0.98189817580E+01 -0.46579138404E+02 -0.20396906180E+03  0.20950297542E+03  0.47000000000E+01 0.  1.
<mgrwt>
<rscale>  2 0.34615912E+03</rscale>
<asrwt>0</asrwt>
<pdfrwt beam="1">  1        2 0.32927449E-01 0.34615912E+03</pdfrwt>
<pdfrwt beam="2">  1       -2 0.11378414E+00 0.34615912E+03</pdfrwt>
<totfact> 0.10000401E+02</totfact>
</mgrwt>
</event>
<event>
12    1  0.5759937E-002  0.2155597E+03  0.7546771E-02  0.1137237E+00
         -1   -1    0    0    0  501 -0.00000000000E+00  0.00000000000E+00  0.12503225628E+03  0.12503225628E+03  0.00000000000E+00 0. -1.
          1   -1    0    0  503    0  0.00000000000E+00 -0.00000000000E+00 -0.51956838454E+03  0.51956838454E+03  0.00000000000E+00 0.  1.
          6    2    1    2  503    0  0.10200428682E+03 -0.76504214022E+02 -0.36973691558E+03  0.42836550956E+03  0.17473938806E+03 0.  0.
         24    2    3    3    0    0  0.72923055467E+02  0.23402184698E+02 -0.15632048131E+03  0.19088778231E+03  0.78336570572E+02 0.  0.
         -6    2    1    2    0  501 -0.10200428682E+03  0.76504214022E+02 -0.24799212671E+02  0.21623513127E+03  0.17287238575E+03 0.  0.
        -24    2    5    5    0    0 -0.12916378450E+03  0.96325357708E+02 -0.28775216717E+02  0.18205305029E+03  0.79708482980E+02 0.  0.
          4    1    4    4  502    0  0.67623199287E+02  0.10476018291E+01 -0.55516780568E+02  0.87499185573E+02  0.00000000000E+00 0. -1.
         -3    1    4    4    0  502  0.52998561797E+01  0.22354582869E+02 -0.10080370074E+03  0.10338859673E+03  0.00000000000E+00 0.  1.
          5    1    3    3  503    0  0.29081231351E+02 -0.99906398720E+02 -0.21341643427E+03  0.23747772725E+03  0.47000000000E+01 0. -1.
         13    1    6    6    0    0 -0.12911283545E+03  0.83049047686E+02 -0.46042139725E+02  0.16027210372E+03  0.00000000000E+00 0. -1.
        -14    1    6    6    0    0 -0.50949054442E-01  0.13276310022E+02  0.17266923008E+02  0.21780946576E+02  0.00000000000E+00 0.  1.
         -5    1    5    5    0  501  0.27159497687E+02 -0.19821143686E+02  0.39760040460E+01  0.34182080975E+02  0.47000000000E+01 0.  1.
<mgrwt>
<rscale>  2 0.21555972E+03</rscale>
<asrwt>0</asrwt>
<pdfrwt beam="2">  1        1 0.79933598E-01 0.21555972E+03</pdfrwt>
<pdfrwt beam="1">  1       -1 0.19235732E-01 0.21555972E+03</pdfrwt>
<totfact> 0.92336689E+02</totfact>
</mgrwt>
</event>
<event>
12    1  0.5759937E-002  0.1812325E+03  0.7546771E-02  0.1166616E+00
          2   -1    0    0  503    0  0.00000000000E+00  0.00000000000E+00  0.20846609486E+04  0.20846609486E+04  0.00000000000E+00 0. -1.
         -2   -1    0    0    0  501 -0.00000000000E+00 -0.00000000000E+00 -0.15840203845E+02  0.15840203845E+02  0.00000000000E+00 0.  1.
          6    2    1    2  503    0  0.78266338018E+01  0.50652434934E+02  0.11111360681E+04  0.11258190690E+04  0.17383408409E+03 0.  0.
         24    2    3    3    0    0 -0.58646802417E+02  0.22313739851E+02  0.78614503280E+03  0.79285801658E+03  0.81623963643E+02 0.  0.
         -6    2    1    2    0  501 -0.78266338018E+01 -0.50652434934E+02  0.95768467668E+03  0.97468208353E+03  0.17383411244E+03 0.  0.
        -24    2    5    5    0    0 -0.28595438650E+02 -0.59848110936E+02  0.93890670265E+03  0.94483906055E+03  0.82313781151E+02 0.  0.
          4    1    4    4  502    0 -0.44680253579E+02 -0.22782848956E+02  0.27488091277E+03  0.27941886026E+03  0.00000000000E+00 0. -1.
         -3    1    4    4    0  502 -0.13966548837E+02  0.45096588807E+02  0.51126412003E+03  0.51343915632E+03  0.00000000000E+00 0.  1.
          5    1    3    3  503    0  0.66473436219E+02  0.28338695083E+02  0.32499103533E+03  0.33296105238E+03  0.47000000000E+01 0. -1.
         13    1    6    6    0    0  0.18125582670E+02  0.38885072516E+01  0.37068792512E+03  0.37115117549E+03  0.00000000000E+00 0. -1.
        -14    1    6    6    0    0 -0.46721021320E+02 -0.63736618188E+02  0.56821877752E+03  0.57368788506E+03  0.00000000000E+00 0.  1.
         -5    1    5    5    0  501  0.20768804849E+02  0.91956760022E+01  0.18777974030E+02  0.29843022981E+02  0.47000000000E+01 0.  1.
<mgrwt>
<rscale>  2 0.18123250E+03</rscale>
<asrwt>0</asrwt>
<pdfrwt beam="1">  1        2 0.32071685E+00 0.18123250E+03</pdfrwt>
<pdfrwt beam="2">  1       -2 0.24369561E-02 0.18123250E+03</pdfrwt>
<totfact> 0.38686568E+03</totfact>
</mgrwt>
</event>
<event>
12    1  0.5759937E-002  0.2157036E+03  0.7546771E-02  0.1137127E+00
          2   -1    0    0  503    0  0.00000000000E+00  0.00000000000E+00  0.12024772010E+03  0.12024772010E+03  0.00000000000E+00 0. -1.
         -2   -1    0    0    0  501 -0.00000000000E+00 -0.00000000000E+00 -0.44343739432E+03  0.44343739432E+03  0.00000000000E+00 0.  1.
          6    2    1    2  503    0  0.14069714268E+02 -0.12788952799E+03 -0.61120578984E+02  0.22438929570E+03  0.17338149446E+03 0.  0.
         24    2    3    3    0    0 -0.58049821221E+02 -0.55136369138E+02 -0.32877220338E+02  0.11802188138E+03  0.80239964612E+02 0.  0.
         -6    2    1    2    0  501 -0.14069714268E+02  0.12788952799E+03 -0.26206909524E+03  0.33929581872E+03  0.17288074992E+03 0.  0.
        -24    2    5    5    0    0  0.46023432630E+02  0.12045054779E+03 -0.17037419425E+03  0.22931141256E+03  0.83245823022E+02 0.  0.
          2    1    4    4  502    0  0.39343186673E+01  0.10941198356E+02 -0.24397446536E+02  0.27026359028E+02  0.00000000000E+00 0. -1.
         -1    1    4    4    0  502 -0.61984139888E+02 -0.66077567494E+02 -0.84797738023E+01  0.90995522348E+02  0.00000000000E+00 0.  1.
          5    1    3    3  503    0  0.72119535489E+02 -0.72753158851E+02 -0.28243358646E+02  0.10636741432E+03  0.47000000000E+01 0. -1.
         13    1    6    6    0    0  0.45670392795E+02  0.69829651126E+02 -0.46563696852E+02  0.95551780826E+02  0.00000000000E+00 0. -1.
        -14    1    6    6    0    0  0.35303983485E+00  0.50620896663E+02 -0.12381049740E+03  0.13375963173E+03  0.00000000000E+00 0.  1.
         -5    1    5    5    0  501 -0.60093146898E+02  0.74389801995E+01 -0.91694900990E+02  0.10998440616E+03  0.47000000000E+01 0.  1.
<mgrwt>
<rscale>  2 0.21570363E+03</rscale>
<asrwt>0</asrwt>
<pdfrwt beam="1">  1        2 0.18499649E-01 0.21570363E+03</pdfrwt>
<pdfrwt beam="2">  1       -2 0.68221137E-01 0.21570363E+03</pdfrwt>
<totfact> 0.61185548E+02</totfact>
</mgrwt>
</event>
<event>
12    1  0.5759937E-002  0.2157071E+03  0.7546771E-02  0.1137125E+00
         -1   -1    0    0    0  501 -0.00000000000E+00  0.00000000000E+00  0.13669525977E+03  0.13669525977E+03  0.00000000000E+00 0.  1.
          1   -1    0    0  503    0  0.00000000000E+00 -0.00000000000E+00 -0.36912680612E+03  0.36912680612E+03  0.00000000000E+00 0. -1.
          6    2    1    2  503    0  0.39572439102E+02 -0.11860631600E+03 -0.18806547117E+03  0.28825057902E+03  0.17912659972E+03 0.  0.
         24    2    3    3    0    0  0.95459954904E+02 -0.74943385646E+02 -0.14498997380E+03  0.20513948239E+03  0.79567585667E+02 0.  0.
         -6    2    1    2    0  501 -0.39572439102E+02  0.11860631600E+03 -0.44366075184E+02  0.21757148686E+03  0.17244003925E+03 0.  0.
        -24    2    5    5    0    0 -0.33304558009E+02 -0.94009305527E+01 -0.99717468859E+01  0.84792718519E+02  0.76764564081E+02 0.  0.
          2    1    4    4  502    0  0.25479044367E+02  0.43923483467E+01 -0.24513562852E+00  0.25856034447E+02  0.00000000000E+00 0. -1.
         -1    1    4    4    0  502  0.69980910537E+02 -0.79335733992E+02 -0.14474483817E+03  0.17928344794E+03  0.00000000000E+00 0.  1.
          5    1    3    3  503    0 -0.55887515802E+02 -0.43662930357E+02 -0.43075497367E+02  0.83111096632E+02  0.47000000000E+01 0. -1.
         13    1    6    6    0    0  0.17421512542E+02  0.71232393897E+01 -0.23153755776E+02  0.29838666947E+02  0.00000000000E+00 0. -1.
        -14    1    6    6    0    0 -0.50726070551E+02 -0.16524169942E+02  0.13182008890E+02  0.54954051572E+02  0.00000000000E+00 0.  1.
         -5    1    5    5    0  501 -0.62678810934E+01  0.12800724656E+03 -0.34394328298E+02  0.13277876835E+03  0.47000000000E+01 0.  1.
<mgrwt>
<rscale>  2 0.21570708E+03</rscale>
<asrwt>0</asrwt>
<pdfrwt beam="2">  1        1 0.56788739E-01 0.21570708E+03</pdfrwt>
<pdfrwt beam="1">  1       -1 0.21030040E-01 0.21570708E+03</pdfrwt>
<totfact> 0.12448269E+03</totfact>
</mgrwt>
</event>
<event>
12    1  0.5759937E-002  0.1998847E+03  0.7546771E-02  0.1149836E+00
          1   -1    0    0  503    0  0.00000000000E+00  0.00000000000E+00  0.70556036060E+03  0.70556036060E+03  0.00000000000E+00 0.  1.
         -1   -1    0    0    0  501 -0.00000000000E+00 -0.00000000000E+00 -0.11015140157E+03  0.11015140157E+03  0.00000000000E+00 0. -1.
          6    2    1    2  503    0 -0.16089560621E+01  0.10672252478E+03  0.57823549994E+03  0.61028728334E+03  0.16340743184E+03 0.  0.
         24    2    3    3    0    0  0.11867475065E+02  0.98882986952E+02  0.23920089251E+03  0.27086184589E+03  0.78932822770E+02 0.  0.
         -6    2    1    2    0  501  0.16089560621E+01 -0.10672252478E+03  0.17173459087E+02  0.20542447883E+03  0.17467685241E+03 0.  0.
        -24    2    5    5    0    0  0.48245823996E+02 -0.28697485646E+02  0.44702875181E+02  0.11033050986E+03  0.83804947003E+02 0.  0.
          4    1    4    4  502    0  0.27123096319E+01  0.61746272316E+02  0.55007907166E+02  0.82739522716E+02  0.00000000000E+00 0. -1.
         -3    1    4    4    0  502  0.91551654333E+01  0.37136714635E+02  0.18419298534E+03  0.18812232317E+03  0.00000000000E+00 0.  1.
          5    1    3    3  503    0 -0.13476431127E+02  0.78395378303E+01  0.33903460744E+03  0.33942543745E+03  0.47000000000E+01 0. -1.
         13    1    6    6    0    0 -0.20371522633E+02 -0.39217189064E+01 -0.58726765849E+01  0.21560777904E+02  0.00000000000E+00 0. -1.
        -14    1    6    6    0    0  0.68617346629E+02 -0.24775766739E+02  0.50575551765E+02  0.88769731960E+02  0.00000000000E+00 0.  1.
         -5    1    5    5    0  501 -0.46636867934E+02 -0.78025039136E+02 -0.27529416093E+02  0.95093968964E+02  0.47000000000E+01 0.  1.
<mgrwt>
<rscale>  2 0.19988470E+03</rscale>
<asrwt>0</asrwt>
<pdfrwt beam="1">  1        1 0.10854774E+00 0.19988470E+03</pdfrwt>
<pdfrwt beam="2">  1       -1 0.16946370E-01 0.19988470E+03</pdfrwt>
<totfact> 0.74017976E+02</totfact>
</mgrwt>
</event>
<event>
12    1  0.5759937E-002  0.2023919E+03  0.7546771E-02  0.1147737E+00
          2   -1    0    0  503    0  0.00000000000E+00  0.00000000000E+00  0.17978987262E+04  0.17978987262E+04  0.00000000000E+00 0. -1.
         -2   -1    0    0    0  501 -0.00000000000E+00 -0.00000000000E+00 -0.22897272834E+02  0.22897272834E+02  0.00000000000E+00 0.  1.
          6    2    1    2  503    0  0.57103680458E+02  0.88962057206E+02  0.82253227947E+03  0.84702237444E+03  0.17237306660E+03 0.  0.
         24    2    3    3    0    0  0.18774754598E+02  0.12042710165E+03  0.66683912778E+03  0.68355493712E+03  0.87850734254E+02 0.  0.
         -6    2    1    2    0  501 -0.57103680458E+02 -0.88962057206E+02  0.95246917386E+03  0.97377362455E+03  0.17280760048E+03 0.  0.
        -24    2    5    5    0    0 -0.30957297023E+02 -0.11812689738E+03  0.75652059979E+03  0.77389327298E+03  0.10805120046E+03 0.  0.
          4    1    4    4  502    0  0.54184708474E+01  0.69164452576E+02  0.56023482777E+03  0.56451407740E+03  0.00000000000E+00 0. -1.
         -3    1    4    4    0  502  0.13356283750E+02  0.51262649073E+02  0.10660430000E+03  0.11904085973E+03  0.00000000000E+00 0.  1.
          5    1    3    3  503    0  0.38328925860E+02 -0.31465044443E+02  0.15569315169E+03  0.16346743731E+03  0.47000000000E+01 0. -1.
         11    1    6    6    0    0  0.38104325326E+02 -0.26737744128E+02  0.27674544912E+03  0.28063301690E+03  0.00000000000E+00 0. -1.
        -12    1    6    6    0    0 -0.69061622349E+02 -0.91389153252E+02  0.47977515068E+03  0.49326025607E+03  0.00000000000E+00 0.  1.
         -5    1    5    5    0  501 -0.26146383435E+02  0.29164840175E+02  0.19594857407E+03  0.19988035158E+03  0.47000000000E+01 0.  1.
<mgrwt>
<rscale>  2 0.20239190E+03</rscale>
<asrwt>0</asrwt>
<pdfrwt beam="1">  1        2 0.27659969E+00 0.20239190E+03</pdfrwt>
<pdfrwt beam="2">  1       -2 0.35226588E-02 0.20239190E+03</pdfrwt>
<totfact> 0.31577917E+03</totfact>
</mgrwt>
</event>
<event>
12    1  0.5759937E-002  0.1897207E+03  0.7546771E-02  0.1158713E+00
         -2   -1    0    0    0  501 -0.00000000000E+00  0.00000000000E+00  0.19590953036E+03  0.19590953036E+03  0.00000000000E+00 0. -1.
          2   -1    0    0  503    0  0.00000000000E+00 -0.00000000000E+00 -0.19985766004E+03  0.19985766004E+03  0.00000000000E+00 0.  1.
          6    2    1    2  503    0  0.72759505038E+02 -0.35680019257E+02  0.54234750393E+02  0.19786782923E+03  0.17217218227E+03 0.  0.
         24    2    3    3    0    0 -0.64370307591E+01 -0.16481735994E+02 -0.19893784323E+02  0.87605437539E+02  0.83461769963E+02 0.  0.
         -6    2    1    2    0  501 -0.72759505038E+02  0.35680019257E+02 -0.58182880073E+02  0.19789936118E+03  0.17091489190E+03 0.  0.
        -24    2    5    5    0    0 -0.28799615786E+02 -0.27727182205E+02  0.15826777298E+02  0.90883173408E+02  0.80069031633E+02 0.  0.
          2    1    4    4  502    0 -0.11301385015E+02  0.19702979144E+02 -0.39945102554E+02  0.45951495171E+02  0.00000000000E+00 0. -1.
         -1    1    4    4    0  502  0.48643542561E+01 -0.36184715139E+02  0.20051318231E+02  0.41653942368E+02  0.00000000000E+00 0.  1.
          5    1    3    3  503    0  0.79196535797E+02 -0.19198283262E+02  0.74128534716E+02  0.11026239169E+03  0.47000000000E+01 0. -1.
         11    1    6    6    0    0  0.15081522594E+02 -0.78471069280E+01 -0.23284900005E+02  0.28830816483E+02  0.00000000000E+00 0. -1.
        -12    1    6    6    0    0 -0.43881138379E+02 -0.19880075277E+02  0.39111677302E+02  0.62052356924E+02  0.00000000000E+00 0.  1.
         -5    1    5    5    0  501 -0.43959889252E+02  0.63407201461E+02 -0.74009657371E+02  0.10701618777E+03  0.47000000000E+01 0.  1.
<mgrwt>
<rscale>  2 0.18972070E+03</rscale>
<asrwt>0</asrwt>
<pdfrwt beam="2">  1        2 0.30747332E-01 0.18972070E+03</pdfrwt>
<pdfrwt beam="1">  1       -2 0.30139928E-01 0.18972070E+03</pdfrwt>
<totfact> 0.17097235E+03</totfact>
</mgrwt>
</event>
<event>
12    1  0.5759937E-002  0.2435018E+03  0.7546771E-02  0.1117482E+00
          2   -1    0    0  503    0  0.00000000000E+00  0.00000000000E+00  0.27980017499E+03  0.27980017499E+03  0.00000000000E+00 0. -1.
         -2   -1    0    0    0  501 -0.00000000000E+00 -0.00000000000E+00 -0.58844694656E+03  0.58844694656E+03  0.00000000000E+00 0.  1.
          6    2    1    2  503    0 -0.45921845768E+02 -0.16485956768E+03  0.19293539002E+03  0.31069659486E+03  0.17326516201E+03 0.  0.
         24    2    3    3    0    0  0.25802095943E+02 -0.78633271076E+02  0.42120582032E+02  0.12268996108E+03  0.80185682286E+02 0.  0.
         -6    2    1    2    0  501  0.45921845768E+02  0.16485956768E+03 -0.50158216158E+03  0.55755052668E+03  0.17317745814E+03 0.  0.
        -24    2    5    5    0    0  0.44280816471E+02  0.11923211889E+03 -0.19304577448E+03  0.24561888476E+03  0.82975156683E+02 0.  0.
          2    1    4    4  502    0  0.34030388659E+02 -0.22100034313E+02  0.50680886528E+02  0.64923271084E+02  0.00000000000E+00 0. -1.
         -1    1    4    4    0  502 -0.82282927160E+01 -0.56533236763E+02 -0.85603044962E+01  0.57766689995E+02  0.00000000000E+00 0.  1.
          5    1    3    3  503    0 -0.71723941711E+02 -0.86226296600E+02  0.15081480798E+03  0.18800663379E+03  0.47000000000E+01 0. -1.
         13    1    6    6    0    0 -0.47694111981E+01  0.62154253682E+02 -0.37302488098E+02  0.72645537731E+02  0.00000000000E+00 0. -1.
        -14    1    6    6    0    0  0.49050227669E+02  0.57077865205E+02 -0.15574328638E+03  0.17297334703E+03  0.00000000000E+00 0.  1.
         -5    1    5    5    0  501  0.16410292964E+01  0.45627448789E+02 -0.30853638711E+03  0.31193164192E+03  0.47000000000E+01 0.  1.
<mgrwt>
<rscale>  2 0.24350178E+03</rscale>
<asrwt>0</asrwt>
<pdfrwt beam="1">  1        2 0.43046181E-01 0.24350178E+03</pdfrwt>
<pdfrwt beam="2">  1       -2 0.90530299E-01 0.24350178E+03</pdfrwt>
<totfact> 0.12858058E+02</totfact>
</mgrwt>
</event>
<event>
12    1  0.5759937E-002  0.1749680E+03  0.7546771E-02  0.1172764E+00
         -2   -1    0    0    0  501 -0.00000000000E+00  0.00000000000E+00  0.63456070107E+02  0.63456070107E+02  0.00000000000E+00 0.  1.
          2   -1    0    0  503    0  0.00000000000E+00 -0.00000000000E+00 -0.48804115636E+03  0.48804115636E+03  0.00000000000E+00 0. -1.
          6    2    1    2  503    0  0.10522734402E+02  0.25614804991E+02 -0.18312124523E+03  0.25348223503E+03  0.17306937005E+03 0.  0.
         24    2    3    3    0    0 -0.47262308442E+02  0.41737574946E+02 -0.66049884786E+02  0.12185074821E+03  0.80680026014E+02 0.  0.
         -6    2    1    2    0  501 -0.10522734402E+02 -0.25614804991E+02 -0.24146384103E+03  0.29801499144E+03  0.17245666825E+03 0.  0.
        -24    2    5    5    0    0  0.45052811413E+02  0.83555121250E+01 -0.19995681139E+03  0.22063574844E+03  0.81227068569E+02 0.  0.
          4    1    4    4  502    0 -0.49423487425E+02 -0.56197944373E+01 -0.52988506648E+02  0.72677679074E+02  0.00000000000E+00 0. -1.
         -3    1    4    4    0  502  0.21611789829E+01  0.47357369383E+02 -0.13061378138E+02  0.49173069137E+02  0.00000000000E+00 0.  1.
          5    1    3    3  503    0  0.57785042844E+02 -0.16122769955E+02 -0.11707136044E+03  0.13163148682E+03  0.47000000000E+01 0. -1.
         13    1    6    6    0    0 -0.14719833241E+02  0.26898012479E+02 -0.67616657143E+02  0.74244116866E+02  0.00000000000E+00 0. -1.
        -14    1    6    6    0    0  0.59772644654E+02 -0.18542500354E+02 -0.13234015425E+03  0.14639163157E+03  0.00000000000E+00 0.  1.
         -5    1    5    5    0  501 -0.55575545815E+02 -0.33970317116E+02 -0.41507029637E+02  0.77379242997E+02  0.47000000000E+01 0.  1.
<mgrwt>
<rscale>  2 0.17496805E+03</rscale>
<asrwt>0</asrwt>
<pdfrwt beam="2">  1        2 0.75083256E-01 0.17496805E+03</pdfrwt>
<pdfrwt beam="1">  1       -2 0.97624722E-02 0.17496805E+03</pdfrwt>
<totfact> 0.43152264E+03</totfact>
</mgrwt>
</event>
<event>
12    1  0.5759937E-002  0.2566680E+03  0.7546771E-02  0.1109162E+00
         -2   -1    0    0    0  501 -0.00000000000E+00  0.00000000000E+00  0.45600140187E+02  0.45600140187E+02  0.00000000000E+00 0. -1.
          2   -1    0    0  503    0  0.00000000000E+00 -0.00000000000E+00 -0.14468265424E+04  0.14468265424E+04  0.00000000000E+00 0.  1.
          6    2    1    2  503    0  0.19819108102E+02 -0.18894611935E+03 -0.73056744208E+03  0.77451032467E+03  0.17333211625E+03 0.  0.
         24    2    3    3    0    0  0.20800826681E+02 -0.16967803589E+02 -0.23964000893E+03  0.25430907565E+03  0.80778656377E+02 0.  0.
         -6    2    1    2    0  501 -0.19819108102E+02  0.18894611935E+03 -0.67065896017E+03  0.71791635796E+03  0.17183428966E+03 0.  0.
        -24    2    5    5    0    0 -0.48089112026E+02  0.66514296005E+02 -0.20319986845E+03  0.23384111905E+03  0.81576762335E+02 0.  0.
          2    1    4    4  502    0  0.51626044916E+02 -0.11418528222E+02 -0.13171702023E+03  0.14193309945E+03  0.00000000000E+00 0. -1.
         -1    1    4    4    0  502 -0.30825218235E+02 -0.55492753665E+01 -0.10792298870E+03  0.11237597620E+03  0.00000000000E+00 0.  1.
          5    1    3    3  503    0 -0.98171857926E+00 -0.17197831576E+03 -0.49092743315E+03  0.52020124902E+03  0.47000000000E+01 0. -1.
         13    1    6    6    0    0 -0.26039974206E+02  0.28452445289E+02 -0.16364744007E+02  0.41897813141E+02  0.00000000000E+00 0. -1.
        -14    1    6    6    0    0 -0.22049137820E+02  0.38061850716E+02 -0.18683512444E+03  0.19194330591E+03  0.00000000000E+00 0.  1.
         -5    1    5    5    0  501  0.28270003925E+02  0.12243182335E+03 -0.46745909172E+03  0.48407523891E+03  0.47000000000E+01 0.  1.
<mgrwt>
<rscale>  2 0.25666797E+03</rscale>
<asrwt>0</asrwt>
<pdfrwt beam="2">  1        2 0.22258869E+00 0.25666797E+03</pdfrwt>
<pdfrwt beam="1">  1       -2 0.70154066E-02 0.25666797E+03</pdfrwt>
<totfact> 0.16943430E+03</totfact>
</mgrwt>
</event>
<event>
12    1  0.5759937E-002  0.1876415E+03  0.7546771E-02  0.1160606E+00
         -2   -1    0    0    0  501 -0.00000000000E+00  0.00000000000E+00  0.30879265187E+02  0.30879265187E+02  0.00000000000E+00 0.  1.
          2   -1    0    0  503    0  0.00000000000E+00 -0.00000000000E+00 -0.11411038110E+04  0.11411038110E+04  0.00000000000E+00 0. -1.
          6    2    1    2  503    0  0.63732138891E+02  0.29152011545E+02 -0.53658844018E+03  0.56817471019E+03  0.17315808343E+03 0.  0.
         24    2    3    3    0    0 -0.14597484199E+02  0.41323521204E+02 -0.40011686004E+03  0.41028152577E+03  0.79477724844E+02 0.  0.
         -6    2    1    2    0  501 -0.63732138891E+02 -0.29152011545E+02 -0.57363610567E+03  0.60380836604E+03  0.17497009991E+03 0.  0.
        -24    2    5    5    0    0 -0.26584268166E+02 -0.65653076700E+02 -0.51234719905E+03  0.52324341006E+03  0.79164158573E+02 0.  0.
          2    1    4    4  502    0  0.25212779172E+01  0.35551209875E+02 -0.38522211556E+03  0.38686732051E+03  0.00000000000E+00 0. -1.
         -1    1    4    4    0  502 -0.17118762117E+02  0.57723113295E+01 -0.14894744487E+02  0.23414205257E+02  0.00000000000E+00 0.  1.
          5    1    3    3  503    0  0.78329623091E+02 -0.12171509659E+02 -0.13647158013E+03  0.15789318442E+03  0.47000000000E+01 0. -1.
         11    1    6    6    0    0  0.21420281901E+02 -0.39048767710E+02 -0.14113006421E+03  0.14799097865E+03  0.00000000000E+00 0. -1.
        -12    1    6    6    0    0 -0.48004550067E+02 -0.26604308990E+02 -0.37121713483E+03  0.37525243141E+03  0.00000000000E+00 0.  1.
         -5    1    5    5    0  501 -0.37147870725E+02  0.36501065155E+02 -0.61288906622E+02  0.80564955978E+02  0.47000000000E+01 0.  1.
<mgrwt>
<rscale>  2 0.18764152E+03</rscale>
<asrwt>0</asrwt>
<pdfrwt beam="2">  1        2 0.17555442E+00 0.18764152E+03</pdfrwt>
<pdfrwt beam="1">  1       -2 0.47506566E-02 0.18764152E+03</pdfrwt>
<totfact> 0.45296613E+03</totfact>
</mgrwt>
</event>
<event>
12    1  0.5759937E-002  0.2574722E+03  0.7546771E-02  0.1108672E+00
          2   -1    0    0  503    0  0.00000000000E+00  0.00000000000E+00  0.28419198168E+03  0.28419198168E+03  0.00000000000E+00 0. -1.
         -2   -1    0    0    0  501 -0.00000000000E+00 -0.00000000000E+00 -0.23337108045E+03  0.23337108045E+03  0.00000000000E+00 0.  1.
          6    2    1    2  503    0 -0.51297221193E+02 -0.18307201677E+03  0.20032337419E+02  0.25909189353E+03  0.17487294394E+03 0.  0.
         24    2    3    3    0    0 -0.42278899820E+01 -0.16155958205E+03  0.63695632107E+02  0.19121789194E+03  0.79923557503E+02 0.  0.
         -6    2    1    2    0  501  0.51297221193E+02  0.18307201677E+03  0.30788563807E+02  0.25847116861E+03  0.17237355109E+03 0.  0.
        -24    2    5    5    0    0  0.57915066216E+02  0.79227245427E+02  0.84497169183E+02  0.14127800883E+03  0.56467626709E+02 0.  0.
          4    1    4    4  502    0 -0.30322397146E+02 -0.85223081893E+02  0.63542495983E+02  0.11054442660E+03  0.00000000000E+00 0. -1.
         -3    1    4    4    0  502  0.26094507164E+02 -0.76336500153E+02  0.15313612492E+00  0.80673465343E+02  0.00000000000E+00 0.  1.
          5    1    3    3  503    0 -0.47069331211E+02 -0.21512434720E+02 -0.43663294689E+02  0.67874001586E+02  0.47000000000E+01 0. -1.
         13    1    6    6    0    0 -0.49887260557E+01  0.14445572144E+02  0.35259517405E+02  0.38429097177E+02  0.00000000000E+00 0. -1.
        -14    1    6    6    0    0  0.62903792272E+02  0.64781673283E+02  0.49237651778E+02  0.10284891165E+03  0.00000000000E+00 0.  1.
         -5    1    5    5    0  501 -0.66178450235E+01  0.10384477134E+03 -0.53708605376E+02  0.11719315978E+03  0.47000000000E+01 0.  1.
<mgrwt>
<rscale>  2 0.25747222E+03</rscale>
<asrwt>0</asrwt>
<pdfrwt beam="1">  1        2 0.43721843E-01 0.25747222E+03</pdfrwt>
<pdfrwt beam="2">  1       -2 0.35903243E-01 0.25747222E+03</pdfrwt>
<totfact> 0.85029261E+02</totfact>
</mgrwt>
</event>
<event>
12    1  0.5759937E-002  0.2034518E+03  0.7546771E-02  0.1146859E+00
          1   -1    0    0  503    0  0.00000000000E+00  0.00000000000E+00  0.91863838597E+03  0.91863838597E+03  0.00000000000E+00 0.  1.
         -1   -1    0    0    0  501 -0.00000000000E+00 -0.00000000000E+00 -0.58224198806E+02  0.58224198806E+02  0.00000000000E+00 0. -1.
          6    2    1    2  503    0  0.12479627936E+02  0.10731662283E+03  0.66205772401E+03  0.69254030338E+03  0.17210183976E+03 0.  0.
         24    2    3    3    0    0  0.71439736889E+02  0.58997565549E+02  0.47202506685E+03  0.48773423285E+03  0.80577102246E+02 0.  0.
         -6    2    1    2    0  501 -0.12479627936E+02 -0.10731662283E+03  0.19835646316E+03  0.28432228140E+03  0.17268837416E+03 0.  0.
        -24    2    5    5    0    0  0.39628554550E+02 -0.54459365047E+02  0.17903124118E+03  0.20748019275E+03  0.80371638597E+02 0.  0.
          4    1    4    4  502    0  0.59160681751E+02  0.61616200637E+02  0.22944760791E+03  0.24483207964E+03  0.00000000000E+00 0. -1.
         -3    1    4    4    0  502  0.12279055138E+02 -0.26186350879E+01  0.24257745894E+03  0.24290215320E+03  0.00000000000E+00 0.  1.
          5    1    3    3  503    0 -0.58960108953E+02  0.48319057280E+02  0.19003265715E+03  0.20480607053E+03  0.47000000000E+01 0. -1.
         11    1    6    6    0    0  0.48313453249E+02 -0.47904015164E+02  0.68963630173E+02  0.96876037906E+02  0.00000000000E+00 0. -1.
        -12    1    6    6    0    0 -0.86848986991E+01 -0.65553498827E+01  0.11006761100E+03  0.11060415485E+03  0.00000000000E+00 0.  1.
         -5    1    5    5    0  501 -0.52108182486E+02 -0.52857257782E+02  0.19325221987E+02  0.76842088644E+02  0.47000000000E+01 0.  1.
<mgrwt>
<rscale>  2 0.20345180E+03</rscale>
<asrwt>0</asrwt>
<pdfrwt beam="1">  1        1 0.14132897E+00 0.20345180E+03</pdfrwt>
<pdfrwt beam="2">  1       -1 0.89575697E-02 0.20345180E+03</pdfrwt>
<totfact> 0.13357263E+03</totfact>
</mgrwt>
</event>
<event>
12    1  0.5759937E-002  0.3811953E+03  0.7546771E-02  0.1050493E+00
          2   -1    0    0  503    0  0.00000000000E+00  0.00000000000E+00  0.58451521585E+03  0.58451521585E+03  0.00000000000E+00 0.  1.
         -2   -1    0    0    0  501 -0.00000000000E+00 -0.00000000000E+00 -0.28573429678E+03  0.28573429678E+03  0.00000000000E+00 0. -1.
          6    2    1    2  503    0  0.26622357649E+02 -0.33880842548E+03 -0.74673839780E+01  0.38129016713E+03  0.17270359180E+03 0.  0.
         24    2    3    3    0    0 -0.32031134351E+02 -0.20916131805E+03  0.44134525257E+02  0.22985222068E+03  0.78164803421E+02 0.  0.
         -6    2    1    2    0  501 -0.26622357649E+02  0.33880842548E+03  0.30624830305E+03  0.48895934550E+03  0.17260741390E+03 0.  0.
        -24    2    5    5    0    0 -0.17404231106E+02  0.12996009381E+03  0.59638925930E+02  0.16563153294E+03  0.81758607940E+02 0.  0.
          4    1    4    4  502    0  0.11807822574E+02 -0.98673107411E+02  0.49174128936E+02  0.11087786865E+03  0.00000000000E+00 0. -1.
         -3    1    4    4    0  502 -0.43838956925E+02 -0.11048821064E+03 -0.50396036784E+01  0.11897435203E+03  0.00000000000E+00 0.  1.
          5    1    3    3  503    0  0.58653492000E+02 -0.12964710743E+03 -0.51601909235E+02  0.15143794645E+03  0.47000000000E+01 0. -1.
         13    1    6    6    0    0 -0.29208398617E+02  0.13681177811E+03  0.48663017236E+02  0.14811712401E+03  0.00000000000E+00 0. -1.
        -14    1    6    6    0    0  0.11804167511E+02 -0.68516842953E+01  0.10975908694E+02  0.17514408925E+02  0.00000000000E+00 0.  1.
         -5    1    5    5    0  501 -0.92181265435E+01  0.20884833167E+03  0.24660937712E+03  0.32332781257E+03  0.47000000000E+01 0.  1.
<mgrwt>
<rscale>  2 0.38119526E+03</rscale>
<asrwt>0</asrwt>
<pdfrwt beam="1">  1        2 0.89925418E-01 0.38119526E+03</pdfrwt>
<pdfrwt beam="2">  1       -2 0.43959123E-01 0.38119526E+03</pdfrwt>
<totfact> 0.25806920E+02</totfact>
</mgrwt>
</event>
<event>
12    1  0.5759937E-002  0.1898430E+03  0.7546771E-02  0.1158603E+00
         -2   -1    0    0    0  501 -0.00000000000E+00  0.00000000000E+00  0.17593049873E+03  0.17593049873E+03  0.00000000000E+00 0. -1.
          2   -1    0    0  503    0  0.00000000000E+00 -0.00000000000E+00 -0.34723125740E+03  0.34723125740E+03  0.00000000000E+00 0.  1.
          6    2    1    2  503    0 -0.63729338013E+02 -0.45387347751E+02 -0.25322713762E+03  0.31666215345E+03  0.17329020843E+03 0.  0.
         24    2    3    3    0    0  0.22406215254E+02  0.10996530202E+02 -0.14086449731E+03  0.16419599928E+03  0.80588816951E+02 0.  0.
         -6    2    1    2    0  501  0.63729338013E+02  0.45387347751E+02  0.81926378945E+02  0.20649960269E+03  0.17265200399E+03 0.  0.
        -24    2    5    5    0    0  0.68505657423E+02 -0.23669761306E+02  0.86088418741E+02  0.13699341509E+03  0.78119762151E+02 0.  0.
          2    1    4    4  502    0  0.37679195607E+02  0.29652221179E+02 -0.46471733379E+02  0.66772733999E+02  0.00000000000E+00 0. -1.
         -1    1    4    4    0  502 -0.15272980353E+02 -0.18655690977E+02 -0.94392763934E+02  0.97423265280E+02  0.00000000000E+00 0.  1.
          5    1    3    3  503    0 -0.86135553266E+02 -0.56383877953E+02 -0.11236264031E+03  0.15246615417E+03  0.47000000000E+01 0. -1.
         11    1    6    6    0    0  0.50956636308E+02 -0.31373130578E+02  0.12738557964E+02  0.61181067048E+02  0.00000000000E+00 0. -1.
        -12    1    6    6    0    0  0.17549021115E+02  0.77033692720E+01  0.73349860777E+02  0.75812348046E+02  0.00000000000E+00 0.  1.
         -5    1    5    5    0  501 -0.47763194106E+01  0.69057109057E+02 -0.41620397958E+01  0.69506187592E+02  0.47000000000E+01 0.  1.
<mgrwt>
<rscale>  2 0.18984303E+03</rscale>
<asrwt>0</asrwt>
<pdfrwt beam="2">  1        2 0.53420193E-01 0.18984303E+03</pdfrwt>
<pdfrwt beam="1">  1       -2 0.27066231E-01 0.18984303E+03</pdfrwt>
<totfact> 0.11442538E+03</totfact>
</mgrwt>
</event>
<event>
12    1  0.5759937E-002  0.2243827E+03  0.7546771E-02  0.1130657E+00
         -2   -1    0    0    0  501 -0.00000000000E+00  0.00000000000E+00  0.11122561490E+03  0.11122561490E+03  0.00000000000E+00 0.  1.
          2   -1    0    0  503    0  0.00000000000E+00 -0.00000000000E+00 -0.45869911928E+03  0.45869911928E+03  0.00000000000E+00 0. -1.
          6    2    1    2  503    0 -0.14035804242E+03  0.43293947199E+02 -0.14162692869E+03  0.26597173669E+03  0.17061076124E+03 0.  0.
         24    2    3    3    0    0 -0.10560291331E+03  0.79184832629E+02 -0.51569507996E+02  0.16287710211E+03  0.80295225384E+02 0.  0.
         -6    2    1    2    0  501  0.14035804242E+03 -0.43293947199E+02 -0.20584657569E+03  0.30395299749E+03  0.16864123465E+03 0.  0.
        -24    2    5    5    0    0  0.14599872291E+03 -0.69560867168E+02 -0.19953741551E+03  0.27595900058E+03  0.10091505576E+03 0.  0.
          2    1    4    4  502    0 -0.67687900579E+02  0.35339529766E+02 -0.68404335095E+02  0.10251676599E+03  0.00000000000E+00 0. -1.
         -1    1    4    4    0  502 -0.37915012733E+02  0.43845302863E+02  0.16834827099E+02  0.60360336125E+02  0.00000000000E+00 0.  1.
          5    1    3    3  503    0 -0.34755129106E+02 -0.35890885429E+02 -0.90057420694E+02  0.10309463457E+03  0.47000000000E+01 0. -1.
         13    1    6    6    0    0  0.64888078140E+02 -0.58421142064E+02 -0.38745719846E+02  0.95523417710E+02  0.00000000000E+00 0. -1.
        -14    1    6    6    0    0  0.81110644768E+02 -0.11139725104E+02 -0.16079169567E+03  0.18043558287E+03  0.00000000000E+00 0.  1.
         -5    1    5    5    0  501 -0.56406804891E+01  0.26266919969E+02 -0.63091601792E+01  0.27993996914E+02  0.47000000000E+01 0.  1.
<mgrwt>
<rscale>  2 0.22438268E+03</rscale>
<asrwt>0</asrwt>
<pdfrwt beam="2">  1        2 0.70569096E-01 0.22438268E+03</pdfrwt>
<pdfrwt beam="1">  1       -2 0.17111633E-01 0.22438268E+03</pdfrwt>
<totfact> 0.18720621E+03</totfact>
</mgrwt>
</event>
<event>
12    1  0.5759937E-002  0.4032941E+03  0.7546771E-02  0.1042645E+00
          2   -1    0    0  503    0  0.00000000000E+00  0.00000000000E+00  0.35535962148E+03  0.35535962148E+03  0.00000000000E+00 0. -1.
         -2   -1    0    0    0  501 -0.00000000000E+00 -0.00000000000E+00 -0.49468587098E+03  0.49468587098E+03  0.00000000000E+00 0.  1.
          6    2    1    2  503    0  0.36092050656E+03  0.52574257276E+02 -0.18586507793E+03  0.44393601433E+03  0.17177221266E+03 0.  0.
         24    2    3    3    0    0  0.11566033651E+03  0.71418117056E+02 -0.82135955500E+02  0.17693514747E+03  0.77986347137E+02 0.  0.
         -6    2    1    2    0  501 -0.36092050656E+03 -0.52574257276E+02  0.46538828423E+02  0.40610947813E+03  0.17242790113E+03 0.  0.
        -24    2    5    5    0    0 -0.16495608062E+03 -0.59026760562E+02  0.76480074269E+02  0.20771023610E+03  0.81238374095E+02 0.  0.
          2    1    4    4  502    0  0.13437250970E+02  0.50448584754E+02 -0.31141650833E+02  0.60789981362E+02  0.00000000000E+00 0. -1.
         -1    1    4    4    0  502  0.10222308554E+03  0.20969532302E+02 -0.50994304667E+02  0.11614516611E+03  0.00000000000E+00 0.  1.
          5    1    3    3  503    0  0.24526017005E+03 -0.18843859779E+02 -0.10372912243E+03  0.26700086686E+03  0.47000000000E+01 0. -1.
         13    1    6    6    0    0 -0.17327866869E+03 -0.49934760856E+02  0.74965346974E+02  0.19529152724E+03  0.00000000000E+00 0. -1.
        -14    1    6    6    0    0  0.83225880752E+01 -0.90919997064E+01  0.15147272949E+01  0.12418708858E+02  0.00000000000E+00 0.  1.
         -5    1    5    5    0  501 -0.19596442594E+03  0.64525032856E+01 -0.29941245846E+02  0.19839924202E+03  0.47000000000E+01 0.  1.
<mgrwt>
<rscale>  2 0.40329414E+03</rscale>
<asrwt>0</asrwt>
<pdfrwt beam="1">  1        2 0.54670711E-01 0.40329414E+03</pdfrwt>
<pdfrwt beam="2">  1       -2 0.76105518E-01 0.40329414E+03</pdfrwt>
<totfact> 0.14433991E+02</totfact>
</mgrwt>
</event>
<event>
12    1  0.5759937E-002  0.2222348E+03  0.7546771E-02  0.1132228E+00
         -1   -1    0    0    0  501 -0.00000000000E+00  0.00000000000E+00  0.15952717517E+02  0.15952717517E+02  0.00000000000E+00 0.  1.
          1   -1    0    0  503    0  0.00000000000E+00 -0.00000000000E+00 -0.31764743219E+04  0.31764743219E+04  0.00000000000E+00 0. -1.
          6    2    1    2  503    0  0.55101575051E+02  0.11590899433E+03 -0.18774261281E+04  0.18913700251E+04  0.18994901090E+03 0.  0.
         24    2    3    3    0    0  0.61474735277E+02  0.19893652265E+02 -0.49732081756E+03  0.50790614001E+03  0.80409893727E+02 0.  0.
         -6    2    1    2    0  501 -0.55101575051E+02 -0.11590899433E+03 -0.12830954763E+04  0.13010570143E+04  0.17304414110E+03 0.  0.
        -24    2    5    5    0    0 -0.38600956229E+02 -0.71605395414E+02 -0.11997392149E+04  0.12051120530E+04  0.79394647078E+02 0.  0.
          2    1    4    4  502    0  0.27514522404E+02  0.46506185680E+02 -0.18871221931E+03  0.19629614354E+03  0.00000000000E+00 0. -1.
         -1    1    4    4    0  502  0.33960212873E+02 -0.26612533416E+02 -0.30860859824E+03  0.31160999648E+03  0.00000000000E+00 0.  1.
          5    1    3    3  503    0 -0.63731602260E+01  0.96015342069E+02 -0.13801053106E+04  0.13834638851E+04  0.47000000000E+01 0. -1.
         11    1    6    6    0    0  0.54309797264E+01 -0.32897797510E+02 -0.83715153720E+03  0.83781528803E+03  0.00000000000E+00 0. -1.
        -12    1    6    6    0    0 -0.44031935955E+02 -0.38707597904E+02 -0.36258767773E+03  0.36729676498E+03  0.00000000000E+00 0.  1.
         -5    1    5    5    0  501 -0.16500618822E+02 -0.44303598919E+02 -0.83356261345E+02  0.95944961328E+02  0.47000000000E+01 0.  1.
<mgrwt>
<rscale>  2 0.22223483E+03</rscale>
<asrwt>0</asrwt>
<pdfrwt beam="2">  1        1 0.48868796E+00 0.22223483E+03</pdfrwt>
<pdfrwt beam="1">  1       -1 0.24542662E-02 0.22223483E+03</pdfrwt>
<totfact> 0.27864242E+02</totfact>
</mgrwt>
</event>
<event>
12    1  0.5759937E-002  0.3157767E+03  0.7546771E-02  0.1077610E+00
         -3   -1    0    0    0  501 -0.00000000000E+00  0.00000000000E+00  0.65144728814E+03  0.65144728814E+03  0.00000000000E+00 0.  1.
          3   -1    0    0  503    0  0.00000000000E+00 -0.00000000000E+00 -0.15513257525E+03  0.15513257525E+03  0.00000000000E+00 0. -1.
          6    2    1    2  503    0  0.21404814660E+03 -0.15529486162E+03  0.20194336031E+03  0.37517732459E+03  0.17333147723E+03 0.  0.
         24    2    3    3    0    0  0.16751744271E+03 -0.11431360024E+03  0.21997217435E+03  0.31043399809E+03  0.82775702189E+02 0.  0.
         -6    2    1    2    0  501 -0.21404814660E+03  0.15529486162E+03  0.29437135257E+03  0.43140253880E+03  0.17181546543E+03 0.  0.
        -24    2    5    5    0    0 -0.15503154472E+03  0.36043023174E+02  0.20339424352E+03  0.27014843919E+03  0.79228034940E+02 0.  0.
          4    1    4    4  502    0  0.89450074596E+02 -0.10543015963E+03  0.11848559128E+03  0.18208698401E+03  0.00000000000E+00 0. -1.
         -3    1    4    4    0  502  0.78067368110E+02 -0.88834406094E+01  0.10148658307E+03  0.12834701408E+03  0.00000000000E+00 0.  1.
          5    1    3    3  503    0  0.46530703897E+02 -0.40981261382E+02 -0.18028814039E+02  0.64743326493E+02  0.47000000000E+01 0. -1.
         13    1    6    6    0    0 -0.28036520225E+02 -0.47954856522E+01  0.19132194897E+01  0.28507956043E+02  0.00000000000E+00 0. -1.
        -14    1    6    6    0    0 -0.12699502449E+03  0.40838508826E+02  0.20148102403E+03  0.24164048314E+03  0.00000000000E+00 0.  1.
         -5    1    5    5    0  501 -0.59016601884E+02  0.11925183845E+03  0.90977109053E+02  0.16125409962E+03  0.47000000000E+01 0.  1.
<mgrwt>
<rscale>  2 0.31577672E+03</rscale>
<asrwt>0</asrwt>
<pdfrwt beam="2">  1        3 0.23866550E-01 0.31577672E+03</pdfrwt>
<pdfrwt beam="1">  1       -3 0.10022266E+00 0.31577672E+03</pdfrwt>
<totfact> 0.36940122E+01</totfact>
</mgrwt>
</event>
<event>
12    1  0.5759937E-002  0.2086526E+03  0.7546771E-02  0.1142637E+00
          2   -1    0    0  503    0  0.00000000000E+00  0.00000000000E+00  0.22231737940E+04  0.22231737940E+04  0.00000000000E+00 0. -1.
         -2   -1    0    0    0  501 -0.00000000000E+00 -0.00000000000E+00 -0.20767978701E+02  0.20767978701E+02  0.00000000000E+00 0.  1.
          6    2    1    2  503    0  0.10237001385E+03  0.52412471811E+02  0.13684327344E+04  0.13842244182E+04  0.17390343369E+03 0.  0.
         24    2    3    3    0    0 -0.14028510906E+02  0.11050229941E+02  0.44757128804E+03  0.45510260427E+03  0.80494818661E+02 0.  0.
         -6    2    1    2    0  501 -0.10237001385E+03 -0.52412471811E+02  0.83397308080E+03  0.85971735447E+03  0.17428753006E+03 0.  0.
        -24    2    5    5    0    0  0.48166997103E+01 -0.19127222021E+02  0.50674710356E+03  0.51374650367E+03  0.82181456855E+02 0.  0.
          4    1    4    4  502    0 -0.59690879270E+01 -0.34851245076E+02  0.21797564306E+03  0.22082486332E+03  0.00000000000E+00 0. -1.
         -3    1    4    4    0  502 -0.80594229790E+01  0.45901475017E+02  0.22959564498E+03  0.23427774094E+03  0.00000000000E+00 0.  1.
          5    1    3    3  503    0  0.11639852476E+03  0.41362241870E+02  0.92086144641E+03  0.92912181392E+03  0.47000000000E+01 0. -1.
         11    1    6    6    0    0  0.29156999750E+02 -0.23428989671E+02  0.10913366687E+03  0.11536552967E+03  0.00000000000E+00 0. -1.
        -12    1    6    6    0    0 -0.24340300039E+02  0.43017676503E+01  0.39761343669E+03  0.39838097401E+03  0.00000000000E+00 0.  1.
         -5    1    5    5    0  501 -0.10718671356E+03 -0.33285249790E+02  0.32722597724E+03  0.34597085080E+03  0.47000000000E+01 0.  1.
<mgrwt>
<rscale>  2 0.20865260E+03</rscale>
<asrwt>0</asrwt>
<pdfrwt beam="1">  1        2 0.34202655E+00 0.20865260E+03</pdfrwt>
<pdfrwt beam="2">  1       -2 0.31950754E-02 0.20865260E+03</pdfrwt>
<totfact> 0.21903513E+03</totfact>
</mgrwt>
</event>
<event>
12    1  0.5759937E-002  0.1795469E+03  0.7546771E-02  0.1168242E+00
         -1   -1    0    0    0  501 -0.00000000000E+00  0.00000000000E+00  0.26913665411E+02  0.26913665411E+02  0.00000000000E+00 0.  1.
          1   -1    0    0  503    0  0.00000000000E+00 -0.00000000000E+00 -0.12615385956E+04  0.12615385956E+04  0.00000000000E+00 0. -1.
          6    2    1    2  503    0 -0.59273199182E+01  0.58602641356E+02 -0.75678435010E+03  0.77742518308E+03  0.16792248220E+03 0.  0.
         24    2    3    3    0    0  0.10139687722E+01  0.83138096683E+02 -0.34813768295E+03  0.36795679769E+03  0.85319326211E+02 0.  0.
         -6    2    1    2    0  501  0.59273199182E+01 -0.58602641356E+02 -0.47784058010E+03  0.51102707795E+03  0.17131156327E+03 0.  0.
        -24    2    5    5    0    0 -0.42661005721E+02 -0.77454372997E+02 -0.23921913726E+03  0.26673525214E+03  0.78120149743E+02 0.  0.
          4    1    4    4  502    0 -0.15704690517E+02  0.58350723328E+01 -0.76742962519E+01  0.18427701873E+02  0.00000000000E+00 0. -1.
         -3    1    4    4    0  502  0.16718659289E+02  0.77303024350E+02 -0.34046338670E+03  0.34952909582E+03  0.00000000000E+00 0.  1.
          5    1    3    3  503    0 -0.69412886903E+01 -0.24535455326E+02 -0.40864666715E+03  0.40946838538E+03  0.47000000000E+01 0. -1.
         11    1    6    6    0    0  0.64974370665E+01 -0.48314818446E+02 -0.17064146796E+03  0.17746844496E+03  0.00000000000E+00 0. -1.
        -12    1    6    6    0    0 -0.49158442788E+02 -0.29139554551E+02 -0.68577669308E+02  0.89266807182E+02  0.00000000000E+00 0.  1.
         -5    1    5    5    0  501  0.48588325639E+02  0.18851731640E+02 -0.23862144284E+03  0.24429182581E+03  0.47000000000E+01 0.  1.
<mgrwt>
<rscale>  2 0.17954688E+03</rscale>
<asrwt>0</asrwt>
<pdfrwt beam="2">  1        1 0.19408282E+00 0.17954688E+03</pdfrwt>
<pdfrwt beam="1">  1       -1 0.41405647E-02 0.17954688E+03</pdfrwt>
<totfact> 0.24140717E+03</totfact>
</mgrwt>
</event>
<event>
12    1  0.5759937E-002  0.1955524E+03  0.7546771E-02  0.1153547E+00
         -1   -1    0    0    0  501 -0.00000000000E+00  0.00000000000E+00  0.64161081813E+02  0.64161081813E+02  0.00000000000E+00 0.  1.
          1   -1    0    0  503    0  0.00000000000E+00 -0.00000000000E+00 -0.94421814560E+03  0.94421814560E+03  0.00000000000E+00 0. -1.
          6    2    1    2  503    0 -0.30329605329E+02  0.85298481301E+02 -0.13291697817E+03  0.23590417311E+03  0.17259240984E+03 0.  0.
         24    2    3    3    0    0 -0.33517350809E+01  0.27183862045E+02  0.62997307403E+00  0.87708381534E+02  0.83319666595E+02 0.  0.
         -6    2    1    2    0  501  0.30329605329E+02 -0.85298481301E+02 -0.74714008562E+03  0.77247505430E+03  0.17407953962E+03 0.  0.
        -24    2    5    5    0    0 -0.32818227262E+02 -0.86769366724E+02 -0.35576482912E+03  0.37600753525E+03  0.78785112078E+02 0.  0.
          2    1    4    4  502    0 -0.29010714485E+02 -0.12451958320E+02 -0.18695129444E+02  0.36690335047E+02  0.00000000000E+00 0. -1.
         -1    1    4    4    0  502  0.25658979404E+02  0.39635820364E+02  0.19325102518E+02  0.51018046487E+02  0.00000000000E+00 0.  1.
          5    1    3    3  503    0 -0.26977870248E+02  0.58114619256E+02 -0.13354695125E+03  0.14819579158E+03  0.47000000000E+01 0. -1.
         13    1    6    6    0    0 -0.16342168733E+02 -0.77494338970E+02 -0.34556492654E+03  0.35452441031E+03  0.00000000000E+00 0. -1.
        -14    1    6    6    0    0 -0.16476058528E+02 -0.92750277540E+01 -0.10199902573E+02  0.21483124935E+02  0.00000000000E+00 0.  1.
         -5    1    5    5    0  501  0.63147832590E+02  0.14708854235E+01 -0.39137525650E+03  0.39646751905E+03  0.47000000000E+01 0.  1.
<mgrwt>
<rscale>  2 0.19555245E+03</rscale>
<asrwt>0</asrwt>
<pdfrwt beam="2">  1        1 0.14526433E+00 0.19555245E+03</pdfrwt>
<pdfrwt beam="1">  1       -1 0.98709356E-02 0.19555245E+03</pdfrwt>
<totfact> 0.10998973E+03</totfact>
</mgrwt>
</event>
<event>
12    1  0.5759937E-002  0.2730228E+03  0.7546771E-02  0.1099562E+00
         -1   -1    0    0    0  501 -0.00000000000E+00  0.00000000000E+00  0.23302367127E+03  0.23302367127E+03  0.00000000000E+00 0. -1.
          1   -1    0    0  503    0  0.00000000000E+00 -0.00000000000E+00 -0.33357853424E+03  0.33357853424E+03  0.00000000000E+00 0.  1.
          6    2    1    2  503    0  0.47862393334E+01  0.20896436040E+03  0.68413601997E+01  0.27455567341E+03  0.17789042017E+03 0.  0.
         24    2    3    3    0    0 -0.45286826652E+02  0.77869858315E+02 -0.40744603996E+02  0.12630050688E+03  0.78594425899E+02 0.  0.
         -6    2    1    2    0  501 -0.47862393334E+01 -0.20896436040E+03 -0.10739622317E+03  0.29204653210E+03  0.17340189202E+03 0.  0.
        -24    2    5    5    0    0 -0.25280284573E+02 -0.38546062777E+02 -0.51174522384E+01  0.92182981051E+02  0.79665688564E+02 0.  0.
          2    1    4    4  502    0 -0.38371489786E+02 -0.29012655912E+01 -0.13235014284E+02  0.40693416833E+02  0.00000000000E+00 0. -1.
         -1    1    4    4    0  502 -0.69153368662E+01  0.80771123906E+02 -0.27509589712E+02  0.85607090052E+02  0.00000000000E+00 0.  1.
          5    1    3    3  503    0  0.50073065986E+02  0.13109450208E+03  0.47585964196E+02  0.14825516653E+03  0.47000000000E+01 0. -1.
         11    1    6    6    0    0 -0.49327848425E+02 -0.42545773490E+02  0.59460199053E+01  0.65412037309E+02  0.00000000000E+00 0. -1.
        -12    1    6    6    0    0  0.24047563852E+02  0.39997107136E+01 -0.11063472144E+02  0.26770943743E+02  0.00000000000E+00 0.  1.
         -5    1    5    5    0  501  0.20494045240E+02 -0.17041829762E+03 -0.10227877093E+03  0.19986355105E+03  0.47000000000E+01 0.  1.
<mgrwt>
<rscale>  2 0.27302280E+03</rscale>
<asrwt>0</asrwt>
<pdfrwt beam="2">  1        1 0.51319774E-01 0.27302280E+03</pdfrwt>
<pdfrwt beam="1">  1       -1 0.35849796E-01 0.27302280E+03</pdfrwt>
<totfact> 0.57630338E+02</totfact>
</mgrwt>
</event>
<event>
12    1  0.5759937E-002  0.1985565E+03  0.7546771E-02  0.1150963E+00
          2   -1    0    0  503    0  0.00000000000E+00  0.00000000000E+00  0.13395824146E+03  0.13395824146E+03  0.00000000000E+00 0.  1.
         -2   -1    0    0    0  501 -0.00000000000E+00 -0.00000000000E+00 -0.33461964043E+03  0.33461964043E+03  0.00000000000E+00 0. -1.
          6    2    1    2  503    0  0.51922915531E+02  0.81538518305E+02 -0.19023406545E+02  0.19949644006E+03  0.17347167052E+03 0.  0.
         24    2    3    3    0    0 -0.71136958040E+01  0.91819382262E+02 -0.48733213332E+02  0.13244586019E+03  0.81765372695E+02 0.  0.
         -6    2    1    2    0  501 -0.51922915531E+02 -0.81538518305E+02 -0.18163799242E+03  0.26908144184E+03  0.17340110417E+03 0.  0.
        -24    2    5    5    0    0 -0.14754785810E+01 -0.50170228520E+02 -0.19975789253E+02  0.96786138848E+02  0.80307506810E+02 0.  0.
          2    1    4    4  502    0 -0.19231701566E+02  0.17256540204E+02 -0.50672180961E+02  0.56879842196E+02  0.00000000000E+00 0. -1.
         -1    1    4    4    0  502  0.12118005762E+02  0.74562842058E+02  0.19389676292E+01  0.75566017991E+02  0.00000000000E+00 0.  1.
          5    1    3    3  503    0  0.59036611335E+02 -0.10280863957E+02  0.29709806786E+02  0.67050579870E+02  0.47000000000E+01 0. -1.
         11    1    6    6    0    0  0.30052788318E+01 -0.67655467859E+02 -0.32198516607E+02  0.74986922218E+02  0.00000000000E+00 0. -1.
        -12    1    6    6    0    0 -0.44807574128E+01  0.17485239339E+02  0.12222727354E+02  0.21799216630E+02  0.00000000000E+00 0.  1.
         -5    1    5    5    0  501 -0.50447436950E+02 -0.31368289785E+02 -0.16166220317E+03  0.17229530299E+03  0.47000000000E+01 0.  1.
<mgrwt>
<rscale>  2 0.19855654E+03</rscale>
<asrwt>0</asrwt>
<pdfrwt beam="1">  1        2 0.20608960E-01 0.19855654E+03</pdfrwt>
<pdfrwt beam="2">  1       -2 0.51479944E-01 0.19855654E+03</pdfrwt>
<totfact> 0.96527980E+02</totfact>
</mgrwt>
</event>
<event>
12    1  0.5759937E-002  0.1872863E+03  0.7546771E-02  0.1160932E+00
         -2   -1    0    0    0  501 -0.00000000000E+00  0.00000000000E+00  0.89947565250E+02  0.89947565250E+02  0.00000000000E+00 0. -1.
          2   -1    0    0  503    0  0.00000000000E+00 -0.00000000000E+00 -0.39149951336E+03  0.39149951336E+03  0.00000000000E+00 0.  1.
          6    2    1    2  503    0  0.57544204896E+02  0.12026298508E+02 -0.16837618270E+03  0.25542659975E+03  0.18285579452E+03 0.  0.
         24    2    3    3    0    0  0.10744285757E+03  0.26457839686E+02 -0.14155850889E+03  0.19678000950E+03  0.80246967400E+02 0.  0.
         -6    2    1    2    0  501 -0.57544204896E+02 -0.12026298508E+02 -0.13317576541E+03  0.22602047885E+03  0.17289738285E+03 0.  0.
        -24    2    5    5    0    0 -0.78145840491E+00  0.48394185521E+02 -0.47134723181E+02  0.10644709040E+03  0.82259911591E+02 0.  0.
          4    1    4    4  502    0  0.10425431264E+03 -0.17361322248E+01 -0.12867659695E+03  0.16561896770E+03  0.00000000000E+00 0. -1.
         -3    1    4    4    0  502  0.31885449264E+01  0.28193971911E+02 -0.12881911939E+02  0.31161041800E+02  0.00000000000E+00 0.  1.
          5    1    3    3  503    0 -0.49898652674E+02 -0.14431541179E+02 -0.26817673805E+02  0.58646590249E+02  0.47000000000E+01 0. -1.
         11    1    6    6    0    0  0.20315986525E+02  0.25622608620E+02  0.15767109701E+02  0.36302329530E+02  0.00000000000E+00 0. -1.
        -12    1    6    6    0    0 -0.21097444930E+02  0.22771576901E+02 -0.62901832882E+02  0.70144760867E+02  0.00000000000E+00 0.  1.
         -5    1    5    5    0  501 -0.56762746491E+02 -0.60420484028E+02 -0.86041042227E+02  0.11957338846E+03  0.47000000000E+01 0.  1.
<mgrwt>
<rscale>  2 0.18728626E+03</rscale>
<asrwt>0</asrwt>
<pdfrwt beam="2">  1        2 0.60230693E-01 0.18728626E+03</pdfrwt>
<pdfrwt beam="1">  1       -2 0.13838087E-01 0.18728626E+03</pdfrwt>
<totfact> 0.31447735E+03</totfact>
</mgrwt>
</event>
<event>
12    1  0.5759937E-002  0.2369356E+03  0.7546771E-02  0.1121851E+00
         -3   -1    0    0    0  501 -0.00000000000E+00  0.00000000000E+00  0.32109653681E+03  0.32109653681E+03  0.00000000000E+00 0.  1.
          3   -1    0    0  503    0  0.00000000000E+00 -0.00000000000E+00 -0.22105430128E+03  0.22105430128E+03  0.00000000000E+00 0. -1.
          6    2    1    2  503    0 -0.16591690187E+03  0.14856895014E+02 -0.74372145225E+02  0.24559928067E+03  0.16443431827E+03 0.  0.
         24    2    3    3    0    0 -0.46252852496E+02  0.36135799698E+02  0.67478065523E+01  0.99398004778E+02  0.79933147547E+02 0.  0.
         -6    2    1    2    0  501  0.16591690187E+03 -0.14856895014E+02  0.17441438075E+03  0.29655155742E+03  0.17254942579E+03 0.  0.
        -24    2    5    5    0    0  0.14407225092E+03  0.31123043364E+02  0.73330427196E+02  0.18327579137E+03  0.80543198566E+02 0.  0.
          4    1    4    4  502    0  0.14657296222E+02  0.28135624487E+02  0.18681428864E+02  0.36816375191E+02  0.00000000000E+00 0. -1.
         -3    1    4    4    0  502 -0.60910148718E+02  0.80001752106E+01 -0.11933622312E+02  0.62581629587E+02  0.00000000000E+00 0.  1.
          5    1    3    3  503    0 -0.11966404937E+03 -0.21278904684E+02 -0.81119951777E+02  0.14620127589E+03  0.47000000000E+01 0. -1.
         13    1    6    6    0    0  0.91671163232E+02 -0.10019538511E+01  0.79706523556E+02  0.12148142235E+03  0.00000000000E+00 0. -1.
        -14    1    6    6    0    0  0.52401087687E+02  0.32124997215E+02 -0.63760963600E+01  0.61794369012E+02  0.00000000000E+00 0.  1.
         -5    1    5    5    0  501  0.21844650948E+02 -0.45979938378E+02  0.10108395355E+03  0.11327576605E+03  0.47000000000E+01 0.  1.
<mgrwt>
<rscale>  2 0.23693558E+03</rscale>
<asrwt>0</asrwt>
<pdfrwt beam="2">  1        3 0.34008354E-01 0.23693558E+03</pdfrwt>
<pdfrwt beam="1">  1       -3 0.49399467E-01 0.23693558E+03</pdfrwt>
<totfact> 0.85992632E+01</totfact>
</mgrwt>
</event>
<event>
12    1  0.5759937E-002  0.1854554E+03  0.7546771E-02  0.1162625E+00
          1   -1    0    0  503    0  0.00000000000E+00  0.00000000000E+00  0.39740635853E+03  0.39740635853E+03  0.00000000000E+00 0.  1.
         -1   -1    0    0    0  501 -0.00000000000E+00 -0.00000000000E+00 -0.97972096610E+02  0.97972096610E+02  0.00000000000E+00 0. -1.
          6    2    1    2  503    0 -0.17262499111E+02  0.63298779823E+02  0.23410625228E+03  0.29848924510E+03  0.17316282131E+03 0.  0.
         24    2    3    3    0    0  0.22533248414E+02  0.22525603771E+02  0.22337613355E+03  0.24032242592E+03  0.82721347003E+02 0.  0.
         -6    2    1    2    0  501  0.17262499111E+02 -0.63298779823E+02  0.65328009645E+02  0.19688921004E+03  0.17376099328E+03 0.  0.
        -24    2    5    5    0    0  0.56511900878E+02 -0.66944651574E+02  0.88280416234E+02  0.15103388442E+03  0.85689095200E+02 0.  0.
          2    1    4    4  502    0  0.28121322403E+02  0.49513297301E+02  0.11272302601E+03  0.12628878008E+03  0.00000000000E+00 0. -1.
         -1    1    4    4    0  502 -0.55880739885E+01 -0.26987693530E+02  0.11065310754E+03  0.11403364583E+03  0.00000000000E+00 0.  1.
          5    1    3    3  503    0 -0.39795747525E+02  0.40773176052E+02  0.10730118732E+02  0.58166819188E+02  0.47000000000E+01 0. -1.
         11    1    6    6    0    0  0.15289521285E+02 -0.43855871029E+02 -0.47560405860E+01  0.46687544452E+02  0.00000000000E+00 0. -1.
        -12    1    6    6    0    0  0.41222379594E+02 -0.23088780544E+02  0.93036456820E+02  0.10434633996E+03  0.00000000000E+00 0.  1.
         -5    1    5    5    0  501 -0.39249401767E+02  0.36458717508E+01 -0.22952406590E+02  0.45855325625E+02  0.47000000000E+01 0.  1.
<mgrwt>
<rscale>  2 0.18545537E+03</rscale>
<asrwt>0</asrwt>
<pdfrwt beam="1">  1        1 0.61139439E-01 0.18545537E+03</pdfrwt>
<pdfrwt beam="2">  1       -1 0.15072630E-01 0.18545537E+03</pdfrwt>
<totfact> 0.19284040E+03</totfact>
</mgrwt>
</event>
<event>
12    1  0.5759937E-002  0.2250515E+03  0.7546771E-02  0.1130172E+00
          1   -1    0    0  503    0  0.00000000000E+00  0.00000000000E+00  0.15687254687E+04  0.15687254687E+04  0.00000000000E+00 0.  1.
         -1   -1    0    0    0  501 -0.00000000000E+00 -0.00000000000E+00 -0.44779871461E+02  0.44779871461E+02  0.00000000000E+00 0. -1.
          6    2    1    2  503    0  0.12999900276E+03 -0.53647457499E+02  0.11912128084E+04  0.12125249418E+04  0.17734426746E+03 0.  0.
         24    2    3    3    0    0  0.83929670735E+02 -0.96002464168E+02  0.65489195570E+03  0.67254487090E+03  0.84690418427E+02 0.  0.
         -6    2    1    2    0  501 -0.12999900276E+03  0.53647457499E+02  0.33273278887E+03  0.40098039838E+03  0.17405855533E+03 0.  0.
        -24    2    5    5    0    0 -0.11748202302E+03  0.12903661413E+02  0.32847920494E+03  0.35788846553E+03  0.78848179848E+02 0.  0.
          2    1    4    4  502    0  0.27518419058E+02 -0.16977629341E+02  0.47620716204E+02  0.57560714879E+02  0.00000000000E+00 0. -1.
         -1    1    4    4    0  502  0.56411251676E+02 -0.79024834827E+02  0.60727123950E+03  0.61498415602E+03  0.00000000000E+00 0.  1.
          5    1    3    3  503    0  0.46069332021E+02  0.42355006669E+02  0.53632085270E+03  0.53998007091E+03  0.47000000000E+01 0. -1.
         11    1    6    6    0    0 -0.38409561874E+02  0.11989970269E+02  0.33085505077E+02  0.52093228702E+02  0.00000000000E+00 0. -1.
        -12    1    6    6    0    0 -0.79072461147E+02  0.91369114360E+00  0.29539369987E+03  0.30579523682E+03  0.00000000000E+00 0.  1.
         -5    1    5    5    0  501 -0.12516979734E+02  0.40743796087E+02  0.42535839294E+01  0.43091932858E+02  0.47000000000E+01 0.  1.
<mgrwt>
<rscale>  2 0.22505152E+03</rscale>
<asrwt>0</asrwt>
<pdfrwt beam="1">  1        1 0.24134234E+00 0.22505152E+03</pdfrwt>
<pdfrwt beam="2">  1       -1 0.68892122E-02 0.22505152E+03</pdfrwt>
<totfact> 0.70189337E+02</totfact>
</mgrwt>
</event>
<event>
12    1  0.5759937E-002  0.2785120E+03  0.7546771E-02  0.1096504E+00
          1   -1    0    0  503    0  0.00000000000E+00  0.00000000000E+00  0.54321062171E+03  0.54321062171E+03  0.00000000000E+00 0. -1.
         -1   -1    0    0    0  501 -0.00000000000E+00 -0.00000000000E+00 -0.14312295689E+03  0.14312295689E+03  0.00000000000E+00 0.  1.
          6    2    1    2  503    0  0.17793541572E+03 -0.12761218312E+03  0.18398593844E+03  0.33415211108E+03  0.17280314335E+03 0.  0.
         24    2    3    3    0    0  0.71412704882E+02 -0.55350602791E+02  0.16385139791E+03  0.20378220030E+03  0.80724475310E+02 0.  0.
         -6    2    1    2    0  501 -0.17793541572E+03  0.12761218312E+03  0.21610172638E+03  0.35218146752E+03  0.17142330203E+03 0.  0.
        -24    2    5    5    0    0 -0.20471698825E+03  0.10746874204E+03  0.18388738309E+03  0.30546032927E+03  0.77671534717E+02 0.  0.
          2    1    4    4  502    0  0.28735504986E+02  0.80638252972E+01  0.99446737829E+02  0.10382874453E+03  0.00000000000E+00 0. -1.
         -1    1    4    4    0  502  0.42677199896E+02 -0.63414428089E+02  0.64404660080E+02  0.99953455772E+02  0.00000000000E+00 0.  1.
          5    1    3    3  503    0  0.10652271083E+03 -0.72261580331E+02  0.20134540531E+02  0.13036991078E+03  0.47000000000E+01 0. -1.
         11    1    6    6    0    0 -0.11812363878E+03  0.18889690702E+02  0.81487063677E+02  0.14474168715E+03  0.00000000000E+00 0. -1.
        -12    1    6    6    0    0 -0.86593349471E+02  0.88579051339E+02  0.10240031941E+03  0.16071864212E+03  0.00000000000E+00 0.  1.
         -5    1    5    5    0  501  0.26781572535E+02  0.20143441081E+02  0.32214343291E+02  0.46721138254E+02  0.47000000000E+01 0.  1.
<mgrwt>
<rscale>  2 0.27851204E+03</rscale>
<asrwt>0</asrwt>
<pdfrwt beam="1">  1        1 0.83570864E-01 0.27851204E+03</pdfrwt>
<pdfrwt beam="2">  1       -1 0.22018917E-01 0.27851204E+03</pdfrwt>
<totfact> 0.69697827E+02</totfact>
</mgrwt>
</event>
<event>
12    1  0.5759937E-002  0.2950117E+03  0.7546771E-02  0.1087761E+00
          1   -1    0    0  503    0  0.00000000000E+00  0.00000000000E+00  0.17566621920E+03  0.17566621920E+03  0.00000000000E+00 0.  1.
         -1   -1    0    0    0  501 -0.00000000000E+00 -0.00000000000E+00 -0.51406755005E+03  0.51406755005E+03  0.00000000000E+00 0. -1.
          6    2    1    2  503    0 -0.17944788475E+03  0.15937404196E+03 -0.23435184680E+03  0.37607354043E+03  0.17002614836E+03 0.  0.
         24    2    3    3    0    0 -0.17716597517E+03  0.74143741451E+02 -0.14638179624E+03  0.25347569775E+03  0.77053370620E+02 0.  0.
         -6    2    1    2    0  501  0.17944788475E+03 -0.15937404196E+03 -0.10404948405E+03  0.31366022882E+03  0.17307459495E+03 0.  0.
        -24    2    5    5    0    0  0.53825317238E+02 -0.22583911714E+02  0.20856418500E+01  0.99699194628E+02  0.80798401368E+02 0.  0.
          2    1    4    4  502    0 -0.11417384350E+03  0.56632522228E+02 -0.13752214355E+03  0.18749733086E+03  0.00000000000E+00 0. -1.
         -1    1    4    4    0  502 -0.62992131670E+02  0.17511219223E+02 -0.88596526866E+01  0.65978366885E+02  0.00000000000E+00 0.  1.
          5    1    3    3  503    0 -0.22819095788E+01  0.85230300509E+02 -0.87970050558E+02  0.12259784269E+03  0.47000000000E+01 0. -1.
         11    1    6    6    0    0  0.61554617387E+02  0.10590403511E+02  0.13258569063E+02  0.63850741748E+02  0.00000000000E+00 0. -1.
        -12    1    6    6    0    0 -0.77293001490E+01 -0.33174315225E+02 -0.11172927213E+02  0.35848452881E+02  0.00000000000E+00 0.  1.
         -5    1    5    5    0  501  0.12562256751E+03 -0.13679013025E+03 -0.10613512590E+03  0.21396103419E+03  0.47000000000E+01 0.  1.
<mgrwt>
<rscale>  2 0.29501171E+03</rscale>
<asrwt>0</asrwt>
<pdfrwt beam="1">  1        1 0.27025572E-01 0.29501171E+03</pdfrwt>
<pdfrwt beam="2">  1       -1 0.79087315E-01 0.29501171E+03</pdfrwt>
<totfact> 0.29026875E+02</totfact>
</mgrwt>
</event>
<event>
12    1  0.5759937E-002  0.2947666E+03  0.7546771E-02  0.1087886E+00
          1   -1    0    0  503    0  0.00000000000E+00  0.00000000000E+00  0.23979048972E+03  0.23979048972E+03  0.00000000000E+00 0. -1.
         -1   -1    0    0    0  501 -0.00000000000E+00 -0.00000000000E+00 -0.37195696467E+03  0.37195696467E+03  0.00000000000E+00 0.  1.
          6    2    1    2  503    0  0.23312072258E+03  0.52722055702E+02 -0.11535006670E+03  0.31697697635E+03  0.17333170280E+03 0.  0.
         24    2    3    3    0    0  0.18937670171E+03  0.46400614826E+01 -0.13827393559E+03  0.24788999281E+03  0.80278901012E+02 0.  0.
         -6    2    1    2    0  501 -0.23312072258E+03 -0.52722055702E+02 -0.16816408261E+02  0.29477047804E+03  0.17170310622E+03 0.  0.
        -24    2    5    5    0    0 -0.15613989158E+03 -0.39256256712E+02  0.52735284929E+02  0.19004749055E+03  0.86118052424E+02 0.  0.
          2    1    4    4  502    0  0.91165744257E+02 -0.35527736059E+02 -0.50081115620E+02  0.10991601838E+03  0.00000000000E+00 0. -1.
         -1    1    4    4    0  502  0.98210957453E+02  0.40167797542E+02 -0.88192819972E+02  0.13797397442E+03  0.00000000000E+00 0.  1.
          5    1    3    3  503    0  0.43744020869E+02  0.48081994220E+02  0.22923868894E+02  0.69086983543E+02  0.47000000000E+01 0. -1.
         13    1    6    6    0    0 -0.83999497356E+01  0.19092349844E+02 -0.42560940581E+01  0.21288290555E+02  0.00000000000E+00 0. -1.
        -14    1    6    6    0    0 -0.14773994184E+03 -0.58348606556E+02  0.56991378987E+02  0.16875919999E+03  0.00000000000E+00 0.  1.
         -5    1    5    5    0  501 -0.76980831000E+02 -0.13465798990E+02 -0.69551693190E+02  0.10472298749E+03  0.47000000000E+01 0.  1.
<mgrwt>
<rscale>  2 0.29476660E+03</rscale>
<asrwt>0</asrwt>
<pdfrwt beam="1">  1        1 0.36890845E-01 0.29476660E+03</pdfrwt>
<pdfrwt beam="2">  1       -1 0.57224148E-01 0.29476660E+03</pdfrwt>
<totfact> 0.37233392E+02</totfact>
</mgrwt>
</event>
<event>
12    1  0.5759937E-002  0.1991680E+03  0.7546771E-02  0.1150443E+00
         -2   -1    0    0    0  501 -0.00000000000E+00  0.00000000000E+00  0.14059459521E+02  0.14059459521E+02  0.00000000000E+00 0. -1.
          2   -1    0    0  503    0  0.00000000000E+00 -0.00000000000E+00 -0.28237406532E+04  0.28237406532E+04  0.00000000000E+00 0.  1.
          6    2    1    2  503    0  0.92906902980E+02 -0.27059444871E+02 -0.13594107713E+04  0.13738153703E+04  0.17322563469E+03 0.  0.
         24    2    3    3    0    0  0.30670686674E+02 -0.40049360113E+02 -0.11734281098E+04  0.11772098646E+04  0.79654843861E+02 0.  0.
         -6    2    1    2    0  501 -0.92906902980E+02  0.27059444871E+02 -0.14502704224E+04  0.14639847424E+04  0.17493747935E+03 0.  0.
        -24    2    5    5    0    0 -0.63121483806E+02  0.79130869787E+02 -0.11912018287E+04  0.11980200253E+04  0.77744247887E+02 0.  0.
          4    1    4    4  502    0  0.10422946128E+02  0.11981573546E+02 -0.74375740320E+03  0.74392692566E+03  0.00000000000E+00 0. -1.
         -3    1    4    4    0  502  0.20247740546E+02 -0.52030933660E+02 -0.42967070657E+03  0.43328293890E+03  0.00000000000E+00 0.  1.
          5    1    3    3  503    0  0.62236216305E+02  0.12989915243E+02 -0.18598266151E+03  0.19660550577E+03  0.47000000000E+01 0. -1.
         11    1    6    6    0    0  0.49110254933E+01 -0.10212580373E+02 -0.48164004959E+02  0.49479150589E+02  0.00000000000E+00 0. -1.
        -12    1    6    6    0    0 -0.68032509299E+02  0.89343450160E+02 -0.11430378237E+04  0.11485408747E+04  0.00000000000E+00 0.  1.
         -5    1    5    5    0  501 -0.29785419174E+02 -0.52071424916E+02 -0.25906859373E+03  0.26596471711E+03  0.47000000000E+01 0.  1.
<mgrwt>
<rscale>  2 0.19916804E+03</rscale>
<asrwt>0</asrwt>
<pdfrwt beam="2">  1        2 0.43442179E+00 0.19916804E+03</pdfrwt>
<pdfrwt beam="1">  1       -2 0.21629930E-02 0.19916804E+03</pdfrwt>
<totfact> 0.18360605E+03</totfact>
</mgrwt>
</event>
<event>
12    1  0.5759937E-002  0.1948259E+03  0.7546771E-02  0.1154179E+00
         -2   -1    0    0    0  501 -0.00000000000E+00  0.00000000000E+00  0.81727590599E+02  0.81727590599E+02  0.00000000000E+00 0. -1.
          2   -1    0    0  503    0  0.00000000000E+00 -0.00000000000E+00 -0.71093632540E+03  0.71093632540E+03  0.00000000000E+00 0.  1.
          6    2    1    2  503    0  0.86363743086E+02  0.23706027455E+02 -0.54815420508E+03  0.58180325048E+03  0.17320888508E+03 0.  0.
         24    2    3    3    0    0 -0.91370780844E+00  0.61269237593E+02 -0.22114765396E+03  0.24123941995E+03  0.74400393485E+02 0.  0.
         -6    2    1    2    0  501 -0.86363743086E+02 -0.23706027455E+02 -0.81054529720E+02  0.21086066551E+03  0.17283434732E+03 0.  0.
        -24    2    5    5    0    0  0.12144115800E+02  0.19877909350E+02 -0.49337191636E+02  0.98470998084E+02  0.81974192015E+02 0.  0.
          2    1    4    4  502    0 -0.20499691088E+02 -0.62229736638E+01 -0.25228992495E+02  0.33097806548E+02  0.00000000000E+00 0. -1.
         -1    1    4    4    0  502  0.19585983280E+02  0.67492211257E+02 -0.19591866146E+03  0.20814161340E+03  0.00000000000E+00 0.  1.
          5    1    3    3  503    0  0.87277450894E+02 -0.37563210139E+02 -0.32700655112E+03  0.34056383053E+03  0.47000000000E+01 0. -1.
         13    1    6    6    0    0  0.15558774035E+02 -0.18548006096E+01  0.20183998728E+02  0.25552094619E+02  0.00000000000E+00 0. -1.
        -14    1    6    6    0    0 -0.34146582344E+01  0.21732709959E+02 -0.69521190364E+02  0.72918903465E+02  0.00000000000E+00 0.  1.
         -5    1    5    5    0  501 -0.98507858886E+02 -0.43583936804E+02 -0.31717338085E+02  0.11238966743E+03  0.47000000000E+01 0.  1.
<mgrwt>
<rscale>  2 0.19482590E+03</rscale>
<asrwt>0</asrwt>
<pdfrwt beam="2">  1        2 0.10937482E+00 0.19482590E+03</pdfrwt>
<pdfrwt beam="1">  1       -2 0.12573475E-01 0.19482590E+03</pdfrwt>
<totfact> 0.18749660E+03</totfact>
</mgrwt>
</event>
<event>
12    1  0.5759937E-002  0.1753023E+03  0.7546771E-02  0.1172428E+00
         -2   -1    0    0    0  501 -0.00000000000E+00  0.00000000000E+00  0.44628307763E+02  0.44628307763E+02  0.00000000000E+00 0.  1.
          2   -1    0    0  503    0  0.00000000000E+00 -0.00000000000E+00 -0.73738341054E+03  0.73738341054E+03  0.00000000000E+00 0. -1.
          6    2    1    2  503    0  0.27868070818E+02  0.77048508093E+01 -0.24685998107E+03  0.30310178435E+03  0.17347866535E+03 0.  0.
         24    2    3    3    0    0  0.81138375680E+02  0.17204856468E+02 -0.12548627082E+03  0.17012944503E+03  0.79484468967E+02 0.  0.
         -6    2    1    2    0  501 -0.27868070818E+02 -0.77048508093E+01 -0.44589512171E+03  0.47890993395E+03  0.17232606063E+03 0.  0.
        -24    2    5    5    0    0 -0.58881714910E+02  0.20223855920E+02 -0.41392288686E+03  0.42612572627E+03  0.79843081223E+02 0.  0.
          4    1    4    4  502    0  0.71896313791E+02  0.22078891505E+02 -0.13593423770E+03  0.15535338543E+03  0.00000000000E+00 0. -1.
         -3    1    4    4    0  502  0.92420618884E+01 -0.48740350368E+01  0.10447966873E+02  0.14776059599E+02  0.00000000000E+00 0.  1.
          5    1    3    3  503    0 -0.53270304862E+02 -0.95000056586E+01 -0.12137371024E+03  0.13297233932E+03  0.47000000000E+01 0. -1.
         11    1    6    6    0    0  0.19926476027E+02  0.72734854396E+01 -0.97314226040E+02  0.99599330455E+02  0.00000000000E+00 0. -1.
        -12    1    6    6    0    0 -0.78808190938E+02  0.12950370480E+02 -0.31660866082E+03  0.32652639581E+03  0.00000000000E+00 0.  1.
         -5    1    5    5    0  501  0.31013644092E+02 -0.27928706729E+02 -0.31972234851E+02  0.52784207684E+02  0.47000000000E+01 0.  1.
<mgrwt>
<rscale>  2 0.17530233E+03</rscale>
<asrwt>0</asrwt>
<pdfrwt beam="2">  1        2 0.11344359E+00 0.17530233E+03</pdfrwt>
<pdfrwt beam="1">  1       -2 0.68658940E-02 0.17530233E+03</pdfrwt>
<totfact> 0.46373268E+03</totfact>
</mgrwt>
</event>
<event>
12    1  0.5759937E-002  0.2053615E+03  0.7546771E-02  0.1145293E+00
         -2   -1    0    0    0  501 -0.00000000000E+00  0.00000000000E+00  0.11475445015E+02  0.11475445015E+02  0.00000000000E+00 0. -1.
          2   -1    0    0  503    0  0.00000000000E+00 -0.00000000000E+00 -0.36751120316E+04  0.36751120316E+04  0.00000000000E+00 0.  1.
          6    2    1    2  503    0  0.51586645378E+01 -0.11042179805E+03 -0.18363021147E+04  0.18477541450E+04  0.17311943443E+03 0.  0.
         24    2    3    3    0    0  0.62957592488E+02 -0.70483126024E+02 -0.14340330472E+04  0.14393691474E+04  0.80007702771E+02 0.  0.
         -6    2    1    2    0  501 -0.51586645378E+01  0.11042179805E+03 -0.18273344719E+04  0.18388333317E+04  0.17302359391E+03 0.  0.
        -24    2    5    5    0    0 -0.13723220755E+02 -0.56001401023E+01 -0.54885881360E+03  0.55506678719E+03  0.81446010515E+02 0.  0.
          4    1    4    4  502    0  0.15773734896E+02 -0.29318077815E+02 -0.14323203686E+03  0.14705025257E+03  0.00000000000E+00 0. -1.
         -3    1    4    4    0  502  0.47183857591E+02 -0.41165048209E+02 -0.12908010104E+04  0.12923188948E+04  0.00000000000E+00 0.  1.
          5    1    3    3  503    0 -0.57798927950E+02 -0.39938672023E+02 -0.40226906747E+03  0.40838499757E+03  0.47000000000E+01 0. -1.
         11    1    6    6    0    0  0.30249356275E+02 -0.17938269891E+02 -0.29975069088E+03  0.30180669602E+03  0.00000000000E+00 0. -1.
        -12    1    6    6    0    0 -0.43972577030E+02  0.12338129789E+02 -0.24910812272E+03  0.25326009117E+03  0.00000000000E+00 0.  1.
         -5    1    5    5    0  501  0.85645562169E+01  0.11602193815E+03 -0.12784756583E+04  0.12837665445E+04  0.47000000000E+01 0.  1.
<mgrwt>
<rscale>  2 0.20536147E+03</rscale>
<asrwt>0</asrwt>
<pdfrwt beam="2">  1        2 0.56540313E+00 0.20536147E+03</pdfrwt>
<pdfrwt beam="1">  1       -2 0.17654491E-02 0.20536147E+03</pdfrwt>
<totfact> 0.73035250E+02</totfact>
</mgrwt>
</event>
<event>
12    1  0.5759937E-002  0.3984813E+03  0.7546771E-02  0.1044307E+00
         -1   -1    0    0    0  501 -0.00000000000E+00  0.00000000000E+00  0.14852361894E+03  0.14852361894E+03  0.00000000000E+00 0. -1.
          1   -1    0    0  503    0  0.00000000000E+00 -0.00000000000E+00 -0.10942661512E+04  0.10942661512E+04  0.00000000000E+00 0.  1.
          6    2    1    2  503    0  0.15716415127E+03  0.32219193823E+03 -0.56750792343E+03  0.69363990493E+03  0.17482236427E+03 0.  0.
         24    2    3    3    0    0  0.27888969549E+02  0.92553195734E+02 -0.11525770994E+03  0.17019136853E+03  0.79604482010E+02 0.  0.
         -6    2    1    2    0  501 -0.15716415127E+03 -0.32219193823E+03 -0.37823460887E+03  0.54914986525E+03  0.17319335915E+03 0.  0.
        -24    2    5    5    0    0 -0.24864326057E+02 -0.20153003776E+03 -0.22389384200E+03  0.31270600237E+03  0.80149863395E+02 0.  0.
          2    1    4    4  502    0  0.33987843533E+02  0.85300292126E+02 -0.50596578905E+02  0.10483953043E+03  0.00000000000E+00 0. -1.
         -1    1    4    4    0  502 -0.60988739845E+01  0.72529036078E+01 -0.64661131039E+02  0.65351838091E+02  0.00000000000E+00 0.  1.
          5    1    3    3  503    0  0.12927518172E+03  0.22963874250E+03 -0.45225021349E+03  0.52344853641E+03  0.47000000000E+01 0. -1.
         11    1    6    6    0    0 -0.14967043089E+01  0.23356388700E+01  0.47396973278E+01  0.54918178664E+01  0.00000000000E+00 0. -1.
        -12    1    6    6    0    0 -0.23367621748E+02 -0.20386567663E+03 -0.22863353933E+03  0.30721418451E+03  0.00000000000E+00 0.  1.
         -5    1    5    5    0  501 -0.13229982521E+03 -0.12066190047E+03 -0.15434076687E+03  0.23644386288E+03  0.47000000000E+01 0.  1.
<mgrwt>
<rscale>  2 0.39848132E+03</rscale>
<asrwt>0</asrwt>
<pdfrwt beam="2">  1        1 0.16834863E+00 0.39848132E+03</pdfrwt>
<pdfrwt beam="1">  1       -1 0.22849788E-01 0.39848132E+03</pdfrwt>
<totfact> 0.21843805E+02</totfact>
</mgrwt>
</event>
<event>
12    1  0.5759937E-002  0.2404443E+03  0.7546771E-02  0.1119497E+00
         -2   -1    0    0    0  501 -0.00000000000E+00  0.00000000000E+00  0.17872966890E+03  0.17872966890E+03  0.00000000000E+00 0.  1.
          2   -1    0    0  503    0  0.00000000000E+00 -0.00000000000E+00 -0.32382933693E+03  0.32382933693E+03  0.00000000000E+00 0. -1.
          6    2    1    2  503    0  0.83988647768E+02  0.14159745835E+03 -0.65189933552E+02  0.25132331331E+03  0.17835287273E+03 0.  0.
         24    2    3    3    0    0  0.20937214227E+02  0.74959986902E+02 -0.10275139750E+03  0.15208123833E+03  0.80706175650E+02 0.  0.
         -6    2    1    2    0  501 -0.83988647768E+02 -0.14159745835E+03 -0.79909734477E+02  0.25123569252E+03  0.17213330407E+03 0.  0.
        -24    2    5    5    0    0 -0.28339698983E+02 -0.74944355120E+01 -0.63319682030E+02  0.10502438627E+03  0.78494805419E+02 0.  0.
          2    1    4    4  502    0  0.16800611905E+02  0.89352082328E+02 -0.65857954300E+02  0.11226453278E+03  0.00000000000E+00 0. -1.
         -1    1    4    4    0  502  0.41366023219E+01 -0.14392095426E+02 -0.36893443196E+02  0.39816705544E+02  0.00000000000E+00 0.  1.
          5    1    3    3  503    0  0.63051433542E+02  0.66637471447E+02  0.37561463943E+02  0.99242074978E+02  0.47000000000E+01 0. -1.
         11    1    6    6    0    0 -0.17662205244E+02  0.18215007234E+02  0.94786612664E+01  0.27084774358E+02  0.00000000000E+00 0. -1.
        -12    1    6    6    0    0 -0.10677493738E+02 -0.25709442746E+02 -0.72798343297E+02  0.77939611916E+02  0.00000000000E+00 0.  1.
         -5    1    5    5    0  501 -0.55648948785E+02 -0.13410302284E+03 -0.16590052447E+02  0.14621130625E+03  0.47000000000E+01 0.  1.
<mgrwt>
<rscale>  2 0.24044432E+03</rscale>
<asrwt>0</asrwt>
<pdfrwt beam="2">  1        2 0.49819897E-01 0.24044432E+03</pdfrwt>
<pdfrwt beam="1">  1       -2 0.27496873E-01 0.24044432E+03</pdfrwt>
<totfact> 0.12037980E+03</totfact>
</mgrwt>
</event>
<event>
12    1  0.5759937E-002  0.1701423E+03  0.7546771E-02  0.1177700E+00
         -2   -1    0    0    0  501 -0.00000000000E+00  0.00000000000E+00  0.52431268195E+02  0.52431268195E+02  0.00000000000E+00 0.  1.
          2   -1    0    0  503    0  0.00000000000E+00 -0.00000000000E+00 -0.92456810387E+03  0.92456810387E+03  0.00000000000E+00 0. -1.
          6    2    1    2  503    0 -0.25517790455E+02 -0.12807805141E+02 -0.73842165114E+03  0.75670989709E+03  0.16287460202E+03 0.  0.
         24    2    3    3    0    0 -0.59878970970E+02 -0.80420968593E+01 -0.28280656210E+03  0.29975190990E+03  0.78876418737E+02 0.  0.
         -6    2    1    2    0  501  0.25517790455E+02  0.12807805141E+02 -0.13371518454E+03  0.22028947498E+03  0.17272088671E+03 0.  0.
        -24    2    5    5    0    0 -0.13318848754E+02  0.16837748689E+02 -0.15512923727E+03  0.17551027618E+03  0.79233044099E+02 0.  0.
          2    1    4    4  502    0 -0.59340042733E+02  0.26022255211E+02 -0.19909057421E+03  0.20936918392E+03  0.00000000000E+00 0. -1.
         -1    1    4    4    0  502 -0.53892823618E+00 -0.34064352070E+02 -0.83715987894E+02  0.90382725975E+02  0.00000000000E+00 0.  1.
          5    1    3    3  503    0  0.34361180515E+02 -0.47657082822E+01 -0.45561508904E+03  0.45695798720E+03  0.47000000000E+01 0. -1.
         13    1    6    6    0    0 -0.12950740468E+02  0.47966087696E+02 -0.10983544825E+03  0.12054996035E+03  0.00000000000E+00 0. -1.
        -14    1    6    6    0    0 -0.36810828619E+00 -0.31128339007E+02 -0.45293789018E+02  0.54960315835E+02  0.00000000000E+00 0.  1.
         -5    1    5    5    0  501  0.38836639209E+02 -0.40299435473E+01  0.21414052731E+02  0.44779198792E+02  0.47000000000E+01 0.  1.
<mgrwt>
<rscale>  2 0.17014232E+03</rscale>
<asrwt>0</asrwt>
<pdfrwt beam="2">  1        2 0.14224124E+00 0.17014232E+03</pdfrwt>
<pdfrwt beam="1">  1       -2 0.80663496E-02 0.17014232E+03</pdfrwt>
<totfact> 0.27073226E+03</totfact>
</mgrwt>
</event>
<event>
12    1  0.5759937E-002  0.1848393E+03  0.7546771E-02  0.1163200E+00
          2   -1    0    0  503    0  0.00000000000E+00  0.00000000000E+00  0.15851178780E+04  0.15851178780E+04  0.00000000000E+00 0.  1.
         -2   -1    0    0    0  501 -0.00000000000E+00 -0.00000000000E+00 -0.21620135446E+02  0.21620135446E+02  0.00000000000E+00 0. -1.
          6    2    1    2  503    0  0.67873486348E+02 -0.12910134619E+02  0.73206625370E+03  0.75471726286E+03  0.17001078001E+03 0.  0.
         24    2    3    3    0    0  0.14794219561E+01  0.82984122994E+01  0.59596843715E+03  0.60173791811E+03  0.82698800947E+02 0.  0.
         -6    2    1    2    0  501 -0.67873486348E+02  0.12910134619E+02  0.83143148888E+03  0.85202075062E+03  0.17288018121E+03 0.  0.
        -24    2    5    5    0    0 -0.79167647868E+02  0.16576277630E+02  0.30252032728E+03  0.32295543749E+03  0.78989725521E+02 0.  0.
          4    1    4    4  502    0  0.25070483593E+02 -0.71697442361E+01  0.52076742880E+03  0.52141983974E+03  0.00000000000E+00 0. -1.
         -3    1    4    4    0  502 -0.23591061636E+02  0.15468156535E+02  0.75201008349E+02  0.80318078366E+02  0.00000000000E+00 0.  1.
          5    1    3    3  503    0  0.66394064392E+02 -0.21208546918E+02  0.13609781656E+03  0.15297934475E+03  0.47000000000E+01 0. -1.
         13    1    6    6    0    0 -0.70914144139E+02  0.31852841596E+02  0.29303193033E+03  0.30316848707E+03  0.00000000000E+00 0. -1.
        -14    1    6    6    0    0 -0.82535037282E+01 -0.15276563966E+02  0.94883969488E+01  0.19786950423E+02  0.00000000000E+00 0.  1.
         -5    1    5    5    0  501  0.11294161520E+02 -0.36661430107E+01  0.52891116160E+03  0.52906531313E+03  0.47000000000E+01 0.  1.
<mgrwt>
<rscale>  2 0.18483926E+03</rscale>
<asrwt>0</asrwt>
<pdfrwt beam="1">  1        2 0.24386420E+00 0.18483926E+03</pdfrwt>
<pdfrwt beam="2">  1       -2 0.33261759E-02 0.18483926E+03</pdfrwt>
<totfact> 0.44362889E+03</totfact>
</mgrwt>
</event>
<event>
12    1  0.5759937E-002  0.1896546E+03  0.7546771E-02  0.1158773E+00
          1   -1    0    0  503    0  0.00000000000E+00  0.00000000000E+00  0.42606147665E+02  0.42606147665E+02  0.00000000000E+00 0.  1.
         -1   -1    0    0    0  501 -0.00000000000E+00 -0.00000000000E+00 -0.84470522877E+03  0.84470522877E+03  0.00000000000E+00 0. -1.
          6    2    1    2  503    0 -0.66107731384E+02 -0.25440593265E+02 -0.41518809469E+03  0.45746620346E+03  0.17854052033E+03 0.  0.
         24    2    3    3    0    0 -0.41328150492E+02 -0.50367721203E+02 -0.11960297297E+03  0.15976157884E+03  0.83510284209E+02 0.  0.
         -6    2    1    2    0  501  0.66107731384E+02  0.25440593265E+02 -0.38691098642E+03  0.42984517298E+03  0.17334735472E+03 0.  0.
        -24    2    5    5    0    0 -0.17989101657E+02 -0.20874018549E+01 -0.12034626757E+03  0.14893788013E+03  0.85856292687E+02 0.  0.
          4    1    4    4  502    0 -0.42652466652E+02 -0.72301855382E+02 -0.94831193025E+02  0.12664812029E+03  0.00000000000E+00 0. -1.
         -3    1    4    4    0  502  0.13243161598E+01  0.21934134179E+02 -0.24771779949E+02  0.33113458552E+02  0.00000000000E+00 0.  1.
          5    1    3    3  503    0 -0.24779580892E+02  0.24927127938E+02 -0.29558512171E+03  0.29770462461E+03  0.47000000000E+01 0. -1.
         13    1    6    6    0    0  0.71763679357E+01 -0.27567305229E+02 -0.10698783382E+03  0.11071518938E+03  0.00000000000E+00 0. -1.
        -14    1    6    6    0    0 -0.25165469593E+02  0.25479903374E+02 -0.13358433753E+02  0.38222690749E+02  0.00000000000E+00 0.  1.
         -5    1    5    5    0  501  0.84096833041E+02  0.27527995120E+02 -0.26656471885E+03  0.28090729286E+03  0.47000000000E+01 0.  1.
<mgrwt>
<rscale>  2 0.18965459E+03</rscale>
<asrwt>0</asrwt>
<pdfrwt beam="1">  1        1 0.65547926E-02 0.18965459E+03</pdfrwt>
<pdfrwt beam="2">  1       -1 0.12995464E+00 0.18965459E+03</pdfrwt>
<totfact> 0.62097484E+02</totfact>
</mgrwt>
</event>
<event>
12    1  0.5759937E-002  0.1974454E+03  0.7546771E-02  0.1151912E+00
          1   -1    0    0  503    0  0.00000000000E+00  0.00000000000E+00  0.91038908055E+03  0.91038908055E+03  0.00000000000E+00 0.  1.
         -1   -1    0    0    0  501 -0.00000000000E+00 -0.00000000000E+00 -0.47792037989E+02  0.47792037989E+02  0.00000000000E+00 0. -1.
          6    2    1    2  503    0  0.32541189036E+02 -0.92157135688E+02  0.27905921002E+03  0.34250821866E+03  0.17287559257E+03 0.  0.
         24    2    3    3    0    0  0.25153127134E+02 -0.16637166868E+02  0.24469690078E+03  0.25907736438E+03  0.79592916485E+02 0.  0.
         -6    2    1    2    0  501 -0.32541189036E+02  0.92157135688E+02  0.58353783254E+03  0.61567289989E+03  0.17024937886E+03 0.  0.
        -24    2    5    5    0    0 -0.17594371821E+02  0.47183309819E+02  0.13655757500E+03  0.16616261859E+03  0.80163694285E+02 0.  0.
          2    1    4    4  502    0  0.73966763321E+01  0.25759085396E+02  0.16427576727E+03  0.16644749626E+03  0.00000000000E+00 0. -1.
         -1    1    4    4    0  502  0.17756450802E+02 -0.42396252264E+02  0.80421133517E+02  0.92629868117E+02  0.00000000000E+00 0.  1.
          5    1    3    3  503    0  0.73880619021E+01 -0.75519968820E+02  0.34362309238E+02  0.83430854278E+02  0.47000000000E+01 0. -1.
         13    1    6    6    0    0 -0.11451157078E+02  0.56980695534E+02  0.14196153163E+03  0.15339819140E+03  0.00000000000E+00 0. -1.
        -14    1    6    6    0    0 -0.61432147430E+01 -0.97973857147E+01 -0.54039566303E+01  0.12764427190E+02  0.00000000000E+00 0.  1.
         -5    1    5    5    0  501 -0.14946817215E+02  0.44973825869E+02  0.44698025754E+03  0.44951028130E+03  0.47000000000E+01 0.  1.
<mgrwt>
<rscale>  2 0.19744537E+03</rscale>
<asrwt>0</asrwt>
<pdfrwt beam="1">  1        1 0.14005985E+00 0.19744537E+03</pdfrwt>
<pdfrwt beam="2">  1       -1 0.73526219E-02 0.19744537E+03</pdfrwt>
<totfact> 0.18311660E+03</totfact>
</mgrwt>
</event>
<event>
12    1  0.5759937E-002  0.2109706E+03  0.7546771E-02  0.1140800E+00
         -2   -1    0    0    0  501 -0.00000000000E+00  0.00000000000E+00  0.23257852121E+02  0.23257852121E+02  0.00000000000E+00 0.  1.
          2   -1    0    0  503    0  0.00000000000E+00 -0.00000000000E+00 -0.19253627107E+04  0.19253627107E+04  0.00000000000E+00 0. -1.
          6    2    1    2  503    0 -0.58731051924E+02 -0.99919124238E+02 -0.10404212021E+04  0.10622789568E+04  0.18035281096E+03 0.  0.
         24    2    3    3    0    0  0.18990571846E+02 -0.72440334775E+02 -0.34026846404E+03  0.35727421831E+03  0.79082207404E+02 0.  0.
         -6    2    1    2    0  501  0.58731051924E+02  0.99919124238E+02 -0.86168365642E+03  0.88634160597E+03  0.17224851489E+03 0.  0.
        -24    2    5    5    0    0  0.97698417073E+02  0.33879342549E+02 -0.57264044012E+03  0.58726339011E+03  0.79173386641E+02 0.  0.
          2    1    4    4  502    0  0.26608011787E+01 -0.68003599670E+02 -0.33111271674E+03  0.33803431870E+03  0.00000000000E+00 0. -1.
         -1    1    4    4    0  502  0.16329770667E+02 -0.44367351056E+01 -0.91557472984E+01  0.19239899611E+02  0.00000000000E+00 0.  1.
          5    1    3    3  503    0 -0.77721623770E+02 -0.27478789462E+02 -0.70015273809E+03  0.70500473852E+03  0.47000000000E+01 0. -1.
         11    1    6    6    0    0  0.41903092352E+02  0.55678096434E+02 -0.33689892358E+03  0.34403023745E+03  0.00000000000E+00 0. -1.
        -12    1    6    6    0    0  0.55795324721E+02 -0.21798753886E+02 -0.23574151655E+03  0.24323315266E+03  0.00000000000E+00 0.  1.
         -5    1    5    5    0  501 -0.38967365149E+02  0.66039781689E+02 -0.28904321629E+03  0.29907821585E+03  0.47000000000E+01 0.  1.
<mgrwt>
<rscale>  2 0.21097058E+03</rscale>
<asrwt>0</asrwt>
<pdfrwt beam="2">  1        2 0.29620971E+00 0.21097058E+03</pdfrwt>
<pdfrwt beam="1">  1       -2 0.35781304E-02 0.21097058E+03</pdfrwt>
<totfact> 0.26481134E+03</totfact>
</mgrwt>
</event>
<event>
12    1  0.5759937E-002  0.2304980E+03  0.7546771E-02  0.1126290E+00
         -2   -1    0    0    0  501 -0.00000000000E+00  0.00000000000E+00  0.92115243857E+02  0.92115243857E+02  0.00000000000E+00 0.  1.
          2   -1    0    0  503    0  0.00000000000E+00 -0.00000000000E+00 -0.60670194305E+03  0.60670194305E+03  0.00000000000E+00 0. -1.
          6    2    1    2  503    0 -0.34596732413E+02  0.14805564302E+03 -0.33511779187E+03  0.40685054393E+03  0.17351087386E+03 0.  0.
         24    2    3    3    0    0 -0.77187453174E+02  0.14856613361E+03 -0.26358298230E+03  0.32346260070E+03  0.84393521736E+02 0.  0.
         -6    2    1    2    0  501  0.34596732413E+02 -0.14805564302E+03 -0.17946890732E+03  0.29196664298E+03  0.17296827626E+03 0.  0.
        -24    2    5    5    0    0 -0.21543808524E+02 -0.15295772995E+03 -0.13130097910E+03  0.21768319864E+03  0.79283195077E+02 0.  0.
          4    1    4    4  502    0 -0.94962624934E+02  0.13528560232E+03 -0.23117021258E+03  0.28418262001E+03  0.00000000000E+00 0. -1.
         -3    1    4    4    0  502  0.17775171760E+02  0.13280531289E+02 -0.32412769718E+02  0.39279980693E+02  0.00000000000E+00 0.  1.
          5    1    3    3  503    0  0.42590720760E+02 -0.51049059698E+00 -0.71534809570E+02  0.83387943228E+02  0.47000000000E+01 0. -1.
         11    1    6    6    0    0  0.19773473915E+02 -0.13995565614E+02 -0.38704618424E+02  0.45660854294E+02  0.00000000000E+00 0. -1.
        -12    1    6    6    0    0 -0.41317282438E+02 -0.13896216433E+03 -0.92596360680E+02  0.17202234435E+03  0.00000000000E+00 0.  1.
         -5    1    5    5    0  501  0.56140540937E+02  0.49020869308E+01 -0.48167928218E+02  0.74283444332E+02  0.47000000000E+01 0.  1.
<mgrwt>
<rscale>  2 0.23049804E+03</rscale>
<asrwt>0</asrwt>
<pdfrwt beam="2">  1        2 0.93338758E-01 0.23049804E+03</pdfrwt>
<pdfrwt beam="1">  1       -2 0.14171576E-01 0.23049804E+03</pdfrwt>
<totfact> 0.18669154E+03</totfact>
</mgrwt>
</event>
<event>
12    1  0.5759937E-002  0.2077321E+03  0.7546771E-02  0.1143375E+00
          2   -1    0    0  503    0  0.00000000000E+00  0.00000000000E+00  0.10750336096E+04  0.10750336096E+04  0.00000000000E+00 0. -1.
         -2   -1    0    0    0  501 -0.00000000000E+00 -0.00000000000E+00 -0.40662893047E+02  0.40662893047E+02  0.00000000000E+00 0.  1.
          6    2    1    2  503    0  0.15984829017E+02  0.11416051043E+03  0.45443633247E+03  0.49974347116E+03  0.17304051491E+03 0.  0.
         24    2    3    3    0    0  0.36198142575E+02 -0.15425528969E+01  0.16069841833E+03  0.18335790084E+03  0.80519892879E+02 0.  0.
         -6    2    1    2    0  501 -0.15984829017E+02 -0.11416051043E+03  0.57993438403E+03  0.61595303144E+03  0.17258652976E+03 0.  0.
        -24    2    5    5    0    0 -0.55685433400E+02 -0.91420700791E+02  0.25808185887E+03  0.29083093916E+03  0.80732752158E+02 0.  0.
          4    1    4    4  502    0  0.30693243886E+02 -0.21221411418E+02  0.15846811091E+03  0.16280222879E+03  0.00000000000E+00 0. -1.
         -3    1    4    4    0  502  0.55048986896E+01  0.19678858521E+02  0.22303074248E+01  0.20555672051E+02  0.00000000000E+00 0.  1.
          5    1    3    3  503    0 -0.20213313558E+02  0.11570306332E+03  0.29373791414E+03  0.31638557033E+03  0.47000000000E+01 0. -1.
         11    1    6    6    0    0 -0.60117792975E+02 -0.10237362388E+03  0.24924791204E+03  0.27607794109E+03  0.00000000000E+00 0. -1.
        -12    1    6    6    0    0  0.44323595747E+01  0.10952923090E+02  0.88339468267E+01  0.14752998074E+02  0.00000000000E+00 0.  1.
         -5    1    5    5    0  501  0.39700604383E+02 -0.22739809635E+02  0.32185252516E+03  0.32512209227E+03  0.47000000000E+01 0.  1.
<mgrwt>
<rscale>  2 0.20773211E+03</rscale>
<asrwt>0</asrwt>
<pdfrwt beam="1">  1        2 0.16538976E+00 0.20773211E+03</pdfrwt>
<pdfrwt beam="2">  1       -2 0.62558305E-02 0.20773211E+03</pdfrwt>
<totfact> 0.32613633E+03</totfact>
</mgrwt>
</event>
<event>
12    1  0.5759937E-002  0.1751579E+03  0.7546771E-02  0.1172573E+00
          1   -1    0    0  503    0  0.00000000000E+00  0.00000000000E+00  0.12435613304E+04  0.12435613304E+04  0.00000000000E+00 0.  1.
         -1   -1    0    0    0  501 -0.00000000000E+00 -0.00000000000E+00 -0.34918051693E+02  0.34918051693E+02  0.00000000000E+00 0. -1.
          6    2    1    2  503    0  0.20805507110E+02  0.18845624236E+02  0.25676309222E+03  0.31052243157E+03  0.17236260704E+03 0.  0.
         24    2    3    3    0    0  0.72613356833E+02  0.40903865942E+02  0.19695303763E+03  0.22824271384E+03  0.79739648545E+02 0.  0.
         -6    2    1    2    0  501 -0.20805507110E+02 -0.18845624236E+02  0.95188018647E+03  0.96795695050E+03  0.17342647420E+03 0.  0.
        -24    2    5    5    0    0 -0.68125577388E+02  0.28136191126E+02  0.55248355256E+03  0.56300480369E+03  0.79395173588E+02 0.  0.
          2    1    4    4  502    0  0.88006142486E+02  0.27602181451E+02  0.17781096683E+03  0.20030901492E+03  0.00000000000E+00 0. -1.
         -1    1    4    4    0  502 -0.15392785653E+02  0.13301684491E+02  0.19142070798E+02  0.27933698912E+02  0.00000000000E+00 0.  1.
          5    1    3    3  503    0 -0.51807849723E+02 -0.22058241705E+02  0.59810054593E+02  0.82279717734E+02  0.47000000000E+01 0. -1.
         13    1    6    6    0    0 -0.15174365796E+02 -0.24455687930E+02  0.88632580304E+02  0.93188391663E+02  0.00000000000E+00 0. -1.
        -14    1    6    6    0    0 -0.52951211592E+02  0.52591879056E+02  0.46385097225E+03  0.46981641203E+03  0.00000000000E+00 0.  1.
         -5    1    5    5    0  501  0.47320070278E+02 -0.46981815362E+02  0.39939663392E+03  0.40495214681E+03  0.47000000000E+01 0.  1.
<mgrwt>
<rscale>  2 0.17515787E+03</rscale>
<asrwt>0</asrwt>
<pdfrwt beam="1">  1        1 0.19131709E+00 0.17515787E+03</pdfrwt>
<pdfrwt beam="2">  1       -1 0.53720089E-02 0.17515787E+03</pdfrwt>
<totfact> 0.16860017E+03</totfact>
</mgrwt>
</event>
<event>
12    1  0.5759937E-002  0.2107378E+03  0.7546771E-02  0.1140983E+00
          2   -1    0    0  503    0  0.00000000000E+00  0.00000000000E+00  0.82310611689E+03  0.82310611689E+03  0.00000000000E+00 0. -1.
         -2   -1    0    0    0  501 -0.00000000000E+00 -0.00000000000E+00 -0.89585067991E+02  0.89585067991E+02  0.00000000000E+00 0.  1.
          6    2    1    2  503    0 -0.11635817643E+03  0.45213156891E+02  0.81626760634E+02  0.22834080797E+03  0.17289633240E+03 0.  0.
         24    2    3    3    0    0 -0.70576631917E+02  0.40821276629E+02 -0.21358273256E+02  0.11545482286E+03  0.78906290538E+02 0.  0.
         -6    2    1    2    0  501  0.11635817643E+03 -0.45213156891E+02  0.65189428827E+03  0.68435037691E+03  0.16669079315E+03 0.  0.
        -24    2    5    5    0    0  0.84650307619E+02 -0.75501645868E+02  0.60141444254E+03  0.61731988882E+03  0.80736239246E+02 0.  0.
          4    1    4    4  502    0 -0.61962124452E+02 -0.41267003097E+01  0.55794510245E+01  0.62349537254E+02  0.00000000000E+00 0. -1.
         -3    1    4    4    0  502 -0.86145074650E+01  0.44947976939E+02 -0.26937724281E+02  0.53105285605E+02  0.00000000000E+00 0.  1.
          5    1    3    3  503    0 -0.45781544511E+02  0.43918802616E+01  0.10298503389E+03  0.11288598512E+03  0.47000000000E+01 0. -1.
         13    1    6    6    0    0  0.58311074589E+02 -0.37246463881E+02  0.17191772321E+03  0.18531914107E+03  0.00000000000E+00 0. -1.
        -14    1    6    6    0    0  0.26339233030E+02 -0.38255181987E+02  0.42949671932E+03  0.43200074775E+03  0.00000000000E+00 0.  1.
         -5    1    5    5    0  501  0.31707868809E+02  0.30288488978E+02  0.50479845731E+02  0.67030488093E+02  0.47000000000E+01 0.  1.
<mgrwt>
<rscale>  2 0.21073784E+03</rscale>
<asrwt>0</asrwt>
<pdfrwt beam="1">  1        2 0.12663171E+00 0.21073784E+03</pdfrwt>
<pdfrwt beam="2">  1       -2 0.13782319E-01 0.21073784E+03</pdfrwt>
<totfact> 0.13468538E+03</totfact>
</mgrwt>
</event>
<event>
12    1  0.5759937E-002  0.1922236E+03  0.7546771E-02  0.1156471E+00
          1   -1    0    0  503    0  0.00000000000E+00  0.00000000000E+00  0.23436024544E+04  0.23436024544E+04  0.00000000000E+00 0.  1.
         -1   -1    0    0    0  501 -0.00000000000E+00 -0.00000000000E+00 -0.17189168853E+02  0.17189168853E+02  0.00000000000E+00 0. -1.
          6    2    1    2  503    0  0.65386324840E+02 -0.50751516003E+02  0.82449075565E+03  0.84663867104E+03  0.17366906836E+03 0.  0.
         24    2    3    3    0    0  0.44643498010E+02  0.13387804689E+02  0.23279026827E+03  0.25109213711E+03  0.81753758846E+02 0.  0.
         -6    2    1    2    0  501 -0.65386324840E+02  0.50751516003E+02  0.15019225299E+04  0.15141529522E+04  0.17331124896E+03 0.  0.
        -24    2    5    5    0    0  0.49200103343E+01  0.81809227199E+02  0.94093586600E+03  0.94790593079E+03  0.80301890086E+02 0.  0.
          4    1    4    4  502    0  0.58296628060E+02 -0.92612715080E+01  0.10371915159E+03  0.11933955924E+03  0.00000000000E+00 0. -1.
         -3    1    4    4    0  502 -0.13653130050E+02  0.22649076197E+02  0.12907111668E+03  0.13175257787E+03  0.00000000000E+00 0.  1.
          5    1    3    3  503    0  0.20742826830E+02 -0.64139320692E+02  0.59170048738E+03  0.59554653394E+03  0.47000000000E+01 0. -1.
         13    1    6    6    0    0 -0.33951006218E+02  0.23218536101E+02  0.24516578879E+03  0.24859210614E+03  0.00000000000E+00 0. -1.
        -14    1    6    6    0    0  0.38871016552E+02  0.58590691098E+02  0.69577007721E+03  0.69931382465E+03  0.00000000000E+00 0.  1.
         -5    1    5    5    0  501 -0.70306335175E+02 -0.31057711196E+02  0.56098666391E+03  0.56624702143E+03  0.47000000000E+01 0.  1.
<mgrwt>
<rscale>  2 0.19222358E+03</rscale>
<asrwt>0</asrwt>
<pdfrwt beam="1">  1        1 0.36055397E+00 0.19222358E+03</pdfrwt>
<pdfrwt beam="2">  1       -1 0.26444894E-02 0.19222358E+03</pdfrwt>
<totfact> 0.92326606E+02</totfact>
</mgrwt>
</event>
<event>
12    1  0.5759937E-002  0.1761119E+03  0.7546771E-02  0.1171620E+00
          2   -1    0    0  503    0  0.00000000000E+00  0.00000000000E+00  0.22232266402E+04  0.22232266402E+04  0.00000000000E+00 0. -1.
         -2   -1    0    0    0  501 -0.00000000000E+00 -0.00000000000E+00 -0.14003207914E+02  0.14003207914E+02  0.00000000000E+00 0.  1.
          6    2    1    2  503    0  0.14673248272E+00  0.30185105928E+02  0.10411465116E+04  0.10560677257E+04  0.17430381709E+03 0.  0.
         24    2    3    3    0    0  0.11011997741E+02 -0.47025346031E+02  0.75383109471E+03  0.75832329398E+03  0.66785114941E+02 0.  0.
         -6    2    1    2    0  501 -0.14673248272E+00 -0.30185105928E+02  0.11680769207E+04  0.11811621224E+04  0.17271104326E+03 0.  0.
        -24    2    5    5    0    0 -0.20605617331E+02 -0.38753499470E+02  0.31599838958E+03  0.32878198618E+03  0.79474442667E+02 0.  0.
          2    1    4    4  502    0  0.12459648197E+02 -0.14601389282E+02  0.63052823121E+03  0.63082033397E+03  0.00000000000E+00 0. -1.
         -1    1    4    4    0  502 -0.14476504565E+01 -0.32423956748E+02  0.12330286350E+03  0.12750296001E+03  0.00000000000E+00 0.  1.
          5    1    3    3  503    0 -0.10865265258E+02  0.77210451959E+02  0.28731541685E+03  0.29774443175E+03  0.47000000000E+01 0. -1.
         13    1    6    6    0    0 -0.46318574597E+02 -0.27633852598E+01  0.15213200412E+03  0.15905091427E+03  0.00000000000E+00 0. -1.
        -14    1    6    6    0    0  0.25712957267E+02 -0.35990114210E+02  0.16386638545E+03  0.16973107192E+03  0.00000000000E+00 0.  1.
         -5    1    5    5    0  501  0.20458884848E+02  0.85683935417E+01  0.85207853115E+03  0.85238013620E+03  0.47000000000E+01 0.  1.
<mgrwt>
<rscale>  2 0.17611188E+03</rscale>
<asrwt>0</asrwt>
<pdfrwt beam="1">  1        2 0.34203459E+00 0.17611188E+03</pdfrwt>
<pdfrwt beam="2">  1       -2 0.21543414E-02 0.17611188E+03</pdfrwt>
<totfact> 0.39244010E+03</totfact>
</mgrwt>
</event>
<event>
12    1  0.5759937E-002  0.1775805E+03  0.7546771E-02  0.1170165E+00
         -1   -1    0    0    0  501 -0.00000000000E+00  0.00000000000E+00  0.51716915541E+02  0.51716915541E+02  0.00000000000E+00 0. -1.
          1   -1    0    0  503    0  0.00000000000E+00 -0.00000000000E+00 -0.79003272833E+03  0.79003272833E+03  0.00000000000E+00 0.  1.
          6    2    1    2  503    0 -0.39988920261E+02 -0.73128647938E+01 -0.56980583529E+03  0.59676258123E+03  0.17261024502E+03 0.  0.
         24    2    3    3    0    0  0.35805017156E+02 -0.19940062946E+02 -0.20747736778E+03  0.22634636202E+03  0.80661094065E+02 0.  0.
         -6    2    1    2    0  501  0.39988920261E+02  0.73128647938E+01 -0.16850997750E+03  0.24498706265E+03  0.17311977533E+03 0.  0.
        -24    2    5    5    0    0  0.83728625146E+02 -0.10173666599E+02 -0.72588746450E+02  0.13802018399E+03  0.81648385875E+02 0.  0.
          2    1    4    4  502    0  0.49214830190E+01  0.26412000441E+02 -0.29703910257E+02  0.40051679702E+02  0.00000000000E+00 0. -1.
         -1    1    4    4    0  502  0.30883534137E+02 -0.46352063386E+02 -0.17777345753E+03  0.18629468232E+03  0.00000000000E+00 0.  1.
          5    1    3    3  503    0 -0.75793937418E+02  0.12627198152E+02 -0.36232846751E+03  0.37041621920E+03  0.47000000000E+01 0. -1.
         11    1    6    6    0    0  0.58915043723E+02 -0.45194850487E+02 -0.41931320857E+02  0.85274806105E+02  0.00000000000E+00 0. -1.
        -12    1    6    6    0    0  0.24813581423E+02  0.35021183889E+02 -0.30657425593E+02  0.52745377882E+02  0.00000000000E+00 0.  1.
         -5    1    5    5    0  501 -0.43739704884E+02  0.17486531393E+02 -0.95921231053E+02  0.10696687866E+03  0.47000000000E+01 0.  1.
<mgrwt>
<rscale>  2 0.17758053E+03</rscale>
<asrwt>0</asrwt>
<pdfrwt beam="2">  1        1 0.12154349E+00 0.17758053E+03</pdfrwt>
<pdfrwt beam="1">  1       -1 0.79564488E-02 0.17758053E+03</pdfrwt>
<totfact> 0.20256853E+03</totfact>
</mgrwt>
</event>
<event>
12    1  0.5759937E-002  0.2415489E+03  0.7546771E-02  0.1118765E+00
         -1   -1    0    0    0  501 -0.00000000000E+00  0.00000000000E+00  0.29028551741E+03  0.29028551741E+03  0.00000000000E+00 0.  1.
          1   -1    0    0  503    0  0.00000000000E+00 -0.00000000000E+00 -0.20579122755E+03  0.20579122755E+03  0.00000000000E+00 0. -1.
          6    2    1    2  503    0  0.16702315875E+03  0.25525939001E+02  0.43766317871E+01  0.24157160597E+03  0.17259599296E+03 0.  0.
         24    2    3    3    0    0  0.18774062070E+03  0.42550619022E+02 -0.12552393703E+02  0.20951330184E+03  0.81738395029E+02 0.  0.
         -6    2    1    2    0  501 -0.16702315875E+03 -0.25525939001E+02  0.80117658075E+02  0.25450513899E+03  0.17264332457E+03 0.  0.
        -24    2    5    5    0    0 -0.64762176882E+02  0.48470033759E+02  0.26689822603E+02  0.11735800632E+03  0.80728379708E+02 0.  0.
          2    1    4    4  502    0  0.99689163411E+02 -0.19236713660E+02 -0.81777705632E+01  0.10185703896E+03  0.00000000000E+00 0. -1.
         -1    1    4    4    0  502  0.88051457288E+02  0.61787332683E+02 -0.43746231402E+01  0.10765626288E+03  0.00000000000E+00 0.  1.
          5    1    3    3  503    0 -0.20717461952E+02 -0.17024680021E+02  0.16929025490E+02  0.32058304129E+02  0.47000000000E+01 0. -1.
         11    1    6    6    0    0 -0.30046615217E+02 -0.10803569625E+02 -0.16776891892E+02  0.36069104566E+02  0.00000000000E+00 0. -1.
        -12    1    6    6    0    0 -0.34715561665E+02  0.59273603384E+02  0.43466714494E+02  0.81288901756E+02  0.00000000000E+00 0.  1.
         -5    1    5    5    0  501 -0.10226098186E+03 -0.73995972760E+02  0.53427835472E+02  0.13714713267E+03  0.47000000000E+01 0.  1.
<mgrwt>
<rscale>  2 0.24154887E+03</rscale>
<asrwt>0</asrwt>
<pdfrwt beam="2">  1        1 0.31660189E-01 0.24154887E+03</pdfrwt>
<pdfrwt beam="1">  1       -1 0.44659311E-01 0.24154887E+03</pdfrwt>
<totfact> 0.71700673E+02</totfact>
</mgrwt>
</event>
<event>
12    1  0.5759937E-002  0.1864548E+03  0.7546771E-02  0.1161698E+00
         -2   -1    0    0    0  501 -0.00000000000E+00  0.00000000000E+00  0.14179119100E+03  0.14179119100E+03  0.00000000000E+00 0.  1.
          2   -1    0    0  503    0  0.00000000000E+00 -0.00000000000E+00 -0.67881779212E+03  0.67881779212E+03  0.00000000000E+00 0. -1.
          6    2    1    2  503    0  0.27493345586E+02  0.64196612746E+02  0.59404429741E+02  0.19572338538E+03  0.17292098824E+03 0.  0.
         24    2    3    3    0    0  0.13776133697E+02  0.51687837475E+02 -0.30023334817E+02  0.10426822460E+03  0.84315168414E+02 0.  0.
         -6    2    1    2    0  501 -0.27493345586E+02 -0.64196612746E+02 -0.59643103085E+03  0.62488559774E+03  0.17284370556E+03 0.  0.
        -24    2    5    5    0    0  0.12227321719E+02 -0.76738630942E+02 -0.55405300604E+03  0.56527837822E+03  0.80787291714E+02 0.  0.
          4    1    4    4  502    0  0.30268183437E+02  0.53722164020E+02 -0.49206106269E+02  0.78889002590E+02  0.00000000000E+00 0. -1.
         -3    1    4    4    0  502 -0.16492049740E+02 -0.20343265445E+01  0.19182771452E+02  0.25379222007E+02  0.00000000000E+00 0.  1.
          5    1    3    3  503    0  0.13717211889E+02  0.12508775271E+02  0.89427764558E+02  0.91455160787E+02  0.47000000000E+01 0. -1.
         13    1    6    6    0    0  0.46606111360E+02 -0.39119201927E+02 -0.28138005446E+03  0.28788396382E+03  0.00000000000E+00 0. -1.
        -14    1    6    6    0    0 -0.34378789641E+02 -0.37619429015E+02 -0.27267295158E+03  0.27739441440E+03  0.00000000000E+00 0.  1.
         -5    1    5    5    0  501 -0.39720667304E+02  0.12542018195E+02 -0.42378024812E+02  0.59607219516E+02  0.47000000000E+01 0.  1.
<mgrwt>
<rscale>  2 0.18645480E+03</rscale>
<asrwt>0</asrwt>
<pdfrwt beam="2">  1        2 0.10443351E+00 0.18645480E+03</pdfrwt>
<pdfrwt beam="1">  1       -2 0.21814029E-01 0.18645480E+03</pdfrwt>
<totfact> 0.79076974E+02</totfact>
</mgrwt>
</event>
<event>
12    1  0.5759937E-002  0.2415501E+03  0.7546771E-02  0.1118764E+00
          1   -1    0    0  503    0  0.00000000000E+00  0.00000000000E+00  0.20787780904E+04  0.20787780904E+04  0.00000000000E+00 0. -1.
         -1   -1    0    0    0  501 -0.00000000000E+00 -0.00000000000E+00 -0.17081619331E+03  0.17081619331E+03  0.00000000000E+00 0.  1.
          6    2    1    2  503    0 -0.30901042345E+02  0.16577080543E+03  0.19821321014E+04  0.19967789826E+04  0.17275359230E+03 0.  0.
         24    2    3    3    0    0 -0.42850972121E+02  0.40334679196E+02  0.53950789187E+03  0.54865477437E+03  0.80561801670E+02 0.  0.
         -6    2    1    2    0  501  0.30901042345E+02 -0.16577080543E+03 -0.74170204309E+02  0.25281530109E+03  0.17314595839E+03 0.  0.
        -24    2    5    5    0    0  0.58835337196E+02 -0.84777804898E+02  0.12274748109E+02  0.13101624214E+03  0.79785419446E+02 0.  0.
          4    1    4    4  502    0 -0.53355085470E+02  0.43042655275E+01  0.41986993621E+03  0.42326830165E+03  0.00000000000E+00 0. -1.
         -3    1    4    4    0  502  0.10504113349E+02  0.36030413669E+02  0.11963795566E+03  0.12538647272E+03  0.00000000000E+00 0.  1.
          5    1    3    3  503    0  0.11949929776E+02  0.12543612623E+03  0.14426242095E+04  0.14481242082E+04  0.47000000000E+01 0. -1.
         13    1    6    6    0    0  0.76367297927E+02 -0.79428880193E+02  0.18355366331E+02  0.11170421064E+03  0.00000000000E+00 0. -1.
        -14    1    6    6    0    0 -0.17531960731E+02 -0.53489247050E+01 -0.60806182218E+01  0.19312031497E+02  0.00000000000E+00 0.  1.
         -5    1    5    5    0  501 -0.27934294851E+02 -0.80993000531E+02 -0.86444952418E+02  0.12179905896E+03  0.47000000000E+01 0.  1.
<mgrwt>
<rscale>  2 0.24155012E+03</rscale>
<asrwt>0</asrwt>
<pdfrwt beam="1">  1        1 0.31981200E+00 0.24155012E+03</pdfrwt>
<pdfrwt beam="2">  1       -1 0.26279416E-01 0.24155012E+03</pdfrwt>
<totfact> 0.39216856E+01</totfact>
</mgrwt>
</event>
<event>
12    1  0.5759937E-002  0.2198152E+03  0.7546771E-02  0.1134021E+00
         -2   -1    0    0    0  501 -0.00000000000E+00  0.00000000000E+00  0.30390652589E+03  0.30390652589E+03  0.00000000000E+00 0. -1.
          2   -1    0    0  503    0  0.00000000000E+00 -0.00000000000E+00 -0.16319011152E+03  0.16319011152E+03  0.00000000000E+00 0.  1.
          6    2    1    2  503    0  0.67549666164E+02  0.12324492373E+03  0.10691562644E+03  0.24214121210E+03  0.16567784039E+03 0.  0.
         24    2    3    3    0    0  0.44824298536E+02  0.55538549288E+02  0.12756328388E+03  0.16764952645E+03  0.82098868008E+02 0.  0.
         -6    2    1    2    0  501 -0.67549666164E+02 -0.12324492373E+03  0.33800787930E+02  0.22495542531E+03  0.17236641636E+03 0.  0.
        -24    2    5    5    0    0 -0.85493470383E+02 -0.42006276693E+02 -0.19903088922E+02  0.12581968871E+03  0.79754625941E+02 0.  0.
          4    1    4    4  502    0  0.82053608064E+01  0.59981776441E+02  0.11259874089E+03  0.12784216011E+03  0.00000000000E+00 0. -1.
         -3    1    4    4    0  502  0.36618937730E+02 -0.44432271533E+01  0.14964542986E+02  0.39807366338E+02  0.00000000000E+00 0.  1.
          5    1    3    3  503    0  0.22725367628E+02  0.67706374443E+02 -0.20647657436E+02  0.74491685655E+02  0.47000000000E+01 0. -1.
         13    1    6    6    0    0 -0.31203387160E+02  0.10486588429E+02  0.21867445458E+02  0.39519679630E+02  0.00000000000E+00 0. -1.
        -14    1    6    6    0    0 -0.54290083222E+02 -0.52492865122E+02 -0.41770534381E+02  0.86300009081E+02  0.00000000000E+00 0.  1.
         -5    1    5    5    0  501  0.17943804218E+02 -0.81238647038E+02  0.53703876853E+02  0.99135736601E+02  0.47000000000E+01 0.  1.
<mgrwt>
<rscale>  2 0.21981517E+03</rscale>
<asrwt>0</asrwt>
<pdfrwt beam="2">  1        2 0.25106171E-01 0.21981517E+03</pdfrwt>
<pdfrwt beam="1">  1       -2 0.46754850E-01 0.21981517E+03</pdfrwt>
<totfact> 0.93736428E+02</totfact>
</mgrwt>
</event>
<event>
12    1  0.5759937E-002  0.2351720E+03  0.7546771E-02  0.1123052E+00
          2   -1    0    0  503    0  0.00000000000E+00  0.00000000000E+00  0.12125182126E+04  0.12125182126E+04  0.00000000000E+00 0.  1.
         -2   -1    0    0    0  501 -0.00000000000E+00 -0.00000000000E+00 -0.64430836625E+02  0.64430836625E+02  0.00000000000E+00 0. -1.
          6    2    1    2  503    0  0.14826671163E+03  0.58618577080E+02  0.22799105482E+03  0.32713001705E+03  0.17209001023E+03 0.  0.
         24    2    3    3    0    0  0.40386607048E+02  0.76914368765E+02  0.16107933506E+03  0.19878625523E+03  0.77604928531E+02 0.  0.
         -6    2    1    2    0  501 -0.14826671163E+03 -0.58618577080E+02  0.92009632119E+03  0.94981903221E+03  0.17366576611E+03 0.  0.
        -24    2    5    5    0    0 -0.12151070538E+03  0.24696746904E+02  0.61889058777E+03  0.63612441809E+03  0.79081823642E+02 0.  0.
          4    1    4    4  502    0 -0.16511929739E+02  0.33823385068E+02  0.25181546211E+02  0.45285488523E+02  0.00000000000E+00 0. -1.
         -3    1    4    4    0  502  0.56898536787E+02  0.43090983697E+02  0.13589778885E+03  0.15350076671E+03  0.00000000000E+00 0.  1.
          5    1    3    3  503    0  0.10788010458E+03 -0.18295791685E+02  0.66911719756E+02  0.12834376182E+03  0.47000000000E+01 0. -1.
         11    1    6    6    0    0 -0.99308277027E+02 -0.13932961977E+02  0.37384925823E+03  0.38706527769E+03  0.00000000000E+00 0. -1.
        -12    1    6    6    0    0 -0.22202428349E+02  0.38629708881E+02  0.24504132954E+03  0.24905914040E+03  0.00000000000E+00 0.  1.
         -5    1    5    5    0  501 -0.26756006256E+02 -0.83315323984E+02  0.30120573342E+03  0.31369461412E+03  0.47000000000E+01 0.  1.
<mgrwt>
<rscale>  2 0.23517200E+03</rscale>
<asrwt>0</asrwt>
<pdfrwt beam="1">  1        2 0.18654125E+00 0.23517200E+03</pdfrwt>
<pdfrwt beam="2">  1       -2 0.99124373E-02 0.23517200E+03</pdfrwt>
<totfact> 0.13255489E+03</totfact>
</mgrwt>
</event>
<event>
12    1  0.5759937E-002  0.2142569E+03  0.7546771E-02  0.1138239E+00
          1   -1    0    0  503    0  0.00000000000E+00  0.00000000000E+00  0.16697996121E+03  0.16697996121E+03  0.00000000000E+00 0.  1.
         -1   -1    0    0    0  501 -0.00000000000E+00 -0.00000000000E+00 -0.27757075211E+03  0.27757075211E+03  0.00000000000E+00 0. -1.
          6    2    1    2  503    0  0.11309977787E+02  0.13168342662E+03 -0.75516070239E+02  0.22327942577E+03  0.16334804762E+03 0.  0.
         24    2    3    3    0    0  0.58412745844E+02  0.48051899865E+02 -0.61400239324E+02  0.12614935983E+03  0.80141360354E+02 0.  0.
         -6    2    1    2    0  501 -0.11309977787E+02 -0.13168342662E+03 -0.35074720659E+02  0.22127128756E+03  0.17396064562E+03 0.  0.
        -24    2    5    5    0    0  0.53136983739E+02 -0.61153655679E+02  0.10130149097E+02  0.11547228147E+03  0.81657328045E+02 0.  0.
          4    1    4    4  502    0 -0.54904580725E+01  0.12812589391E+01 -0.44907193537E+02  0.45259725868E+02  0.00000000000E+00 0. -1.
         -3    1    4    4    0  502  0.63903203916E+02  0.46770640926E+02 -0.16493045787E+02  0.80889633963E+02  0.00000000000E+00 0.  1.
          5    1    3    3  503    0 -0.47102768057E+02  0.83631526755E+02 -0.14115830916E+02  0.97130065934E+02  0.47000000000E+01 0. -1.
         13    1    6    6    0    0  0.17098554796E+02 -0.74477018088E+02  0.36033977889E+01  0.76499485456E+02  0.00000000000E+00 0. -1.
        -14    1    6    6    0    0  0.36038428944E+02  0.13323362409E+02  0.65267513080E+01  0.38972796015E+02  0.00000000000E+00 0.  1.
         -5    1    5    5    0  501 -0.64446961526E+02 -0.70529770941E+02 -0.45204869756E+02  0.10579900609E+03  0.47000000000E+01 0.  1.
<mgrwt>
<rscale>  2 0.21425687E+03</rscale>
<asrwt>0</asrwt>
<pdfrwt beam="1">  1        1 0.25689225E-01 0.21425687E+03</pdfrwt>
<pdfrwt beam="2">  1       -1 0.42703192E-01 0.21425687E+03</pdfrwt>
<totfact> 0.10114927E+03</totfact>
</mgrwt>
</event>
<event>
12    1  0.5759937E-002  0.2044532E+03  0.7546771E-02  0.1146035E+00
         -2   -1    0    0    0  501 -0.00000000000E+00  0.00000000000E+00  0.47765301040E+02  0.47765301040E+02  0.00000000000E+00 0. -1.
          2   -1    0    0  503    0  0.00000000000E+00 -0.00000000000E+00 -0.14445850303E+04  0.14445850303E+04  0.00000000000E+00 0.  1.
          6    2    1    2  503    0 -0.94404942421E+02 -0.50529573420E+02 -0.22823231506E+03  0.30587031418E+03  0.17320833846E+03 0.  0.
         24    2    3    3    0    0  0.21859081357E+00 -0.62904740172E+01 -0.16330892598E+03  0.18279372254E+03  0.81878702067E+02 0.  0.
         -6    2    1    2    0  501  0.94404942421E+02  0.50529573420E+02 -0.11685874142E+04  0.11864800172E+04  0.17513639131E+03 0.  0.
        -24    2    5    5    0    0 -0.25384929716E+02  0.31218503238E+02 -0.43531980496E+03  0.44322635410E+03  0.72988209853E+02 0.  0.
          2    1    4    4  502    0  0.40117750647E+02  0.54258677596E+01 -0.83856688580E+02  0.93117228146E+02  0.00000000000E+00 0. -1.
         -1    1    4    4    0  502 -0.39899159834E+02 -0.11716341777E+02 -0.79452237396E+02  0.89676494397E+02  0.00000000000E+00 0.  1.
          5    1    3    3  503    0 -0.94623533235E+02 -0.44239099403E+02 -0.64923389084E+02  0.12307659163E+03  0.47000000000E+01 0. -1.
         11    1    6    6    0    0  0.58652546160E+00  0.36716970659E+02 -0.94652241640E+02  0.10152599073E+03  0.00000000000E+00 0. -1.
        -12    1    6    6    0    0 -0.25971455178E+02 -0.54984674218E+01 -0.34066756332E+03  0.34170036337E+03  0.00000000000E+00 0.  1.
         -5    1    5    5    0  501  0.11978987214E+03  0.19311070183E+02 -0.73326760928E+03  0.74325366311E+03  0.47000000000E+01 0.  1.
<mgrwt>
<rscale>  2 0.20445323E+03</rscale>
<asrwt>0</asrwt>
<pdfrwt beam="2">  1        2 0.22224380E+00 0.20445323E+03</pdfrwt>
<pdfrwt beam="1">  1       -2 0.73485096E-02 0.20445323E+03</pdfrwt>
<totfact> 0.15839523E+03</totfact>
</mgrwt>
</event>
<event>
12    1  0.5759937E-002  0.2180559E+03  0.7546771E-02  0.1135341E+00
         -2   -1    0    0    0  501 -0.00000000000E+00  0.00000000000E+00  0.20445655137E+02  0.20445655137E+02  0.00000000000E+00 0. -1.
          2   -1    0    0  503    0  0.00000000000E+00 -0.00000000000E+00 -0.29212706510E+04  0.29212706510E+04  0.00000000000E+00 0.  1.
          6    2    1    2  503    0  0.64755966630E+02  0.11504417633E+03 -0.21117046005E+04  0.21228772801E+04  0.17286737319E+03 0.  0.
         24    2    3    3    0    0 -0.64382793491E+01  0.65708999771E+02 -0.16364759907E+04  0.16397966430E+04  0.80747992250E+02 0.  0.
         -6    2    1    2    0  501 -0.64755966630E+02 -0.11504417633E+03 -0.78912039537E+03  0.81883902608E+03  0.17423505538E+03 0.  0.
        -24    2    5    5    0    0  0.27445992215E+01 -0.12552232043E+03 -0.49773788176E+03  0.51951983670E+03  0.79965467761E+02 0.  0.
          2    1    4    4  502    0  0.26120081119E+02  0.55468180421E+02 -0.69402786868E+03  0.69673069416E+03  0.00000000000E+00 0. -1.
         -1    1    4    4    0  502 -0.32558360468E+02  0.10240819349E+02 -0.94244812203E+03  0.94306594888E+03  0.00000000000E+00 0.  1.
          5    1    3    3  503    0  0.71194245980E+02  0.49335176555E+02 -0.47522860979E+03  0.48308063702E+03  0.47000000000E+01 0. -1.
         11    1    6    6    0    0 -0.27724976792E+02 -0.73203160988E+02 -0.36959974329E+03  0.37779802456E+03  0.00000000000E+00 0. -1.
        -12    1    6    6    0    0  0.30469576014E+02 -0.52319159443E+02 -0.12813813847E+03  0.14172181214E+03  0.00000000000E+00 0.  1.
         -5    1    5    5    0  501 -0.67500565852E+02  0.10478144105E+02 -0.29138251361E+03  0.29931918938E+03  0.47000000000E+01 0.  1.
<mgrwt>
<rscale>  2 0.21805595E+03</rscale>
<asrwt>0</asrwt>
<pdfrwt beam="2">  1        2 0.44942629E+00 0.21805595E+03</pdfrwt>
<pdfrwt beam="1">  1       -2 0.31454851E-02 0.21805595E+03</pdfrwt>
<totfact> 0.92443423E+02</totfact>
</mgrwt>
</event>
<event>
12    1  0.5759937E-002  0.2833494E+03  0.7546771E-02  0.1093874E+00
         -2   -1    0    0    0  501 -0.00000000000E+00  0.00000000000E+00  0.11179852819E+03  0.11179852819E+03  0.00000000000E+00 0. -1.
          2   -1    0    0  503    0  0.00000000000E+00 -0.00000000000E+00 -0.10391172199E+04  0.10391172199E+04  0.00000000000E+00 0.  1.
          6    2    1    2  503    0 -0.20543901597E+03 -0.89563230303E+02 -0.78345251796E+03  0.83310642062E+03  0.17332541271E+03 0.  0.
         24    2    3    3    0    0 -0.16521767041E+03 -0.84548746863E+02 -0.75958507376E+03  0.78583437207E+03  0.78235585456E+02 0.  0.
         -6    2    1    2    0  501  0.20543901597E+03  0.89563230303E+02 -0.14386617372E+03  0.31780932743E+03  0.17343163251E+03 0.  0.
        -24    2    5    5    0    0  0.20310150702E+03  0.11587710627E+03 -0.15139778308E+03  0.28994000457E+03  0.80412633441E+02 0.  0.
          4    1    4    4  502    0 -0.89143921160E+02 -0.46667958095E+02 -0.55908513772E+03  0.56806753842E+03  0.00000000000E+00 0. -1.
         -3    1    4    4    0  502 -0.76073749253E+02 -0.37880788768E+02 -0.20049993604E+03  0.21776683365E+03  0.00000000000E+00 0.  1.
          5    1    3    3  503    0 -0.40221345554E+02 -0.50144834396E+01 -0.23867444196E+02  0.47272048557E+02  0.47000000000E+01 0. -1.
         13    1    6    6    0    0  0.19393578844E+02  0.19748079304E+02  0.75454336970E+01  0.28688518718E+02  0.00000000000E+00 0. -1.
        -14    1    6    6    0    0  0.18370792818E+03  0.96129026971E+02 -0.15894321678E+03  0.26125148586E+03  0.00000000000E+00 0.  1.
         -5    1    5    5    0  501  0.23375089428E+01 -0.26313875972E+02  0.75316093574E+01  0.27869322852E+02  0.47000000000E+01 0.  1.
<mgrwt>
<rscale>  2 0.28334939E+03</rscale>
<asrwt>0</asrwt>
<pdfrwt beam="2">  1        2 0.15986418E+00 0.28334939E+03</pdfrwt>
<pdfrwt beam="1">  1       -2 0.17199774E-01 0.28334939E+03</pdfrwt>
<totfact> 0.67780396E+02</totfact>
</mgrwt>
</event>
<event>
12    1  0.5759937E-002  0.1810418E+03  0.7546771E-02  0.1166799E+00
         -2   -1    0    0    0  501 -0.00000000000E+00  0.00000000000E+00  0.38983745783E+02  0.38983745783E+02  0.00000000000E+00 0.  1.
          2   -1    0    0  503    0  0.00000000000E+00 -0.00000000000E+00 -0.11379254727E+04  0.11379254727E+04  0.00000000000E+00 0. -1.
          6    2    1    2  503    0  0.18433482761E+02 -0.51060593074E+02 -0.24846907128E+03  0.30735383672E+03  0.17257614004E+03 0.  0.
         24    2    3    3    0    0 -0.37804501865E+02  0.18060417000E+02 -0.12953129999E+03  0.15866386265E+03  0.81489291387E+02 0.  0.
         -6    2    1    2    0  501 -0.18433482761E+02  0.51060593074E+02 -0.85047265562E+03  0.86955538174E+03  0.17284630896E+03 0.  0.
        -24    2    5    5    0    0 -0.41555250541E+02 -0.31557904150E+02 -0.46006925029E+03  0.46980878561E+03  0.79585424641E+02 0.  0.
          2    1    4    4  502    0  0.98154670679E+01  0.38553186320E+02 -0.56946723490E+02  0.69466689034E+02  0.00000000000E+00 0. -1.
         -1    1    4    4    0  502 -0.47619968933E+02 -0.20492769319E+02 -0.72584576499E+02  0.89197173616E+02  0.00000000000E+00 0.  1.
          5    1    3    3  503    0  0.56237984626E+02 -0.69121010074E+02 -0.11893777129E+03  0.14868997407E+03  0.47000000000E+01 0. -1.
         11    1    6    6    0    0  0.17932938949E+02 -0.25792296239E+02 -0.22858132387E+03  0.23072983004E+03  0.00000000000E+00 0. -1.
        -12    1    6    6    0    0 -0.59488189490E+02 -0.57656079109E+01 -0.23148792641E+03  0.23907895557E+03  0.00000000000E+00 0.  1.
         -5    1    5    5    0  501  0.23121767781E+02  0.82618497224E+02 -0.39040340533E+03  0.39974659613E+03  0.47000000000E+01 0.  1.
<mgrwt>
<rscale>  2 0.18104179E+03</rscale>
<asrwt>0</asrwt>
<pdfrwt beam="2">  1        2 0.17506545E+00 0.18104179E+03</pdfrwt>
<pdfrwt beam="1">  1       -2 0.59974997E-02 0.18104179E+03</pdfrwt>
<totfact> 0.31908096E+03</totfact>
</mgrwt>
</event>
<event>
12    1  0.5759937E-002  0.1740306E+03  0.7546771E-02  0.1173709E+00
         -2   -1    0    0    0  501 -0.00000000000E+00  0.00000000000E+00  0.89671192565E+02  0.89671192565E+02  0.00000000000E+00 0.  1.
          2   -1    0    0  503    0  0.00000000000E+00 -0.00000000000E+00 -0.71866766260E+03  0.71866766260E+03  0.00000000000E+00 0. -1.
          6    2    1    2  503    0 -0.42847738835E+02  0.28497887365E+02 -0.61329802523E+03  0.63908832394E+03  0.17219570186E+03 0.  0.
         24    2    3    3    0    0  0.23306954772E+02  0.58499591141E+02 -0.26341433709E+03  0.28171284780E+03  0.77521605569E+02 0.  0.
         -6    2    1    2    0  501  0.42847738835E+02 -0.28497887365E+02 -0.15698444807E+02  0.16925053123E+03  0.16047193787E+03 0.  0.
        -24    2    5    5    0    0 -0.11654951866E+02 -0.59040143178E+02  0.11613396627E+02  0.10090289508E+03  0.80155766141E+02 0.  0.
          2    1    4    4  502    0 -0.21193911727E+02  0.35048167514E+02 -0.17742591966E+03  0.18209204515E+03  0.00000000000E+00 0. -1.
         -1    1    4    4    0  502  0.44500866499E+02  0.23451423628E+02 -0.85988417429E+02  0.99620802653E+02  0.00000000000E+00 0.  1.
          5    1    3    3  503    0 -0.66154693607E+02 -0.30001703776E+02 -0.34988368814E+03  0.35737547614E+03  0.47000000000E+01 0. -1.
         13    1    6    6    0    0 -0.39787517638E+02 -0.20750796088E+02 -0.13894426718E+02  0.46975495654E+02  0.00000000000E+00 0. -1.
        -14    1    6    6    0    0  0.28132565772E+02 -0.38289347090E+02  0.25507823345E+02  0.53927399430E+02  0.00000000000E+00 0.  1.
         -5    1    5    5    0  501  0.54502690701E+02  0.30542255813E+02 -0.27311841434E+02  0.68347636142E+02  0.47000000000E+01 0.  1.
<mgrwt>
<rscale>  2 0.17403059E+03</rscale>
<asrwt>0</asrwt>
<pdfrwt beam="2">  1        2 0.11056426E+00 0.17403059E+03</pdfrwt>
<pdfrwt beam="1">  1       -2 0.13795568E-01 0.17403059E+03</pdfrwt>
<totfact> 0.15892382E+03</totfact>
</mgrwt>
</event>
<event>
12    1  0.5759937E-002  0.1942760E+03  0.7546771E-02  0.1154660E+00
         -2   -1    0    0    0  501 -0.00000000000E+00  0.00000000000E+00  0.33036577050E+02  0.33036577050E+02  0.00000000000E+00 0.  1.
          2   -1    0    0  503    0  0.00000000000E+00 -0.00000000000E+00 -0.13193901815E+04  0.13193901815E+04  0.00000000000E+00 0. -1.
          6    2    1    2  503    0 -0.82956731308E+02 -0.35353358385E+02 -0.39474969464E+03  0.43984248567E+03  0.17176266055E+03 0.  0.
         24    2    3    3    0    0 -0.10966319910E+03 -0.30739513449E+02 -0.20397803244E+03  0.24709799136E+03  0.80494997927E+02 0.  0.
         -6    2    1    2    0  501  0.82956731308E+02  0.35353358385E+02 -0.89160390981E+03  0.91258427289E+03  0.17239734310E+03 0.  0.
        -24    2    5    5    0    0  0.37566304562E+02 -0.42815867629E+02 -0.56586949780E+03  0.57450777872E+03  0.81280216017E+02 0.  0.
          2    1    4    4  502    0 -0.44921574529E+02 -0.21206353654E+01 -0.18601741018E+02  0.48666926361E+02  0.00000000000E+00 0. -1.
         -1    1    4    4    0  502 -0.64741624571E+02 -0.28618878084E+02 -0.18537629142E+03  0.19843106500E+03  0.00000000000E+00 0.  1.
          5    1    3    3  503    0  0.26706467791E+02 -0.46138449354E+01 -0.19077166220E+03  0.19274449431E+03  0.47000000000E+01 0. -1.
         13    1    6    6    0    0 -0.15249281192E+02  0.19334148374E+01 -0.27828304123E+03  0.27870724732E+03  0.00000000000E+00 0. -1.
        -14    1    6    6    0    0  0.52815585754E+02 -0.44749282467E+02 -0.28758645657E+03  0.29580053141E+03  0.00000000000E+00 0.  1.
         -5    1    5    5    0  501  0.45390426746E+02  0.78169226014E+02 -0.32573441202E+03  0.33807649416E+03  0.47000000000E+01 0.  1.
<mgrwt>
<rscale>  2 0.19427596E+03</rscale>
<asrwt>0</asrwt>
<pdfrwt beam="2">  1        2 0.20298311E+00 0.19427596E+03</pdfrwt>
<pdfrwt beam="1">  1       -2 0.50825501E-02 0.19427596E+03</pdfrwt>
<totfact> 0.32552757E+03</totfact>
</mgrwt>
</event>
<event>
12    1  0.5759937E-002  0.1802660E+03  0.7546771E-02  0.1167546E+00
          2   -1    0    0  503    0  0.00000000000E+00  0.00000000000E+00  0.49518593170E+03  0.49518593170E+03  0.00000000000E+00 0. -1.
         -2   -1    0    0    0  501 -0.00000000000E+00 -0.00000000000E+00 -0.66152554115E+02  0.66152554115E+02  0.00000000000E+00 0.  1.
          6    2    1    2  503    0 -0.35883919004E+02 -0.34379256770E+02  0.18899553947E+03  0.26093073756E+03  0.17290444449E+03 0.  0.
         24    2    3    3    0    0 -0.31464427686E+02 -0.71604518150E+02  0.61487525692E+02  0.12794338641E+03  0.80446112909E+02 0.  0.
         -6    2    1    2    0  501  0.35883919004E+02  0.34379256770E+02  0.24003783812E+03  0.30040774825E+03  0.17365788938E+03 0.  0.
        -24    2    5    5    0    0 -0.25703930877E+01 -0.17843868112E+01  0.23250566968E+03  0.24687862723E+03  0.82948051185E+02 0.  0.
          4    1    4    4  502    0 -0.13300437064E+02 -0.72037712139E+02  0.75349676457E+02  0.10508999638E+03  0.00000000000E+00 0. -1.
         -3    1    4    4    0  502 -0.18163990622E+02  0.43319398903E+00 -0.13862150765E+02  0.22853390037E+02  0.00000000000E+00 0.  1.
          5    1    3    3  503    0 -0.44194913183E+01  0.37225261380E+02  0.12750801377E+03  0.13298735115E+03  0.47000000000E+01 0. -1.
         13    1    6    6    0    0 -0.17837013874E+02 -0.93705870003E+01  0.79238880692E+01  0.21650749798E+02  0.00000000000E+00 0. -1.
        -14    1    6    6    0    0  0.15266620787E+02  0.75862001891E+01  0.22458178161E+03  0.22522787744E+03  0.00000000000E+00 0.  1.
         -5    1    5    5    0  501  0.38454312092E+02  0.36163643581E+02  0.75321684373E+01  0.53529121018E+02  0.47000000000E+01 0.  1.
<mgrwt>
<rscale>  2 0.18026600E+03</rscale>
<asrwt>0</asrwt>
<pdfrwt beam="1">  1        2 0.76182449E-01 0.18026600E+03</pdfrwt>
<pdfrwt beam="2">  1       -2 0.10177316E-01 0.18026600E+03</pdfrwt>
<totfact> 0.39810018E+03</totfact>
</mgrwt>
</event>
<event>
12    1  0.5759937E-002  0.3007702E+03  0.7546771E-02  0.1084856E+00
          2   -1    0    0  503    0  0.00000000000E+00  0.00000000000E+00  0.18995235932E+04  0.18995235932E+04  0.00000000000E+00 0. -1.
         -2   -1    0    0    0  501 -0.00000000000E+00 -0.00000000000E+00 -0.10033268859E+03  0.10033268859E+03  0.00000000000E+00 0.  1.
          6    2    1    2  503    0  0.22438334727E+03  0.10177684363E+03  0.16240975792E+04  0.16516810173E+04  0.17219414475E+03 0.  0.
         24    2    3    3    0    0  0.46502087836E+02  0.13127650665E+02  0.76990437485E+03  0.77465847349E+03  0.70768812010E+02 0.  0.
         -6    2    1    2    0  501 -0.22438334727E+03 -0.10177684363E+03  0.17509332541E+03  0.34817526455E+03  0.17280604680E+03 0.  0.
        -24    2    5    5    0    0 -0.11508235534E+03 -0.11668730001E+03  0.14626158595E+03  0.23405958751E+03  0.80818095044E+02 0.  0.
          4    1    4    4  502    0  0.42331049565E+02  0.24754888340E+02  0.74723198829E+03  0.74883934631E+03  0.00000000000E+00 0. -1.
         -3    1    4    4    0  502  0.41710382713E+01 -0.11627237674E+02  0.22672386557E+02  0.25819127181E+02  0.00000000000E+00 0.  1.
          5    1    3    3  503    0  0.17788125943E+03  0.88649192960E+02  0.85419320439E+03  0.87702254378E+03  0.47000000000E+01 0. -1.
         11    1    6    6    0    0 -0.28206690491E+01 -0.54112467779E+02  0.41659337720E+02  0.68349219178E+02  0.00000000000E+00 0. -1.
        -12    1    6    6    0    0 -0.11226168630E+03 -0.62574832231E+02  0.10460224823E+03  0.16571036834E+03  0.00000000000E+00 0.  1.
         -5    1    5    5    0  501 -0.10930099192E+03  0.14910456384E+02  0.28831739454E+02  0.11411567703E+03  0.47000000000E+01 0.  1.
<mgrwt>
<rscale>  2 0.30077022E+03</rscale>
<asrwt>0</asrwt>
<pdfrwt beam="1">  1        2 0.29223437E+00 0.30077022E+03</pdfrwt>
<pdfrwt beam="2">  1       -2 0.15435800E-01 0.30077022E+03</pdfrwt>
<totfact> 0.27346208E+02</totfact>
</mgrwt>
</event>
<event>
12    1  0.5759937E-002  0.1746951E+03  0.7546771E-02  0.1173038E+00
         -2   -1    0    0    0  501 -0.00000000000E+00  0.00000000000E+00  0.82593573066E+02  0.82593573066E+02  0.00000000000E+00 0.  1.
          2   -1    0    0  503    0  0.00000000000E+00 -0.00000000000E+00 -0.42644399411E+03  0.42644399411E+03  0.00000000000E+00 0. -1.
          6    2    1    2  503    0 -0.20251467734E+02  0.26178399895E+02 -0.26561972545E+03  0.31836889939E+03  0.17236440172E+03 0.  0.
         24    2    3    3    0    0 -0.51454705037E+02  0.68067329441E+02 -0.20368484707E+03  0.23721260821E+03  0.86611526722E+02 0.  0.
         -6    2    1    2    0  501  0.20251467734E+02 -0.26178399895E+02 -0.78230695590E+02  0.19066866779E+03  0.17070169471E+03 0.  0.
        -24    2    5    5    0    0 -0.40250583419E+02  0.80872483177E+01 -0.81087081843E+02  0.12091996326E+03  0.79755937848E+02 0.  0.
          4    1    4    4  502    0 -0.74039331502E+02  0.43378485077E+02 -0.16563252222E+03  0.18654127692E+03  0.00000000000E+00 0. -1.
         -3    1    4    4    0  502  0.22584626465E+02  0.24688844365E+02 -0.38052324844E+02  0.50671331290E+02  0.00000000000E+00 0.  1.
          5    1    3    3  503    0  0.31203237303E+02 -0.41888929546E+02 -0.61934878384E+02  0.81156291174E+02  0.47000000000E+01 0. -1.
         11    1    6    6    0    0 -0.27651086316E+02  0.86517424960E+01 -0.96643649155E+02  0.10089316203E+03  0.00000000000E+00 0. -1.
        -12    1    6    6    0    0 -0.12599497104E+02 -0.56449417831E+00  0.15556567312E+02  0.20026801229E+02  0.00000000000E+00 0.  1.
         -5    1    5    5    0  501  0.60502051153E+02 -0.34265648213E+02  0.28563862529E+01  0.69748704530E+02  0.47000000000E+01 0.  1.
<mgrwt>
<rscale>  2 0.17469509E+03</rscale>
<asrwt>0</asrwt>
<pdfrwt beam="2">  1        2 0.65606770E-01 0.17469509E+03</pdfrwt>
<pdfrwt beam="1">  1       -2 0.12706703E-01 0.17469509E+03</pdfrwt>
<totfact> 0.32840394E+03</totfact>
</mgrwt>
</event>
<event>
12    1  0.5759937E-002  0.1797233E+03  0.7546771E-02  0.1168071E+00
          1   -1    0    0  503    0  0.00000000000E+00  0.00000000000E+00  0.24636933957E+04  0.24636933957E+04  0.00000000000E+00 0. -1.
         -1   -1    0    0    0  501 -0.00000000000E+00 -0.00000000000E+00 -0.13393864512E+02  0.13393864512E+02  0.00000000000E+00 0.  1.
          6    2    1    2  503    0 -0.44564984629E+02 -0.15462393064E+02  0.14050323243E+04  0.14164757126E+04  0.17338537551E+03 0.  0.
         24    2    3    3    0    0 -0.94191249513E+02  0.97800715973E+01  0.98018624717E+03  0.98797107145E+03  0.79712719113E+02 0.  0.
         -6    2    1    2    0  501  0.44564984629E+02  0.15462393064E+02  0.10452672069E+04  0.10606115477E+04  0.17345949902E+03 0.  0.
        -24    2    5    5    0    0  0.63009096656E+02  0.66029838026E+02  0.80963178346E+03  0.81886086095E+03  0.81849856598E+02 0.  0.
          2    1    4    4  502    0 -0.80385806660E+02  0.67884121257E+01  0.95971242590E+03  0.96309703606E+03  0.00000000000E+00 0. -1.
         -1    1    4    4    0  502 -0.13805442853E+02  0.29916594717E+01  0.20473821274E+02  0.24874035385E+02  0.00000000000E+00 0.  1.
          5    1    3    3  503    0  0.49626264884E+02 -0.25242464661E+02  0.42484607715E+03  0.42850464112E+03  0.47000000000E+01 0. -1.
         11    1    6    6    0    0  0.66267040760E+02  0.19824579964E+02  0.61085170447E+03  0.61475534932E+03  0.00000000000E+00 0. -1.
        -12    1    6    6    0    0 -0.32579441035E+01  0.46205258062E+02  0.19878007899E+03  0.20410551163E+03  0.00000000000E+00 0.  1.
         -5    1    5    5    0  501 -0.18444112027E+02 -0.50567444962E+02  0.23563542341E+03  0.24175068670E+03  0.47000000000E+01 0.  1.
<mgrwt>
<rscale>  2 0.17972330E+03</rscale>
<asrwt>0</asrwt>
<pdfrwt beam="1">  1        1 0.37902939E+00 0.17972330E+03</pdfrwt>
<pdfrwt beam="2">  1       -1 0.20605965E-02 0.17972330E+03</pdfrwt>
<totfact> 0.11108494E+03</totfact>
</mgrwt>
</event>
<event>
12    1  0.5759937E-002  0.2489218E+03  0.7546771E-02  0.1113988E+00
          1   -1    0    0  503    0  0.00000000000E+00  0.00000000000E+00  0.62364044047E+03  0.62364044047E+03  0.00000000000E+00 0. -1.
         -1   -1    0    0    0  501 -0.00000000000E+00 -0.00000000000E+00 -0.10240071944E+03  0.10240071944E+03  0.00000000000E+00 0.  1.
          6    2    1    2  503    0  0.16813764824E+03  0.59592130827E+02  0.20048532122E+03  0.32145205568E+03  0.17696205600E+03 0.  0.
         24    2    3    3    0    0  0.66756244967E+02  0.49731782626E+02  0.18480317597E+03  0.21828503054E+03  0.81033908113E+02 0.  0.
         -6    2    1    2    0  501 -0.16813764824E+03 -0.59592130827E+02  0.32075439980E+03  0.40458910423E+03  0.17025706286E+03 0.  0.
        -24    2    5    5    0    0 -0.12569473566E+02 -0.35223701713E+02  0.11027057664E+03  0.14168074164E+03  0.80716365436E+02 0.  0.
          2    1    4    4  502    0  0.63669110966E+02  0.49661553864E+02  0.19316959310E+03  0.20936694420E+03  0.00000000000E+00 0. -1.
         -1    1    4    4    0  502  0.30871340007E+01  0.70228762575E-01 -0.83664171310E+01  0.89180863434E+01  0.00000000000E+00 0.  1.
          5    1    3    3  503    0  0.10138140328E+03  0.98603482010E+01  0.15682145250E+02  0.10316702514E+03  0.47000000000E+01 0. -1.
         13    1    6    6    0    0 -0.24265449755E+02  0.14121802181E+02  0.74520057276E+02  0.79633386748E+02  0.00000000000E+00 0. -1.
        -14    1    6    6    0    0  0.11695976189E+02 -0.49345503893E+02  0.35750519368E+02  0.62047354888E+02  0.00000000000E+00 0.  1.
         -5    1    5    5    0  501 -0.15556817468E+03 -0.24368429115E+02  0.21048382316E+03  0.26290836259E+03  0.47000000000E+01 0.  1.
<mgrwt>
<rscale>  2 0.24892183E+03</rscale>
<asrwt>0</asrwt>
<pdfrwt beam="1">  1        1 0.95944681E-01 0.24892183E+03</pdfrwt>
<pdfrwt beam="2">  1       -1 0.15753957E-01 0.24892183E+03</pdfrwt>
<totfact> 0.99133410E+02</totfact>
</mgrwt>
</event>
<event>
12    1  0.5759937E-002  0.1997662E+03  0.7546771E-02  0.1149936E+00
         -2   -1    0    0    0  501 -0.00000000000E+00  0.00000000000E+00  0.47420383874E+02  0.47420383874E+02  0.00000000000E+00 0.  1.
          2   -1    0    0  503    0  0.00000000000E+00 -0.00000000000E+00 -0.88539114500E+03  0.88539114500E+03  0.00000000000E+00 0. -1.
          6    2    1    2  503    0 -0.91115508604E+02  0.46726515900E+02 -0.52488325121E+03  0.56199664020E+03  0.17277845064E+03 0.  0.
         24    2    3    3    0    0 -0.68247872228E+02  0.10174905198E+03 -0.40521398258E+03  0.42823105373E+03  0.64597384311E+02 0.  0.
         -6    2    1    2    0  501  0.91115508604E+02 -0.46726515900E+02 -0.31308750992E+03  0.37081488867E+03  0.17027768379E+03 0.  0.
        -24    2    5    5    0    0  0.81938044162E+02 -0.11842981624E+02 -0.31383931985E+03  0.33443162280E+03  0.80593376617E+02 0.  0.
          2    1    4    4  502    0 -0.26489267873E+02  0.46407553234E+02 -0.28048211210E+03  0.28552680700E+03  0.00000000000E+00 0. -1.
         -1    1    4    4    0  502 -0.41758604355E+02  0.55341498745E+02 -0.12473187048E+03  0.14270424673E+03  0.00000000000E+00 0.  1.
          5    1    3    3  503    0 -0.22867636376E+02 -0.55022536078E+02 -0.11966926863E+03  0.13376558647E+03  0.47000000000E+01 0. -1.
         11    1    6    6    0    0 -0.91006975216E+01 -0.19972640501E+02 -0.90277239713E+02  0.92906991525E+02  0.00000000000E+00 0. -1.
        -12    1    6    6    0    0  0.91038741684E+02  0.81296588763E+01 -0.22356208013E+03  0.24152463128E+03  0.00000000000E+00 0.  1.
         -5    1    5    5    0  501  0.91774644419E+01 -0.34883534276E+02  0.75180992629E+00  0.36383265869E+02  0.47000000000E+01 0.  1.
<mgrwt>
<rscale>  2 0.19976621E+03</rscale>
<asrwt>0</asrwt>
<pdfrwt beam="2">  1        2 0.13621401E+00 0.19976621E+03</pdfrwt>
<pdfrwt beam="1">  1       -2 0.72954442E-02 0.19976621E+03</pdfrwt>
<totfact> 0.33629857E+03</totfact>
</mgrwt>
</event>
<event>
12    1  0.5759937E-002  0.1751203E+03  0.7546771E-02  0.1172611E+00
          2   -1    0    0  503    0  0.00000000000E+00  0.00000000000E+00  0.76135956496E+03  0.76135956496E+03  0.00000000000E+00 0. -1.
         -2   -1    0    0    0  501 -0.00000000000E+00 -0.00000000000E+00 -0.67045665318E+02  0.67045665318E+02  0.00000000000E+00 0.  1.
          6    2    1    2  503    0 -0.31483965023E+02  0.73703918843E+01  0.87710715667E+02  0.19754471277E+03  0.17402638068E+03 0.  0.
         24    2    3    3    0    0 -0.35219457720E+02 -0.41567045163E+02  0.11411076168E+01  0.97919346082E+02  0.81355188924E+02 0.  0.
         -6    2    1    2    0  501  0.31483965023E+02 -0.73703918843E+01  0.60660318397E+03  0.63086051750E+03  0.17021165356E+03 0.  0.
        -24    2    5    5    0    0  0.28411826754E+02 -0.46065482931E+02  0.19777494608E+03  0.22016675543E+03  0.80182356434E+02 0.  0.
          2    1    4    4  502    0  0.19630293276E+02 -0.33728648364E+02 -0.12276856587E+02  0.40910772936E+02  0.00000000000E+00 0. -1.
         -1    1    4    4    0  502 -0.54849750996E+02 -0.78383967986E+01  0.13417964204E+02  0.57008573146E+02  0.00000000000E+00 0.  1.
          5    1    3    3  503    0  0.37354926978E+01  0.48937437047E+02  0.86569608051E+02  0.99625366692E+02  0.47000000000E+01 0. -1.
         11    1    6    6    0    0  0.56430024297E+02 -0.25857436715E+02  0.12170004267E+03  0.13661572040E+03  0.00000000000E+00 0. -1.
        -12    1    6    6    0    0 -0.28018197542E+02 -0.20208046216E+02  0.76074903408E+02  0.83551035026E+02  0.00000000000E+00 0.  1.
         -5    1    5    5    0  501  0.30721382682E+01  0.38695091046E+02  0.40882823790E+03  0.41069376207E+03  0.47000000000E+01 0.  1.
<mgrwt>
<rscale>  2 0.17512033E+03</rscale>
<asrwt>0</asrwt>
<pdfrwt beam="1">  1        2 0.11713223E+00 0.17512033E+03</pdfrwt>
<pdfrwt beam="2">  1       -2 0.10314718E-01 0.17512033E+03</pdfrwt>
<totfact> 0.23627260E+03</totfact>
</mgrwt>
</event>
<event>
12    1  0.5759937E-002  0.3039143E+03  0.7546771E-02  0.1083300E+00
          4   -1    0    0  503    0  0.00000000000E+00  0.00000000000E+00  0.85370364378E+02  0.85370364378E+02  0.00000000000E+00 0. -1.
         -4   -1    0    0    0  501 -0.00000000000E+00 -0.00000000000E+00 -0.12097631955E+04  0.12097631955E+04  0.00000000000E+00 0.  1.
          6    2    1    2  503    0 -0.61211285211E+02  0.24160456494E+03 -0.77184714862E+03  0.82933576351E+03  0.17300346984E+03 0.  0.
         24    2    3    3    0    0  0.20276996996E+02  0.14500158135E+03 -0.32872682754E+03  0.36852106591E+03  0.79434461499E+02 0.  0.
         -6    2    1    2    0  501  0.61211285211E+02 -0.24160456494E+03 -0.35254568250E+03  0.46579779636E+03  0.17481287598E+03 0.  0.
        -24    2    5    5    0    0  0.10003894912E+03 -0.19281521596E+03 -0.22038807899E+03  0.31959345230E+03  0.79897249907E+02 0.  0.
          2    1    4    4  502    0  0.17001679899E+02  0.49134498912E+02 -0.44138400081E+02  0.68201572302E+02  0.00000000000E+00 0. -1.
         -1    1    4    4    0  502  0.32753170975E+01  0.95867082434E+02 -0.28458842746E+03  0.30031949361E+03  0.00000000000E+00 0.  1.
          5    1    3    3  503    0 -0.81488282208E+02  0.96602983594E+02 -0.44312032108E+03  0.46081469760E+03  0.47000000000E+01 0. -1.
         13    1    6    6    0    0  0.55205595055E+02 -0.16029817514E+03 -0.19579178559E+03  0.25899340915E+03  0.00000000000E+00 0. -1.
        -14    1    6    6    0    0  0.44833354063E+02 -0.32517040815E+02 -0.24596293402E+02  0.60600043144E+02  0.00000000000E+00 0.  1.
         -5    1    5    5    0  501 -0.38827663906E+02 -0.48789348984E+02 -0.13215760351E+03  0.14620434407E+03  0.47000000000E+01 0.  1.
<mgrwt>
<rscale>  2 0.30391433E+03</rscale>
<asrwt>0</asrwt>
<pdfrwt beam="1">  1        4 0.13133902E-01 0.30391433E+03</pdfrwt>
<pdfrwt beam="2">  1       -4 0.18611742E+00 0.30391433E+03</pdfrwt>
<totfact> 0.15496658E+01</totfact>
</mgrwt>
</event>
<event>
12    1  0.5759937E-002  0.2213093E+03  0.7546771E-02  0.1132911E+00
          1   -1    0    0  503    0  0.00000000000E+00  0.00000000000E+00  0.12791165999E+04  0.12791165999E+04  0.00000000000E+00 0. -1.
         -1   -1    0    0    0  501 -0.00000000000E+00 -0.00000000000E+00 -0.48040926480E+02  0.48040926480E+02  0.00000000000E+00 0.  1.
          6    2    1    2  503    0  0.11354727322E+03 -0.79489762420E+02  0.31625140278E+03  0.38590937156E+03  0.17233539310E+03 0.  0.
         24    2    3    3    0    0  0.54323431706E+02 -0.28012418897E+02  0.80493552218E+02  0.13739129496E+03  0.93066777832E+02 0.  0.
         -6    2    1    2    0  501 -0.11354727322E+03  0.79489762420E+02  0.91482427066E+03  0.94124815484E+03  0.17272242822E+03 0.  0.
        -24    2    5    5    0    0 -0.68284367469E+02 -0.15644139154E+02  0.59095419679E+03  0.60064118983E+03  0.81458469666E+02 0.  0.
          4    1    4    4  502    0 -0.34696642844E+01 -0.44545396570E+02  0.57988497192E+02  0.73205168755E+02  0.00000000000E+00 0. -1.
         -3    1    4    4    0  502  0.57793095990E+02  0.16532977673E+02  0.22505055026E+02  0.64186126200E+02  0.00000000000E+00 0.  1.
          5    1    3    3  503    0  0.59223841510E+02 -0.51477343523E+02  0.23575785056E+03  0.24851807660E+03  0.47000000000E+01 0. -1.
         13    1    6    6    0    0 -0.86416608515E+02 -0.94138068609E+01  0.44283377851E+03  0.45128506000E+03  0.00000000000E+00 0. -1.
        -14    1    6    6    0    0  0.18132241046E+02 -0.62303322929E+01  0.14812041828E+03  0.14935612983E+03  0.00000000000E+00 0.  1.
         -5    1    5    5    0  501 -0.45262905747E+02  0.95133901574E+02  0.32387007387E+03  0.34060696501E+03  0.47000000000E+01 0.  1.
<mgrwt>
<rscale>  2 0.22130934E+03</rscale>
<asrwt>0</asrwt>
<pdfrwt beam="1">  1        1 0.19678714E+00 0.22130934E+03</pdfrwt>
<pdfrwt beam="2">  1       -1 0.73909128E-02 0.22130934E+03</pdfrwt>
<totfact> 0.98464786E+02</totfact>
</mgrwt>
</event>
<event>
12    1  0.5759937E-002  0.1804041E+03  0.7546771E-02  0.1167412E+00
         -1   -1    0    0    0  501 -0.00000000000E+00  0.00000000000E+00  0.49167400798E+02  0.49167400798E+02  0.00000000000E+00 0.  1.
          1   -1    0    0  503    0  0.00000000000E+00 -0.00000000000E+00 -0.16257230611E+04  0.16257230611E+04  0.00000000000E+00 0. -1.
          6    2    1    2  503    0 -0.55700122767E+02 -0.83035344002E+01 -0.14317058135E+03  0.23017551917E+03  0.17120602180E+03 0.  0.
         24    2    3    3    0    0 -0.73610162234E+02  0.49338595092E+02 -0.95193429771E+02  0.15292733679E+03  0.80450160458E+02 0.  0.
         -6    2    1    2    0  501  0.55700122767E+02  0.83035344002E+01 -0.14333850789E+04  0.14447149427E+04  0.17157222629E+03 0.  0.
        -24    2    5    5    0    0  0.11666374720E+02 -0.36060106237E+02 -0.11693832056E+04  0.11733734923E+04  0.88948498500E+02 0.  0.
          2    1    4    4  502    0 -0.12665463984E+02  0.12263700540E+01 -0.70219322971E+02  0.71362954535E+02  0.00000000000E+00 0. -1.
         -1    1    4    4    0  502 -0.60944698250E+02  0.48112225038E+02 -0.24974106799E+02  0.81564382259E+02  0.00000000000E+00 0.  1.
          5    1    3    3  503    0  0.17910039468E+02 -0.57642129492E+02 -0.47977151584E+02  0.77248182375E+02  0.47000000000E+01 0. -1.
         11    1    6    6    0    0  0.34034238531E+02 -0.91811816536E+01 -0.98923087970E+03  0.98985875601E+03  0.00000000000E+00 0. -1.
        -12    1    6    6    0    0 -0.22367863811E+02 -0.26878924583E+02 -0.18015232587E+03  0.18351473629E+03  0.00000000000E+00 0.  1.
         -5    1    5    5    0  501  0.44033748047E+02  0.44363640637E+02 -0.26400187334E+03  0.27134145040E+03  0.47000000000E+01 0.  1.
<mgrwt>
<rscale>  2 0.18040415E+03</rscale>
<asrwt>0</asrwt>
<pdfrwt beam="2">  1        1 0.25011124E+00 0.18040415E+03</pdfrwt>
<pdfrwt beam="1">  1       -1 0.75642154E-02 0.18040415E+03</pdfrwt>
<totfact> 0.56276060E+02</totfact>
</mgrwt>
</event>
<event>
12    1  0.5759937E-002  0.3783911E+03  0.7546771E-02  0.1051530E+00
         -2   -1    0    0    0  501 -0.00000000000E+00  0.00000000000E+00  0.12652727068E+03  0.12652727068E+03  0.00000000000E+00 0. -1.
          2   -1    0    0  503    0  0.00000000000E+00 -0.00000000000E+00 -0.13665020332E+04  0.13665020332E+04  0.00000000000E+00 0.  1.
          6    2    1    2  503    0  0.29251406720E+03  0.16579660368E+03 -0.31090107466E+03  0.48997117815E+03  0.17423915716E+03 0.  0.
         24    2    3    3    0    0  0.86247282546E+02  0.38139853244E+02 -0.55346476525E+02  0.13759002795E+03  0.83513718490E+02 0.  0.
         -6    2    1    2    0  501 -0.29251406720E+03 -0.16579660368E+03 -0.92907368783E+03  0.10030581257E+04  0.17290081781E+03 0.  0.
        -24    2    5    5    0    0 -0.22810321310E+03 -0.61804319438E+02 -0.70907744441E+03  0.75129714693E+03  0.76195348209E+02 0.  0.
          2    1    4    4  502    0  0.29830623088E+02 -0.26676434147E+02 -0.18687047644E+02  0.44166774415E+02  0.00000000000E+00 0. -1.
         -1    1    4    4    0  502  0.56416659459E+02  0.64816287391E+02 -0.36659428880E+02  0.93423253537E+02  0.00000000000E+00 0.  1.
          5    1    3    3  503    0  0.20626678466E+03  0.12765675044E+03 -0.25555459814E+03  0.35238115020E+03  0.47000000000E+01 0. -1.
         13    1    6    6    0    0 -0.17456607129E+03 -0.12165412049E+02 -0.51706153283E+03  0.54586989222E+03  0.00000000000E+00 0. -1.
        -14    1    6    6    0    0 -0.53537141812E+02 -0.49638907389E+02 -0.19201591158E+03  0.20542725472E+03  0.00000000000E+00 0.  1.
         -5    1    5    5    0  501 -0.64410854106E+02 -0.10399228425E+03 -0.21999624342E+03  0.25176097876E+03  0.47000000000E+01 0.  1.
<mgrwt>
<rscale>  2 0.37839106E+03</rscale>
<asrwt>0</asrwt>
<pdfrwt beam="2">  1        2 0.21023107E+00 0.37839106E+03</pdfrwt>
<pdfrwt beam="1">  1       -2 0.19465735E-01 0.37839106E+03</pdfrwt>
<totfact> 0.35245866E+02</totfact>
</mgrwt>
</event>
<event>
12    1  0.5759937E-002  0.2444787E+03  0.7546771E-02  0.1116845E+00
         -2   -1    0    0    0  501 -0.00000000000E+00  0.00000000000E+00  0.33774549480E+02  0.33774549480E+02  0.00000000000E+00 0.  1.
          2   -1    0    0  503    0  0.00000000000E+00 -0.00000000000E+00 -0.18639895646E+04  0.18639895646E+04  0.00000000000E+00 0. -1.
          6    2    1    2  503    0  0.46481858443E+02 -0.16708292616E+03 -0.11284663987E+04  0.11546402641E+04  0.17228017616E+03 0.  0.
         24    2    3    3    0    0 -0.15930515877E+02 -0.13537083594E+03 -0.94094211659E+03  0.95441936729E+03  0.83457877601E+02 0.  0.
         -6    2    1    2    0  501 -0.46481858443E+02  0.16708292616E+03 -0.70174861647E+03  0.74312385003E+03  0.17235042325E+03 0.  0.
        -24    2    5    5    0    0 -0.85099176756E+02  0.63680321669E+02 -0.34543732767E+03  0.37007798098E+03  0.79584617916E+02 0.  0.
          2    1    4    4  502    0 -0.29271808364E+02 -0.12455063246E+03 -0.91066515302E+03  0.91960900372E+03  0.00000000000E+00 0. -1.
         -1    1    4    4    0  502  0.13341292486E+02 -0.10820203486E+02 -0.30276963569E+02  0.34810363567E+02  0.00000000000E+00 0.  1.
          5    1    3    3  503    0  0.62412374321E+02 -0.31712090216E+02 -0.18752428207E+03  0.20022089676E+03  0.47000000000E+01 0. -1.
         13    1    6    6    0    0 -0.11453733721E+02 -0.16884673962E+02 -0.90227914752E+02  0.92505982680E+02  0.00000000000E+00 0. -1.
        -14    1    6    6    0    0 -0.73645443036E+02  0.80564995631E+02 -0.25520941292E+03  0.27757199831E+03  0.00000000000E+00 0.  1.
         -5    1    5    5    0  501  0.38617318313E+02  0.10340260449E+03 -0.35631128880E+03  0.37304586905E+03  0.47000000000E+01 0.  1.
<mgrwt>
<rscale>  2 0.24447869E+03</rscale>
<asrwt>0</asrwt>
<pdfrwt beam="2">  1        2 0.28676770E+00 0.24447869E+03</pdfrwt>
<pdfrwt beam="1">  1       -2 0.51960831E-02 0.24447869E+03</pdfrwt>
<totfact> 0.16200438E+03</totfact>
</mgrwt>
</event>
<event>
12    1  0.5759937E-002  0.2573473E+03  0.7546771E-02  0.1108748E+00
         -2   -1    0    0    0  501 -0.00000000000E+00  0.00000000000E+00  0.19519957405E+03  0.19519957405E+03  0.00000000000E+00 0.  1.
          2   -1    0    0  503    0  0.00000000000E+00 -0.00000000000E+00 -0.55991955985E+03  0.55991955985E+03  0.00000000000E+00 0. -1.
          6    2    1    2  503    0  0.75185875258E+02 -0.17498057804E+03  0.54719916158E+02  0.26293619899E+03  0.17282956050E+03 0.  0.
         24    2    3    3    0    0  0.51884738805E+02 -0.29187658697E+02  0.76378143653E+02  0.11363888786E+03  0.59466212801E+02 0.  0.
         -6    2    1    2    0  501 -0.75185875258E+02  0.17498057804E+03 -0.41943990195E+03  0.49218293491E+03  0.17332943068E+03 0.  0.
        -24    2    5    5    0    0 -0.62845181918E+02  0.13084751586E+03 -0.41372393100E+03  0.44576330315E+03  0.80416677708E+02 0.  0.
          2    1    4    4  502    0  0.82272716901E+01 -0.37742502210E+02  0.44392201124E+02  0.58846002355E+02  0.00000000000E+00 0. -1.
         -1    1    4    4    0  502  0.43657467115E+02  0.85548435128E+01  0.31985942529E+02  0.54792885504E+02  0.00000000000E+00 0.  1.
          5    1    3    3  503    0  0.23301136453E+02 -0.14579291935E+03 -0.21658227495E+02  0.14929731113E+03  0.47000000000E+01 0. -1.
         13    1    6    6    0    0 -0.11680754977E+02  0.10955069133E+03 -0.28867810669E+03  0.30898680116E+03  0.00000000000E+00 0. -1.
        -14    1    6    6    0    0 -0.51164426941E+02  0.21296824535E+02 -0.12504582431E+03  0.13677650199E+03  0.00000000000E+00 0.  1.
         -5    1    5    5    0  501 -0.12340693339E+02  0.44133062179E+02 -0.57159709531E+01  0.46419631766E+02  0.47000000000E+01 0.  1.
<mgrwt>
<rscale>  2 0.25734731E+03</rscale>
<asrwt>0</asrwt>
<pdfrwt beam="2">  1        2 0.86141471E-01 0.25734731E+03</pdfrwt>
<pdfrwt beam="1">  1       -2 0.30030704E-01 0.25734731E+03</pdfrwt>
<totfact> 0.56119575E+02</totfact>
</mgrwt>
</event>
<event>
12    1  0.5759937E-002  0.1771793E+03  0.7546771E-02  0.1170561E+00
         -1   -1    0    0    0  501 -0.00000000000E+00  0.00000000000E+00  0.24813073857E+03  0.24813073857E+03  0.00000000000E+00 0. -1.
          1   -1    0    0  503    0  0.00000000000E+00 -0.00000000000E+00 -0.12658797852E+03  0.12658797852E+03  0.00000000000E+00 0.  1.
          6    2    1    2  503    0 -0.92615117342E+01  0.73192938854E+01  0.64601154934E+02  0.19180887908E+03  0.18021650649E+03 0.  0.
         24    2    3    3    0    0 -0.28180131851E+02  0.41688037588E+02 -0.20869891372E+02  0.97646707866E+02  0.81038971378E+02 0.  0.
         -6    2    1    2    0  501  0.92615117342E+01 -0.73192938854E+01  0.56941605118E+02  0.18290983801E+03  0.17341947637E+03 0.  0.
        -24    2    5    5    0    0 -0.28990296316E+02  0.17533969007E+02  0.89037397494E+02  0.12693559943E+03  0.83887489542E+02 0.  0.
          4    1    4    4  502    0 -0.25638391564E+02  0.63224038635E+02 -0.99607758610E+00  0.68231945259E+02  0.00000000000E+00 0. -1.
         -3    1    4    4    0  502 -0.25417402875E+01 -0.21536001047E+02 -0.19873813786E+02  0.29414762606E+02  0.00000000000E+00 0.  1.
          5    1    3    3  503    0  0.18918620117E+02 -0.34368743702E+02  0.85471046306E+02  0.94162171212E+02  0.47000000000E+01 0. -1.
         11    1    6    6    0    0 -0.37040389362E+02 -0.15786486210E+02  0.11059034152E+02  0.41755308972E+02  0.00000000000E+00 0. -1.
        -12    1    6    6    0    0  0.80500930455E+01  0.33320455217E+02  0.77978363342E+02  0.85180290463E+02  0.00000000000E+00 0.  1.
         -5    1    5    5    0  501  0.38251808051E+02 -0.24853262892E+02 -0.32095792375E+02  0.55974238572E+02  0.47000000000E+01 0.  1.
<mgrwt>
<rscale>  2 0.17717929E+03</rscale>
<asrwt>0</asrwt>
<pdfrwt beam="2">  1        1 0.19475074E-01 0.17717929E+03</pdfrwt>
<pdfrwt beam="1">  1       -1 0.38173960E-01 0.17717929E+03</pdfrwt>
<totfact> 0.17491183E+03</totfact>
</mgrwt>
</event>
<event>
12    1  0.5759937E-002  0.2017014E+03  0.7546771E-02  0.1148311E+00
          2   -1    0    0  503    0  0.00000000000E+00  0.00000000000E+00  0.27661127136E+04  0.27661127136E+04  0.00000000000E+00 0. -1.
         -2   -1    0    0    0  501 -0.00000000000E+00 -0.00000000000E+00 -0.23347288400E+02  0.23347288400E+02  0.00000000000E+00 0.  1.
          6    2    1    2  503    0 -0.94746943740E+02 -0.43019285051E+02  0.52136226162E+03  0.55888476755E+03  0.17235409285E+03 0.  0.
         24    2    3    3    0    0 -0.10560804573E+03 -0.40950397461E+02  0.23904442041E+03  0.27631141902E+03  0.79848425012E+02 0.  0.
         -6    2    1    2    0  501  0.94746943740E+02  0.43019285051E+02  0.22214031636E+04  0.22305752345E+04  0.17322303294E+03 0.  0.
        -24    2    5    5    0    0 -0.20675986425E+02  0.24006438190E+02  0.87479640154E+03  0.87888895327E+03  0.78569985017E+02 0.  0.
          4    1    4    4  502    0 -0.21960058214E+02  0.23707473290E+02  0.66843242776E+02  0.74244915997E+02  0.00000000000E+00 0. -1.
         -3    1    4    4    0  502 -0.83647987520E+02 -0.64657870752E+02  0.17220117763E+03  0.20206650302E+03  0.00000000000E+00 0.  1.
          5    1    3    3  503    0  0.10861101993E+02 -0.20688875899E+01  0.28231784121E+03  0.28257334853E+03  0.47000000000E+01 0. -1.
         11    1    6    6    0    0 -0.98766333138E+01  0.48698127298E+02  0.72400774058E+03  0.72571086798E+03  0.00000000000E+00 0. -1.
        -12    1    6    6    0    0 -0.10799353111E+02 -0.24691689108E+02  0.15078866096E+03  0.15317808529E+03  0.00000000000E+00 0.  1.
         -5    1    5    5    0  501  0.11542293017E+03  0.19012846862E+02  0.13466067621E+04  0.13516862812E+04  0.47000000000E+01 0.  1.
<mgrwt>
<rscale>  2 0.20170137E+03</rscale>
<asrwt>0</asrwt>
<pdfrwt beam="1">  1        2 0.42555554E+00 0.20170137E+03</pdfrwt>
<pdfrwt beam="2">  1       -2 0.35918927E-02 0.20170137E+03</pdfrwt>
<totfact> 0.93361818E+02</totfact>
</mgrwt>
</event>
<event>
12    1  0.5759937E-002  0.1931836E+03  0.7546771E-02  0.1155621E+00
          1   -1    0    0  503    0  0.00000000000E+00  0.00000000000E+00  0.21440118300E+03  0.21440118300E+03  0.00000000000E+00 0. -1.
         -1   -1    0    0    0  501 -0.00000000000E+00 -0.00000000000E+00 -0.20220149483E+03  0.20220149483E+03  0.00000000000E+00 0.  1.
          6    2    1    2  503    0  0.84367017186E+02 -0.93884707506E+01  0.83810751905E+02  0.21093935828E+03  0.17396905979E+03 0.  0.
         24    2    3    3    0    0  0.15263190126E+02  0.49086200915E+02  0.14819779040E+02  0.97025046283E+02  0.80943274349E+02 0.  0.
         -6    2    1    2    0  501 -0.84367017186E+02  0.93884707506E+01 -0.71611063742E+02  0.20566331955E+03  0.17309916113E+03 0.  0.
        -24    2    5    5    0    0 -0.10154877228E+03 -0.42690286857E+02 -0.52206274871E+02  0.14730198360E+03  0.82690782405E+02 0.  0.
          4    1    4    4  502    0  0.10288367667E+02  0.64272826250E+02  0.32867829492E+02  0.72918728176E+02  0.00000000000E+00 0. -1.
         -3    1    4    4    0  502  0.49748224587E+01 -0.15186625335E+02 -0.18048050452E+02  0.24106318107E+02  0.00000000000E+00 0.  1.
          5    1    3    3  503    0  0.69103827061E+02 -0.58474671666E+02  0.68990972865E+02  0.11391431200E+03  0.47000000000E+01 0. -1.
         13    1    6    6    0    0 -0.81171141939E+02 -0.13914019384E+01 -0.49755059358E+01  0.81335391696E+02  0.00000000000E+00 0. -1.
        -14    1    6    6    0    0 -0.20377630339E+02 -0.41298884919E+02 -0.47230768935E+02  0.65966591908E+02  0.00000000000E+00 0.  1.
         -5    1    5    5    0  501  0.17181755092E+02  0.52078757608E+02 -0.19404788871E+02  0.58361335944E+02  0.47000000000E+01 0.  1.
<mgrwt>
<rscale>  2 0.19318361E+03</rscale>
<asrwt>0</asrwt>
<pdfrwt beam="1">  1        1 0.32984798E-01 0.19318361E+03</pdfrwt>
<pdfrwt beam="2">  1       -1 0.31107922E-01 0.19318361E+03</pdfrwt>
<totfact> 0.12807767E+03</totfact>
</mgrwt>
</event>
<event>
12    1  0.5759937E-002  0.1741402E+03  0.7546771E-02  0.1173598E+00
         -2   -1    0    0    0  501 -0.00000000000E+00  0.00000000000E+00  0.12462012587E+02  0.12462012587E+02  0.00000000000E+00 0.  1.
          2   -1    0    0  503    0  0.00000000000E+00 -0.00000000000E+00 -0.24846361436E+04  0.24846361436E+04  0.00000000000E+00 0. -1.
          6    2    1    2  503    0  0.13065535147E+02 -0.15139156475E+02 -0.14173374771E+04  0.14280291361E+04  0.17326796414E+03 0.  0.
         24    2    3    3    0    0  0.16377611883E+02 -0.73200628901E+02 -0.74241862295E+03  0.75059304755E+03  0.81104581163E+02 0.  0.
         -6    2    1    2    0  501 -0.13065535147E+02  0.15139156475E+02 -0.10548366539E+04  0.10690690201E+04  0.17270871700E+03 0.  0.
        -24    2    5    5    0    0 -0.66239569106E+02 -0.22692377072E+02 -0.59020620870E+03  0.59985452386E+03  0.81113849084E+02 0.  0.
          2    1    4    4  502    0  0.17365096806E+02  0.14561814307E+02 -0.14402942288E+03  0.14580146665E+03  0.00000000000E+00 0. -1.
         -1    1    4    4    0  502 -0.98748492331E+00 -0.87762443207E+02 -0.59838920007E+03  0.60479158090E+03  0.00000000000E+00 0.  1.
          5    1    3    3  503    0 -0.33120767354E+01  0.58061472426E+02 -0.67491885412E+03  0.67743608856E+03  0.47000000000E+01 0. -1.
         11    1    6    6    0    0 -0.56483557315E+02 -0.39248772536E+02 -0.55893081182E+03  0.56314697087E+03  0.00000000000E+00 0. -1.
        -12    1    6    6    0    0 -0.97560117904E+01  0.16556395464E+02 -0.31275396882E+02  0.36707552996E+02  0.00000000000E+00 0.  1.
         -5    1    5    5    0  501  0.53174033959E+02  0.37831533547E+02 -0.46463044524E+03  0.46921449622E+03  0.47000000000E+01 0.  1.
<mgrwt>
<rscale>  2 0.17414015E+03</rscale>
<asrwt>0</asrwt>
<pdfrwt beam="2">  1        2 0.38225175E+00 0.17414015E+03</pdfrwt>
<pdfrwt beam="1">  1       -2 0.19172325E-02 0.17414015E+03</pdfrwt>
<totfact> 0.33812928E+03</totfact>
</mgrwt>
</event>
<event>
12    1  0.5759937E-002  0.2508446E+03  0.7546771E-02  0.1112772E+00
          2   -1    0    0  503    0  0.00000000000E+00  0.00000000000E+00  0.27543027468E+03  0.27543027468E+03  0.00000000000E+00 0.  1.
         -2   -1    0    0    0  501 -0.00000000000E+00 -0.00000000000E+00 -0.23075811624E+03  0.23075811624E+03  0.00000000000E+00 0. -1.
          6    2    1    2  503    0  0.52722011634E+02 -0.16361867218E+03  0.47267236365E+02  0.26210532355E+03  0.19213101937E+03 0.  0.
         24    2    3    3    0    0  0.34454042965E+01 -0.93363469194E+02  0.10261511569E+03  0.15988274619E+03  0.79397873832E+02 0.  0.
         -6    2    1    2    0  501 -0.52722011634E+02  0.16361867218E+03 -0.25950779246E+01  0.24408306736E+03  0.17326029247E+03 0.  0.
        -24    2    5    5    0    0 -0.90409564292E+02  0.14130059023E+03 -0.35337143041E+02  0.18919608133E+03  0.80041847797E+02 0.  0.
          2    1    4    4  502    0  0.34468038072E+02 -0.67875842004E+02  0.89826127376E+02  0.11774510069E+03  0.00000000000E+00 0. -1.
         -1    1    4    4    0  502 -0.31022633776E+02 -0.25487627190E+02  0.12788988316E+02  0.42137645500E+02  0.00000000000E+00 0.  1.
          5    1    3    3  503    0  0.49276607338E+02 -0.70255202986E+02 -0.55347879327E+02  0.10222257737E+03  0.47000000000E+01 0. -1.
         13    1    6    6    0    0 -0.36675009933E+02  0.11102329392E+03 -0.47721248959E+02  0.12628755184E+03  0.00000000000E+00 0. -1.
        -14    1    6    6    0    0 -0.53734554359E+02  0.30277296307E+02  0.12384105918E+02  0.62908529495E+02  0.00000000000E+00 0.  1.
         -5    1    5    5    0  501  0.37687552658E+02  0.22318081948E+02  0.32742065116E+02  0.54886986028E+02  0.47000000000E+01 0.  1.
<mgrwt>
<rscale>  2 0.25084464E+03</rscale>
<asrwt>0</asrwt>
<pdfrwt beam="1">  1        2 0.42373888E-01 0.25084464E+03</pdfrwt>
<pdfrwt beam="2">  1       -2 0.35501249E-01 0.25084464E+03</pdfrwt>
<totfact> 0.89809973E+02</totfact>
</mgrwt>
</event>
<event>
12    1  0.5759937E-002  0.1906696E+03  0.7546771E-02  0.1157859E+00
         -2   -1    0    0    0  501 -0.00000000000E+00  0.00000000000E+00  0.53797113148E+02  0.53797113148E+02  0.00000000000E+00 0.  1.
          2   -1    0    0  503    0  0.00000000000E+00 -0.00000000000E+00 -0.72793195180E+03  0.72793195180E+03  0.00000000000E+00 0. -1.
          6    2    1    2  503    0 -0.74539380831E+02  0.31521573281E+02 -0.23240155181E+03  0.30059154964E+03  0.17261248378E+03 0.  0.
         24    2    3    3    0    0 -0.35191545272E+02  0.87029224417E+02 -0.12245504897E+03  0.17120965375E+03  0.74195523843E+02 0.  0.
         -6    2    1    2    0  501  0.74539380831E+02 -0.31521573281E+02 -0.44173328685E+03  0.48113751531E+03  0.17267102552E+03 0.  0.
        -24    2    5    5    0    0  0.14884384317E+02  0.36255984726E+02 -0.29628388765E+03  0.30987708875E+03  0.81875678485E+02 0.  0.
          2    1    4    4  502    0 -0.48494830831E+02  0.93018900313E+02 -0.11032470841E+03  0.15223601978E+03  0.00000000000E+00 0. -1.
         -1    1    4    4    0  502  0.13303285559E+02 -0.59896758963E+01 -0.12130340565E+02  0.18973633975E+02  0.00000000000E+00 0.  1.
          5    1    3    3  503    0 -0.39347835559E+02 -0.55507651136E+02 -0.10994650283E+03  0.12938189589E+03  0.47000000000E+01 0. -1.
         13    1    6    6    0    0  0.40980725478E+02 -0.32448096109E+01 -0.17295876120E+03  0.17777705624E+03  0.00000000000E+00 0. -1.
        -14    1    6    6    0    0 -0.26096341161E+02  0.39500794337E+02 -0.12332512645E+03  0.13210003251E+03  0.00000000000E+00 0.  1.
         -5    1    5    5    0  501  0.59654996514E+02 -0.67777558007E+02 -0.14544939920E+03  0.17126042656E+03  0.47000000000E+01 0.  1.
<mgrwt>
<rscale>  2 0.19066962E+03</rscale>
<asrwt>0</asrwt>
<pdfrwt beam="2">  1        2 0.11198952E+00 0.19066962E+03</pdfrwt>
<pdfrwt beam="1">  1       -2 0.82764796E-02 0.19066962E+03</pdfrwt>
<totfact> 0.35370427E+03</totfact>
</mgrwt>
</event>
<event>
12    1  0.5759937E-002  0.1737016E+03  0.7546771E-02  0.1174042E+00
         -2   -1    0    0    0  501 -0.00000000000E+00  0.00000000000E+00  0.76521567319E+03  0.76521567319E+03  0.00000000000E+00 0. -1.
          2   -1    0    0  503    0  0.00000000000E+00 -0.00000000000E+00 -0.13384292072E+03  0.13384292072E+03  0.00000000000E+00 0.  1.
          6    2    1    2  503    0  0.20627344358E+01 -0.14102291780E+02  0.69326708811E+03  0.71470990250E+03  0.17317003139E+03 0.  0.
         24    2    3    3    0    0  0.17382760132E+02  0.23464407164E+02  0.17399002234E+03  0.19382918574E+03  0.80277559869E+02 0.  0.
         -6    2    1    2    0  501 -0.20627344358E+01  0.14102291780E+02 -0.61894335637E+02  0.18434869141E+03  0.17306184367E+03 0.  0.
        -24    2    5    5    0    0 -0.32308263533E+02 -0.34855929369E+02  0.68687792966E+01  0.94559185207E+02  0.81458576425E+02 0.  0.
          2    1    4    4  502    0  0.31463949040E+02  0.33999096549E+02  0.16944845492E+03  0.17566643826E+03  0.00000000000E+00 0. -1.
         -1    1    4    4    0  502 -0.14081188908E+02 -0.10534689384E+02  0.45415674161E+01  0.18162747482E+02  0.00000000000E+00 0.  1.
          5    1    3    3  503    0 -0.15320025696E+02 -0.37566698944E+02  0.51927706577E+03  0.52088071676E+03  0.47000000000E+01 0. -1.
         13    1    6    6    0    0  0.20548857907E+02 -0.17118851213E+02  0.24308442876E+02  0.36141541517E+02  0.00000000000E+00 0. -1.
        -14    1    6    6    0    0 -0.52857121441E+02 -0.17737078155E+02 -0.17439663580E+02  0.58417643690E+02  0.00000000000E+00 0.  1.
         -5    1    5    5    0  501  0.30245529098E+02  0.48958221148E+02 -0.68763114934E+02  0.89789506201E+02  0.47000000000E+01 0.  1.
<mgrwt>
<rscale>  2 0.17370162E+03</rscale>
<asrwt>0</asrwt>
<pdfrwt beam="2">  1        2 0.20591219E-01 0.17370162E+03</pdfrwt>
<pdfrwt beam="1">  1       -2 0.11772549E+00 0.17370162E+03</pdfrwt>
<totfact> 0.15752453E+02</totfact>
</mgrwt>
</event>
<event>
12    1  0.5759937E-002  0.1964600E+03  0.7546771E-02  0.1152761E+00
          1   -1    0    0  503    0  0.00000000000E+00  0.00000000000E+00  0.19582257496E+04  0.19582257496E+04  0.00000000000E+00 0. -1.
         -1   -1    0    0    0  501 -0.00000000000E+00 -0.00000000000E+00 -0.20000179554E+02  0.20000179554E+02  0.00000000000E+00 0.  1.
          6    2    1    2  503    0 -0.78733263736E+02 -0.50103197630E+02  0.10877533376E+04  0.11053337296E+04  0.17276016091E+03 0.  0.
         24    2    3    3    0    0 -0.51781154782E+02 -0.39906496246E+02  0.10595480339E+04  0.10647379410E+04  0.82164654831E+02 0.  0.
         -6    2    1    2    0  501  0.78733263736E+02  0.50103197630E+02  0.85047223241E+03  0.87289219947E+03  0.17299860280E+03 0.  0.
        -24    2    5    5    0    0 -0.10279869471E+02 -0.16869328436E+02  0.40357429025E+03  0.41229637031E+03  0.82011214274E+02 0.  0.
          2    1    4    4  502    0 -0.67610389596E+02 -0.15431792847E+02  0.54966658539E+03  0.55402406095E+03  0.00000000000E+00 0. -1.
         -1    1    4    4    0  502  0.15829234814E+02 -0.24474703399E+02  0.50988144849E+03  0.51071388007E+03  0.00000000000E+00 0.  1.
          5    1    3    3  503    0 -0.26952108953E+02 -0.10196701384E+02  0.28205303707E+02  0.40595788616E+02  0.47000000000E+01 0. -1.
         11    1    6    6    0    0 -0.89271576950E+01  0.10777176850E+02  0.36247637533E+03  0.36274641881E+03  0.00000000000E+00 0. -1.
        -12    1    6    6    0    0 -0.13527117755E+01 -0.27646505286E+02  0.41097914916E+02  0.49549951504E+02  0.00000000000E+00 0.  1.
         -5    1    5    5    0  501  0.89013133206E+02  0.66972526066E+02  0.44689794216E+03  0.46059582916E+03  0.47000000000E+01 0.  1.
<mgrwt>
<rscale>  2 0.19646000E+03</rscale>
<asrwt>0</asrwt>
<pdfrwt beam="1">  1        1 0.30126535E+00 0.19646000E+03</pdfrwt>
<pdfrwt beam="2">  1       -1 0.30769523E-02 0.19646000E+03</pdfrwt>
<totfact> 0.13112330E+03</totfact>
</mgrwt>
</event>
<event>
12    1  0.5759937E-002  0.1828790E+03  0.7546771E-02  0.1165045E+00
          2   -1    0    0  503    0  0.00000000000E+00  0.00000000000E+00  0.28311095625E+04  0.28311095625E+04  0.00000000000E+00 0. -1.
         -2   -1    0    0    0  501 -0.00000000000E+00 -0.00000000000E+00 -0.11969044794E+02  0.11969044794E+02  0.00000000000E+00 0.  1.
          6    2    1    2  503    0  0.62325394023E+02  0.31265925326E+01  0.12484357513E+04  0.12617788390E+04  0.17204587469E+03 0.  0.
         24    2    3    3    0    0  0.94456859951E+02  0.31869779493E+02  0.72032128252E+03  0.73188678954E+03  0.82811481198E+02 0.  0.
         -6    2    1    2    0  501 -0.62325394023E+02 -0.31265925326E+01  0.15707047664E+04  0.15812997683E+04  0.17175931941E+03 0.  0.
        -24    2    5    5    0    0 -0.45304220887E+02 -0.64222699196E+02  0.12015955987E+04  0.12067518779E+04  0.79000533847E+02 0.  0.
          4    1    4    4  502    0  0.68465139090E+02  0.45437570843E+01  0.63380098400E+03  0.63750435945E+03  0.00000000000E+00 0. -1.
         -3    1    4    4    0  502  0.25991720861E+02  0.27326022408E+02  0.86520298519E+02  0.94382430090E+02  0.00000000000E+00 0.  1.
          5    1    3    3  503    0 -0.32131465928E+02 -0.28743186960E+02  0.52811446879E+03  0.52989204942E+03  0.47000000000E+01 0. -1.
         11    1    6    6    0    0 -0.44911210335E+02 -0.13058852235E+02  0.86761743857E+03  0.86887718933E+03  0.00000000000E+00 0. -1.
        -12    1    6    6    0    0 -0.39301055171E+00 -0.51163846961E+02  0.33397816018E+03  0.33787468856E+03  0.00000000000E+00 0.  1.
         -5    1    5    5    0  501 -0.17021173136E+02  0.61096106664E+02  0.36910916761E+03  0.37454789040E+03  0.47000000000E+01 0.  1.
<mgrwt>
<rscale>  2 0.18287897E+03</rscale>
<asrwt>0</asrwt>
<pdfrwt beam="1">  1        2 0.43555478E+00 0.18287897E+03</pdfrwt>
<pdfrwt beam="2">  1       -2 0.18413938E-02 0.18287897E+03</pdfrwt>
<totfact> 0.23072949E+03</totfact>
</mgrwt>
</event>
<event>
12    1  0.5759937E-002  0.2276382E+03  0.7546771E-02  0.1128313E+00
          2   -1    0    0  503    0  0.00000000000E+00  0.00000000000E+00  0.36420269620E+04  0.36420269620E+04  0.00000000000E+00 0. -1.
         -2   -1    0    0    0  501 -0.00000000000E+00 -0.00000000000E+00 -0.54245828559E+02  0.54245828559E+02  0.00000000000E+00 0.  1.
          6    2    1    2  503    0 -0.78072598146E+02  0.12542742950E+03  0.33830928626E+04  0.33908028923E+04  0.17435471592E+03 0.  0.
         24    2    3    3    0    0 -0.23019640719E+02  0.53174600824E+02  0.26834781283E+04  0.26853001171E+04  0.80152429154E+02 0.  0.
         -6    2    1    2    0  501  0.78072598146E+02 -0.12542742950E+03  0.20468827086E+03  0.30546989826E+03  0.17200930167E+03 0.  0.
        -24    2    5    5    0    0 -0.25931103092E+02 -0.50428866461E+02  0.94571552326E+02  0.13638608463E+03  0.80261403499E+02 0.  0.
          4    1    4    4  502    0 -0.33171660762E+02  0.59103702750E+02  0.26106119328E+04  0.26114915797E+04  0.00000000000E+00 0. -1.
         -3    1    4    4    0  502  0.10152020043E+02 -0.59291019269E+01  0.72866195427E+02  0.73808537423E+02  0.00000000000E+00 0.  1.
          5    1    3    3  503    0 -0.55052957427E+02  0.72252828675E+02  0.69961473430E+03  0.70550277520E+03  0.47000000000E+01 0. -1.
         13    1    6    6    0    0  0.49531626148E+01 -0.36780658441E+02  0.95655913866E+02  0.10260314085E+03  0.00000000000E+00 0. -1.
        -14    1    6    6    0    0 -0.30884265707E+02 -0.13648208020E+02 -0.10843615400E+01  0.33782943779E+02  0.00000000000E+00 0.  1.
         -5    1    5    5    0  501  0.10400370124E+03 -0.74998563038E+02  0.11011671854E+03  0.16908381363E+03  0.47000000000E+01 0.  1.
<mgrwt>
<rscale>  2 0.22763823E+03</rscale>
<asrwt>0</asrwt>
<pdfrwt beam="1">  1        2 0.56031165E+00 0.22763823E+03</pdfrwt>
<pdfrwt beam="2">  1       -2 0.83455149E-02 0.22763823E+03</pdfrwt>
<totfact> 0.73572056E+01</totfact>
</mgrwt>
</event>
<event>
12    1  0.5759937E-002  0.1907374E+03  0.7546771E-02  0.1157798E+00
          1   -1    0    0  503    0  0.00000000000E+00  0.00000000000E+00  0.31430954993E+04  0.31430954993E+04  0.00000000000E+00 0.  1.
         -1   -1    0    0    0  501 -0.00000000000E+00 -0.00000000000E+00 -0.45078738922E+02  0.45078738922E+02  0.00000000000E+00 0. -1.
          6    2    1    2  503    0 -0.27947702309E+02  0.68614518910E+02  0.29205459304E+04  0.29266833163E+04  0.17434929293E+03 0.  0.
         24    2    3    3    0    0 -0.20190115125E+02 -0.28063093261E+02  0.11100007883E+04  0.11135361787E+04  0.81644922332E+02 0.  0.
         -6    2    1    2    0  501  0.27947702309E+02 -0.68614518910E+02  0.17747082992E+03  0.26149092189E+03  0.17717951486E+03 0.  0.
        -24    2    5    5    0    0  0.18192795060E+02 -0.10917622197E+03  0.17112826579E+03  0.21903237634E+03  0.80248821160E+02 0.  0.
          2    1    4    4  502    0 -0.49109355242E+02 -0.13156777208E+02  0.47746069911E+03  0.48015991998E+03  0.00000000000E+00 0. -1.
         -1    1    4    4    0  502  0.28919240116E+02 -0.14906316053E+02  0.63254008919E+03  0.63337625875E+03  0.00000000000E+00 0.  1.
          5    1    3    3  503    0 -0.77575871838E+01  0.96677612172E+02  0.18105451421E+04  0.18131471376E+04  0.47000000000E+01 0. -1.
         13    1    6    6    0    0 -0.73619637669E+01 -0.56470321823E+02  0.26143345443E+02  0.62662351283E+02  0.00000000000E+00 0. -1.
        -14    1    6    6    0    0  0.25554758827E+02 -0.52705900146E+02  0.14498492034E+03  0.15637002505E+03  0.00000000000E+00 0.  1.
         -5    1    5    5    0  501  0.97549072494E+01  0.40561703058E+02  0.63425641372E+01  0.42458545551E+02  0.47000000000E+01 0.  1.
<mgrwt>
<rscale>  2 0.19073739E+03</rscale>
<asrwt>0</asrwt>
<pdfrwt beam="1">  1        1 0.48355298E+00 0.19073739E+03</pdfrwt>
<pdfrwt beam="2">  1       -1 0.69351931E-02 0.19073739E+03</pdfrwt>
<totfact> 0.63593151E+01</totfact>
</mgrwt>
</event>
<event>
12    1  0.5759937E-002  0.1770545E+03  0.7546771E-02  0.1170684E+00
         -2   -1    0    0    0  501 -0.00000000000E+00  0.00000000000E+00  0.51421962280E+02  0.51421962280E+02  0.00000000000E+00 0. -1.
          2   -1    0    0  503    0  0.00000000000E+00 -0.00000000000E+00 -0.71449500967E+03  0.71449500967E+03  0.00000000000E+00 0.  1.
          6    2    1    2  503    0 -0.20184449549E+02 -0.44831004543E+02 -0.18852538692E+03  0.26019839514E+03  0.17246493078E+03 0.  0.
         24    2    3    3    0    0  0.19904724062E+02 -0.65429547116E+02 -0.55059394864E+02  0.11924910343E+03  0.80694411400E+02 0.  0.
         -6    2    1    2    0  501  0.20184449549E+02  0.44831004543E+02 -0.47454766048E+03  0.50571857682E+03  0.16774553914E+03 0.  0.
        -24    2    5    5    0    0  0.34692151474E+02 -0.23756351059E+01 -0.11808791391E+03  0.14582334044E+03  0.78169701228E+02 0.  0.
          4    1    4    4  502    0 -0.35296510711E+00 -0.80255622559E+02 -0.37312542479E+02  0.88506018796E+02  0.00000000000E+00 0. -1.
         -3    1    4    4    0  502  0.20257689169E+02  0.14826075443E+02 -0.17746852385E+02  0.30743084639E+02  0.00000000000E+00 0.  1.
          5    1    3    3  503    0 -0.40089173611E+02  0.20598542573E+02 -0.13346599205E+03  0.14094929170E+03  0.47000000000E+01 0. -1.
         11    1    6    6    0    0 -0.17563831276E+02 -0.61895779834E+01 -0.77054166184E+02  0.79272590289E+02  0.00000000000E+00 0. -1.
        -12    1    6    6    0    0  0.52255982751E+02  0.38139428775E+01 -0.41033747723E+02  0.66550750152E+02  0.00000000000E+00 0.  1.
         -5    1    5    5    0  501 -0.14507701925E+02  0.47206639649E+02 -0.35645974657E+03  0.35989523638E+03  0.47000000000E+01 0.  1.
<mgrwt>
<rscale>  2 0.17705455E+03</rscale>
<asrwt>0</asrwt>
<pdfrwt beam="2">  1        2 0.10992229E+00 0.17705455E+03</pdfrwt>
<pdfrwt beam="1">  1       -2 0.79110723E-02 0.17705455E+03</pdfrwt>
<totfact> 0.38720376E+03</totfact>
</mgrwt>
</event>
<event>
12    1  0.5759937E-002  0.1952079E+03  0.7546771E-02  0.1153846E+00
          2   -1    0    0  503    0  0.00000000000E+00  0.00000000000E+00  0.90240508843E+03  0.90240508843E+03  0.00000000000E+00 0.  1.
         -2   -1    0    0    0  501 -0.00000000000E+00 -0.00000000000E+00 -0.56310465527E+02  0.56310465527E+02  0.00000000000E+00 0. -1.
          6    2    1    2  503    0 -0.65498686318E+02 -0.65735955639E+02  0.66371947634E+03  0.69199610531E+03  0.17240583724E+03 0.  0.
         24    2    3    3    0    0  0.21386763197E+02 -0.30207093933E+01  0.30709152925E+03  0.31958790710E+03  0.85817857698E+02 0.  0.
         -6    2    1    2    0  501  0.65498686318E+02  0.65735955639E+02  0.18237514656E+03  0.26671944865E+03  0.17107681442E+03 0.  0.
        -24    2    5    5    0    0  0.76770548178E+01 -0.11512848894E+02  0.31745785401E+02  0.87772491942E+02  0.80651922424E+02 0.  0.
          2    1    4    4  502    0 -0.11050406521E+02  0.28341552646E+02  0.49690530055E+02  0.58262370943E+02  0.00000000000E+00 0. -1.
         -1    1    4    4    0  502  0.32437169718E+02 -0.31362262040E+02  0.25740099920E+03  0.26132553615E+03  0.00000000000E+00 0.  1.
          5    1    3    3  503    0 -0.86885449514E+02 -0.62715246245E+02  0.35662794709E+03  0.37240819821E+03  0.47000000000E+01 0. -1.
         13    1    6    6    0    0 -0.25168712470E+02  0.15253980690E+02 -0.71161634624E+01  0.30278503872E+02  0.00000000000E+00 0. -1.
        -14    1    6    6    0    0  0.32845767288E+02 -0.26766829584E+02  0.38861948864E+02  0.57493988070E+02  0.00000000000E+00 0.  1.
         -5    1    5    5    0  501  0.57821631500E+02  0.77248804533E+02  0.15062936116E+03  0.17894695671E+03  0.47000000000E+01 0.  1.
<mgrwt>
<rscale>  2 0.19520793E+03</rscale>
<asrwt>0</asrwt>
<pdfrwt beam="1">  1        2 0.13883154E+00 0.19520793E+03</pdfrwt>
<pdfrwt beam="2">  1       -2 0.86631492E-02 0.19520793E+03</pdfrwt>
<totfact> 0.25081322E+03</totfact>
</mgrwt>
</event>
<event>
12    1  0.5759937E-002  0.1907009E+03  0.7546771E-02  0.1157831E+00
          1   -1    0    0  503    0  0.00000000000E+00  0.00000000000E+00  0.39030993403E+04  0.39030993403E+04  0.00000000000E+00 0.  1.
         -1   -1    0    0    0  501 -0.00000000000E+00 -0.00000000000E+00 -0.11636873740E+02  0.11636873740E+02  0.00000000000E+00 0. -1.
          6    2    1    2  503    0  0.34447720530E+00 -0.80287687629E+02  0.28150945280E+04  0.28215093569E+04  0.17237058448E+03 0.  0.
         24    2    3    3    0    0 -0.60142812669E+02 -0.82044380849E+02  0.19278552029E+04  0.19321964153E+04  0.80055390773E+02 0.  0.
         -6    2    1    2    0  501 -0.34447720530E+00  0.80287687629E+02  0.10763679386E+04  0.10932268571E+04  0.17358222960E+03 0.  0.
        -24    2    5    5    0    0  0.48770288038E+02  0.37127966460E+01  0.67817947847E+03  0.68475150428E+03  0.81024019559E+02 0.  0.
          2    1    4    4  502    0 -0.10395436286E+02 -0.73424378449E+02  0.87725500858E+03  0.88038375412E+03  0.00000000000E+00 0. -1.
         -1    1    4    4    0  502 -0.49747376384E+02 -0.86200024003E+01  0.10506001944E+04  0.10518126612E+04  0.00000000000E+00 0.  1.
          5    1    3    3  503    0  0.60487289875E+02  0.17566932196E+01  0.88723932502E+03  0.88931294158E+03  0.47000000000E+01 0. -1.
         13    1    6    6    0    0  0.52130377773E+02  0.10402252968E+02  0.21372144454E+03  0.22023314693E+03  0.00000000000E+00 0. -1.
        -14    1    6    6    0    0 -0.33600897348E+01 -0.66894563224E+01  0.46445803393E+03  0.46451835735E+03  0.00000000000E+00 0.  1.
         -5    1    5    5    0  501 -0.49114765244E+02  0.76574890983E+02  0.39818846011E+03  0.40847535281E+03  0.47000000000E+01 0.  1.
<mgrwt>
<rscale>  2 0.19070090E+03</rscale>
<asrwt>0</asrwt>
<pdfrwt beam="1">  1        1 0.60047578E+00 0.19070090E+03</pdfrwt>
<pdfrwt beam="2">  1       -1 0.17902914E-02 0.19070090E+03</pdfrwt>
<totfact> 0.12531086E+02</totfact>
</mgrwt>
</event>
<event>
12    1  0.5759937E-002  0.2226980E+03  0.7546771E-02  0.1131887E+00
         -1   -1    0    0    0  501 -0.00000000000E+00  0.00000000000E+00  0.51133744100E+03  0.51133744100E+03  0.00000000000E+00 0. -1.
          1   -1    0    0  503    0  0.00000000000E+00 -0.00000000000E+00 -0.10095397961E+03  0.10095397961E+03  0.00000000000E+00 0.  1.
          6    2    1    2  503    0 -0.13916169814E+03  0.31813301210E+02  0.14653862964E+03  0.26842806882E+03  0.17378720835E+03 0.  0.
         24    2    3    3    0    0 -0.13566348665E+03 -0.29487726569E+02  0.12492576401E+03  0.20316506665E+03  0.79971808578E+02 0.  0.
         -6    2    1    2    0  501  0.13916169814E+03 -0.31813301210E+02  0.26384483174E+03  0.34386335179E+03  0.16807690236E+03 0.  0.
        -24    2    5    5    0    0  0.79776137526E+02 -0.31096287479E+02  0.26197269644E+03  0.28425837038E+03  0.69583879160E+02 0.  0.
          4    1    4    4  502    0 -0.42402375985E+02 -0.48606147501E+02  0.58518212484E+02  0.87091332843E+02  0.00000000000E+00 0. -1.
         -3    1    4    4    0  502 -0.93261110662E+02  0.19118420932E+02  0.66407551526E+02  0.11607373381E+03  0.00000000000E+00 0.  1.
          5    1    3    3  503    0 -0.34982114976E+01  0.61301027779E+02  0.21612865634E+02  0.65263002163E+02  0.47000000000E+01 0. -1.
         13    1    6    6    0    0 -0.55742765858E+01 -0.35898215470E+01  0.90597330175E+02  0.90839614779E+02  0.00000000000E+00 0. -1.
        -14    1    6    6    0    0  0.85350414111E+02 -0.27506465932E+02  0.17137536626E+03  0.19341875560E+03  0.00000000000E+00 0.  1.
         -5    1    5    5    0  501  0.59385560619E+02 -0.71701373103E+00  0.18721353029E+01  0.59604981413E+02  0.47000000000E+01 0.  1.
<mgrwt>
<rscale>  2 0.22269796E+03</rscale>
<asrwt>0</asrwt>
<pdfrwt beam="2">  1        1 0.15531382E-01 0.22269796E+03</pdfrwt>
<pdfrwt beam="1">  1       -1 0.78667297E-01 0.22269796E+03</pdfrwt>
<totfact> 0.60161153E+02</totfact>
</mgrwt>
</event>
<event>
12    1  0.5759937E-002  0.3566971E+03  0.7546771E-02  0.1059899E+00
          2   -1    0    0  503    0  0.00000000000E+00  0.00000000000E+00  0.18817059794E+04  0.18817059794E+04  0.00000000000E+00 0. -1.
         -2   -1    0    0    0  501 -0.00000000000E+00 -0.00000000000E+00 -0.67797136732E+02  0.67797136732E+02  0.00000000000E+00 0.  1.
          6    2    1    2  503    0  0.47670233323E+02 -0.30851809787E+03  0.95848499260E+03  0.10228593026E+04  0.17346989396E+03 0.  0.
         24    2    3    3    0    0 -0.16254601826E+02 -0.11496117464E+03  0.52858457822E+03  0.54705774384E+03  0.79938945491E+02 0.  0.
         -6    2    1    2    0  501 -0.47670233323E+02  0.30851809787E+03  0.85542385011E+03  0.92664381353E+03  0.17164767972E+03 0.  0.
        -24    2    5    5    0    0 -0.22594060979E+02  0.14281082633E+03  0.59077784314E+03  0.61335909755E+03  0.79281138295E+02 0.  0.
          2    1    4    4  502    0 -0.39270086661E+02 -0.10545542968E+03  0.47213082831E+03  0.48535606146E+03  0.00000000000E+00 0. -1.
         -1    1    4    4    0  502  0.23015484835E+02 -0.95057449607E+01  0.56453749917E+02  0.61701682385E+02  0.00000000000E+00 0.  1.
          5    1    3    3  503    0  0.63924835149E+02 -0.19355692323E+03  0.42990041438E+03  0.47580155880E+03  0.47000000000E+01 0. -1.
         11    1    6    6    0    0  0.26270332979E+02  0.41040669806E+02  0.23875369892E+03  0.24367559525E+03  0.00000000000E+00 0. -1.
        -12    1    6    6    0    0 -0.48864393958E+02  0.10177015652E+03  0.35202414422E+03  0.36968350230E+03  0.00000000000E+00 0.  1.
         -5    1    5    5    0  501 -0.25076172344E+02  0.16570727155E+03  0.26464600697E+03  0.31328471598E+03  0.47000000000E+01 0.  1.
<mgrwt>
<rscale>  2 0.35669713E+03</rscale>
<asrwt>0</asrwt>
<pdfrwt beam="1">  1        2 0.28949319E+00 0.35669713E+03</pdfrwt>
<pdfrwt beam="2">  1       -2 0.10430330E-01 0.35669713E+03</pdfrwt>
<totfact> 0.52639371E+02</totfact>
</mgrwt>
</event>
<event>
12    1  0.5759937E-002  0.1749590E+03  0.7546771E-02  0.1172773E+00
         -1   -1    0    0    0  501 -0.00000000000E+00  0.00000000000E+00  0.51468046857E+03  0.51468046857E+03  0.00000000000E+00 0.  1.
          1   -1    0    0  503    0  0.00000000000E+00 -0.00000000000E+00 -0.11256917095E+03  0.11256917095E+03  0.00000000000E+00 0. -1.
          6    2    1    2  503    0  0.26572969418E+02 -0.17817229991E+02 -0.15117678905E+02  0.17431281236E+03  0.17068343783E+03 0.  0.
         24    2    3    3    0    0  0.47775823169E+02  0.25927079362E+02  0.36982489790E+02  0.10290102632E+03  0.79159168403E+02 0.  0.
         -6    2    1    2    0  501 -0.26572969418E+02  0.17817229991E+02  0.41722897653E+03  0.45293682716E+03  0.17334409177E+03 0.  0.
        -24    2    5    5    0    0 -0.41102658147E+02 -0.22146111765E+02  0.10784697912E+03  0.14061089026E+03  0.77204745847E+02 0.  0.
          2    1    4    4  502    0  0.59913451599E+02  0.19605337152E+02 -0.45434350081E+00  0.63041235357E+02  0.00000000000E+00 0. -1.
         -1    1    4    4    0  502 -0.12137628430E+02  0.63217422099E+01  0.37436833290E+02  0.39859790959E+02  0.00000000000E+00 0.  1.
          5    1    3    3  503    0 -0.21202853751E+02 -0.43744309352E+02 -0.52100168694E+02  0.71411786043E+02  0.47000000000E+01 0. -1.
         11    1    6    6    0    0 -0.32676577971E+02  0.25073869287E+02  0.39153269506E+02  0.56828128440E+02  0.00000000000E+00 0. -1.
        -12    1    6    6    0    0 -0.84260801754E+01 -0.47219981052E+02  0.68693709616E+02  0.83782761821E+02  0.00000000000E+00 0.  1.
         -5    1    5    5    0  501  0.14529688728E+02  0.39963341755E+02  0.30938199741E+03  0.31232593690E+03  0.47000000000E+01 0.  1.
<mgrwt>
<rscale>  2 0.17495902E+03</rscale>
<asrwt>0</asrwt>
<pdfrwt beam="2">  1        1 0.17318334E-01 0.17495902E+03</pdfrwt>
<pdfrwt beam="1">  1       -1 0.79181609E-01 0.17495902E+03</pdfrwt>
<totfact> 0.51476569E+02</totfact>
</mgrwt>
</event>
<event>
12    1  0.5759937E-002  0.2035345E+03  0.7546771E-02  0.1146791E+00
          1   -1    0    0  503    0  0.00000000000E+00  0.00000000000E+00  0.17373560883E+03  0.17373560883E+03  0.00000000000E+00 0.  1.
         -1   -1    0    0    0  501 -0.00000000000E+00 -0.00000000000E+00 -0.23885574022E+03  0.23885574022E+03  0.00000000000E+00 0. -1.
          6    2    1    2  503    0  0.83956301762E+02 -0.62967239479E+02 -0.24364455316E+02  0.20645390217E+03  0.17611375070E+03 0.  0.
         24    2    3    3    0    0  0.11568990498E+03 -0.76851376834E+02  0.54698363968E+01  0.16049777304E+03  0.80245422329E+02 0.  0.
         -6    2    1    2    0  501 -0.83956301762E+02  0.62967239479E+02 -0.40755676070E+02  0.20613744687E+03  0.17267914761E+03 0.  0.
        -24    2    5    5    0    0 -0.27735684657E+02 -0.32003985937E+02 -0.11553144670E+02  0.91878227179E+02  0.80713134982E+02 0.  0.
          2    1    4    4  502    0  0.34199287371E+02  0.50367966034E+01 -0.22992801497E+02  0.41516617123E+02  0.00000000000E+00 0. -1.
         -1    1    4    4    0  502  0.81490617608E+02 -0.81888173437E+02  0.28462637894E+02  0.11898115591E+03  0.00000000000E+00 0.  1.
          5    1    3    3  503    0 -0.31733603217E+02  0.13884137355E+02 -0.29834291713E+02  0.45956129137E+02  0.47000000000E+01 0. -1.
         13    1    6    6    0    0  0.23769356889E+02 -0.19957413594E+02  0.12891873442E+02  0.33607753349E+02  0.00000000000E+00 0. -1.
        -14    1    6    6    0    0 -0.51505041547E+02 -0.12046572342E+02 -0.24445018112E+02  0.58270473830E+02  0.00000000000E+00 0.  1.
         -5    1    5    5    0  501 -0.56220617104E+02  0.94971225416E+02 -0.29202531400E+02  0.11425921969E+03  0.47000000000E+01 0.  1.
<mgrwt>
<rscale>  2 0.20353445E+03</rscale>
<asrwt>0</asrwt>
<pdfrwt beam="1">  1        1 0.26728555E-01 0.20353445E+03</pdfrwt>
<pdfrwt beam="2">  1       -1 0.36747037E-01 0.20353445E+03</pdfrwt>
<totfact> 0.12535279E+03</totfact>
</mgrwt>
</event>
<event>
12    1  0.5759937E-002  0.2380244E+03  0.7546771E-02  0.1121116E+00
         -1   -1    0    0    0  501 -0.00000000000E+00  0.00000000000E+00  0.19787463787E+03  0.19787463787E+03  0.00000000000E+00 0. -1.
          1   -1    0    0  503    0  0.00000000000E+00 -0.00000000000E+00 -0.35856145891E+03  0.35856145891E+03  0.00000000000E+00 0.  1.
          6    2    1    2  503    0  0.15849696460E+03 -0.41689142597E+02  0.44532446157E+02  0.24217143761E+03  0.17264007077E+03 0.  0.
         24    2    3    3    0    0  0.71921773499E+02 -0.22489197452E+01 -0.40383629036E+02  0.11456413092E+03  0.79475175099E+02 0.  0.
         -6    2    1    2    0  501 -0.15849696460E+03  0.41689142597E+02 -0.20521926720E+03  0.31426465917E+03  0.17259216661E+03 0.  0.
        -24    2    5    5    0    0 -0.10153024318E+03 -0.12501272388E+01 -0.20727657228E+03  0.24274325854E+03  0.75171530890E+02 0.  0.
          4    1    4    4  502    0  0.21285054668E+02 -0.37136356479E+02 -0.37038096329E+01  0.42963714115E+02  0.00000000000E+00 0. -1.
         -3    1    4    4    0  502  0.50636718832E+02  0.34887436734E+02 -0.36679819403E+02  0.71600416810E+02  0.00000000000E+00 0.  1.
          5    1    3    3  503    0  0.86575191102E+02 -0.39440222852E+02  0.84916075193E+02  0.12760730668E+03  0.47000000000E+01 0. -1.
         13    1    6    6    0    0  0.11543889877E+02 -0.56088686245E+01 -0.16128249952E+02  0.20611677449E+02  0.00000000000E+00 0. -1.
        -14    1    6    6    0    0 -0.11307413306E+03  0.43587413857E+01 -0.19114832232E+03  0.22213158110E+03  0.00000000000E+00 0.  1.
         -5    1    5    5    0  501 -0.56966721422E+02  0.42939269835E+02  0.20573050723E+01  0.71521400627E+02  0.47000000000E+01 0.  1.
<mgrwt>
<rscale>  2 0.23802436E+03</rscale>
<asrwt>0</asrwt>
<pdfrwt beam="2">  1        1 0.55163301E-01 0.23802436E+03</pdfrwt>
<pdfrwt beam="1">  1       -1 0.30442252E-01 0.23802436E+03</pdfrwt>
<totfact> 0.69773812E+02</totfact>
</mgrwt>
</event>
<event>
12    1  0.5759937E-002  0.1820902E+03  0.7546771E-02  0.1165795E+00
          2   -1    0    0  503    0  0.00000000000E+00  0.00000000000E+00  0.66487089096E+03  0.66487089096E+03  0.00000000000E+00 0.  1.
         -2   -1    0    0    0  501 -0.00000000000E+00 -0.00000000000E+00 -0.50085713083E+02  0.50085713083E+02  0.00000000000E+00 0. -1.
          6    2    1    2  503    0  0.46441732851E+02 -0.31650225106E+02  0.33118737239E+03  0.37803493708E+03  0.17339771257E+03 0.  0.
         24    2    3    3    0    0  0.13694684541E+02  0.25280312460E+01  0.31839465382E+03  0.32877779517E+03  0.80782100069E+02 0.  0.
         -6    2    1    2    0  501 -0.46441732851E+02  0.31650225106E+02  0.28359780549E+03  0.33692166696E+03  0.17300266787E+03 0.  0.
        -24    2    5    5    0    0 -0.72800274278E+02  0.21437851612E+02  0.28800049909E+03  0.30792961651E+03  0.78210612001E+02 0.  0.
          2    1    4    4  502    0  0.13486889406E+02  0.34898016232E+02  0.81446166369E+02  0.89628375747E+02  0.00000000000E+00 0. -1.
         -1    1    4    4    0  502  0.20779513449E+00 -0.32369984986E+02  0.23694848745E+03  0.23914941943E+03  0.00000000000E+00 0.  1.
          5    1    3    3  503    0  0.32747048311E+02 -0.34178256352E+02  0.12792718565E+02  0.49257141905E+02  0.47000000000E+01 0. -1.
         13    1    6    6    0    0 -0.46070922402E+02  0.35951781365E+02  0.88044317393E+02  0.10567337555E+03  0.00000000000E+00 0. -1.
        -14    1    6    6    0    0 -0.26729351876E+02 -0.14513929753E+02  0.19995618170E+03  0.20225624096E+03  0.00000000000E+00 0.  1.
         -5    1    5    5    0  501  0.26358541427E+02  0.10212373494E+02 -0.44026936013E+01  0.28992050453E+02  0.47000000000E+01 0.  1.
<mgrwt>
<rscale>  2 0.18209021E+03</rscale>
<asrwt>0</asrwt>
<pdfrwt beam="1">  1        2 0.10228782E+00 0.18209021E+03</pdfrwt>
<pdfrwt beam="2">  1       -2 0.77054948E-02 0.18209021E+03</pdfrwt>
<totfact> 0.44003753E+03</totfact>
</mgrwt>
</event>
<event>
12    1  0.5759937E-002  0.2187391E+03  0.7546771E-02  0.1134827E+00
          2   -1    0    0  503    0  0.00000000000E+00  0.00000000000E+00  0.93972544733E+03  0.93972544733E+03  0.00000000000E+00 0. -1.
         -2   -1    0    0    0  501 -0.00000000000E+00 -0.00000000000E+00 -0.58148575784E+02  0.58148575784E+02  0.00000000000E+00 0.  1.
          6    2    1    2  503    0  0.75944472560E+02 -0.10979804122E+03  0.61505529552E+03  0.65247480218E+03  0.17206736520E+03 0.  0.
         24    2    3    3    0    0  0.35909271147E+02 -0.10063966825E+03  0.59002563789E+03  0.60415020276E+03  0.73820021338E+02 0.  0.
         -6    2    1    2    0  501 -0.75944472560E+02  0.10979804122E+03  0.26652157604E+03  0.34539922094E+03  0.17448122697E+03 0.  0.
        -24    2    5    5    0    0 -0.24985613491E+02 -0.12268699504E+02  0.84937014235E+02  0.12069466471E+03  0.81105510492E+02 0.  0.
          2    1    4    4  502    0  0.56559053075E+02 -0.87937446205E+02  0.44546518286E+03  0.45757092354E+03  0.00000000000E+00 0. -1.
         -1    1    4    4    0  502 -0.20649781928E+02 -0.12702222048E+02  0.14456045503E+03  0.14657927922E+03  0.00000000000E+00 0.  1.
          5    1    3    3  503    0  0.40035201413E+02 -0.91583729678E+01  0.25029657624E+02  0.48324599413E+02  0.47000000000E+01 0. -1.
         11    1    6    6    0    0  0.19553869899E+02  0.89074111343E+01  0.63285784207E+02  0.66834020408E+02  0.00000000000E+00 0. -1.
        -12    1    6    6    0    0 -0.44539483391E+02 -0.21176110639E+02  0.21651230028E+02  0.53860644298E+02  0.00000000000E+00 0.  1.
         -5    1    5    5    0  501 -0.50958859069E+02  0.12206674073E+03  0.18158456180E+03  0.22470455624E+03  0.47000000000E+01 0.  1.
<mgrwt>
<rscale>  2 0.21873908E+03</rscale>
<asrwt>0</asrwt>
<pdfrwt beam="1">  1        2 0.14457314E+00 0.21873908E+03</pdfrwt>
<pdfrwt beam="2">  1       -2 0.89459354E-02 0.21873908E+03</pdfrwt>
<totfact> 0.22619983E+03</totfact>
</mgrwt>
</event>
<event>
12    1  0.5759937E-002  0.3123892E+03  0.7546771E-02  0.1079206E+00
          2   -1    0    0  503    0  0.00000000000E+00  0.00000000000E+00  0.26289189260E+03  0.26289189260E+03  0.00000000000E+00 0. -1.
         -2   -1    0    0    0  501 -0.00000000000E+00 -0.00000000000E+00 -0.37991973013E+03  0.37991973013E+03  0.00000000000E+00 0.  1.
          6    2    1    2  503    0 -0.26004344253E+03  0.55432248737E+01 -0.98559109791E+01  0.31264218181E+03  0.17318970963E+03 0.  0.
         24    2    3    3    0    0 -0.18564905035E+03  0.50536326268E+02  0.39742760453E+02  0.21243727690E+03  0.80812248074E+02 0.  0.
         -6    2    1    2    0  501  0.26004344253E+03 -0.55432248737E+01 -0.10717192655E+03  0.33016944092E+03  0.17283726025E+03 0.  0.
        -24    2    5    5    0    0  0.26403495335E+03  0.24364885746E+02 -0.11246789939E+03  0.29917646482E+03  0.80928514495E+02 0.  0.
          2    1    4    4  502    0 -0.97466292798E+02 -0.24830695485E+01  0.49016357691E+02  0.10912583190E+03  0.00000000000E+00 0. -1.
         -1    1    4    4    0  502 -0.88182757556E+02  0.53019395816E+02 -0.92735972373E+01  0.10331144500E+03  0.00000000000E+00 0.  1.
          5    1    3    3  503    0 -0.74394392179E+02 -0.44993101394E+02 -0.49598671432E+02  0.10020490491E+03  0.47000000000E+01 0. -1.
         11    1    6    6    0    0  0.15046416979E+03 -0.10867596729E+02 -0.28288288374E+02  0.15348549869E+03  0.00000000000E+00 0. -1.
        -12    1    6    6    0    0  0.11357078356E+03  0.35232482474E+02 -0.84179611014E+02  0.14569096613E+03  0.00000000000E+00 0.  1.
         -5    1    5    5    0  501 -0.39915108212E+01 -0.29908110619E+02  0.52959728375E+01  0.30992976103E+02  0.47000000000E+01 0.  1.
<mgrwt>
<rscale>  2 0.31238918E+03</rscale>
<asrwt>0</asrwt>
<pdfrwt beam="1">  1        2 0.40444907E-01 0.31238918E+03</pdfrwt>
<pdfrwt beam="2">  1       -2 0.58449189E-01 0.31238918E+03</pdfrwt>
<totfact> 0.35408674E+02</totfact>
</mgrwt>
</event>
<event>
12    1  0.5759937E-002  0.1836304E+03  0.7546771E-02  0.1164335E+00
         -2   -1    0    0    0  501 -0.00000000000E+00  0.00000000000E+00  0.88097804988E+02  0.88097804988E+02  0.00000000000E+00 0. -1.
          2   -1    0    0  503    0  0.00000000000E+00 -0.00000000000E+00 -0.40090851328E+03  0.40090851328E+03  0.00000000000E+00 0.  1.
          6    2    1    2  503    0  0.48452786765E+02 -0.40487043400E+02 -0.10156664656E+03  0.20660269341E+03  0.16846962932E+03 0.  0.
         24    2    3    3    0    0  0.70090147639E+01 -0.35495162938E+02  0.87951123112E+01  0.88516653045E+02  0.80304489200E+02 0.  0.
         -6    2    1    2    0  501 -0.48452786765E+02  0.40487043400E+02 -0.21124406173E+03  0.28240362486E+03  0.17646778881E+03 0.  0.
        -24    2    5    5    0    0 -0.94531178751E+02  0.69144594537E+01 -0.10631594568E+03  0.16289489656E+03  0.79042479175E+02 0.  0.
          2    1    4    4  502    0  0.19313359533E+02 -0.58429635123E+02  0.10525748781E+02  0.62432519607E+02  0.00000000000E+00 0. -1.
         -1    1    4    4    0  502 -0.12304344769E+02  0.22934472185E+02 -0.17306364701E+01  0.26084133437E+02  0.00000000000E+00 0.  1.
          5    1    3    3  503    0  0.41443772001E+02 -0.49918804618E+01 -0.11036175887E+03  0.11808604037E+03  0.47000000000E+01 0. -1.
         11    1    6    6    0    0 -0.38907858043E+02  0.38802325933E+02 -0.70727548085E+02  0.89564658060E+02  0.00000000000E+00 0. -1.
        -12    1    6    6    0    0 -0.55623320707E+02 -0.31887866479E+02 -0.35588397593E+02  0.73330238499E+02  0.00000000000E+00 0.  1.
         -5    1    5    5    0  501  0.46078391985E+02  0.33572583947E+02 -0.10492811605E+03  0.11950872830E+03  0.47000000000E+01 0.  1.
<mgrwt>
<rscale>  2 0.18363038E+03</rscale>
<asrwt>0</asrwt>
<pdfrwt beam="2">  1        2 0.61678232E-01 0.18363038E+03</pdfrwt>
<pdfrwt beam="1">  1       -2 0.13553509E-01 0.18363038E+03</pdfrwt>
<totfact> 0.31683648E+03</totfact>
</mgrwt>
</event>
<event>
12    1  0.5759937E-002  0.1911210E+03  0.7546771E-02  0.1157454E+00
          2   -1    0    0  503    0  0.00000000000E+00  0.00000000000E+00  0.24941004940E+03  0.24941004940E+03  0.00000000000E+00 0. -1.
         -2   -1    0    0    0  501 -0.00000000000E+00 -0.00000000000E+00 -0.14670274549E+03  0.14670274549E+03  0.00000000000E+00 0.  1.
          6    2    1    2  503    0  0.76753356425E+02 -0.19369467285E+02  0.43489385353E+02  0.19685676018E+03  0.17491427444E+03 0.  0.
         24    2    3    3    0    0  0.97429751501E+02  0.35190230543E+02  0.40251901344E+02  0.13823214723E+03  0.82200986384E+02 0.  0.
         -6    2    1    2    0  501 -0.76753356425E+02  0.19369467285E+02  0.59217918563E+02  0.19925603471E+03  0.17300274999E+03 0.  0.
        -24    2    5    5    0    0 -0.11397392384E+03 -0.12332849936E+02  0.51516112536E+02  0.14953867987E+03  0.81029330635E+02 0.  0.
          2    1    4    4  502    0  0.79054130059E+01  0.26346104327E+01 -0.22612401055E+02  0.24098908863E+02  0.00000000000E+00 0. -1.
         -1    1    4    4    0  502  0.89524338496E+02  0.32555620110E+02  0.62864302399E+02  0.11413323837E+03  0.00000000000E+00 0.  1.
          5    1    3    3  503    0 -0.20676395077E+02 -0.54559697827E+02  0.32374840088E+01  0.58624612946E+02  0.47000000000E+01 0. -1.
         13    1    6    6    0    0 -0.63620397915E+02  0.32804323310E+02  0.16798954426E+02  0.73524713726E+02  0.00000000000E+00 0. -1.
        -14    1    6    6    0    0 -0.50353525929E+02 -0.45137173246E+02  0.34717158109E+02  0.76013966147E+02  0.00000000000E+00 0.  1.
         -5    1    5    5    0  501  0.37220567420E+02  0.31702317221E+02  0.77018060278E+01  0.49717354840E+02  0.47000000000E+01 0.  1.
<mgrwt>
<rscale>  2 0.19112095E+03</rscale>
<asrwt>0</asrwt>
<pdfrwt beam="1">  1        2 0.38370777E-01 0.19112095E+03</pdfrwt>
<pdfrwt beam="2">  1       -2 0.22569653E-01 0.19112095E+03</pdfrwt>
<totfact> 0.22453317E+03</totfact>
</mgrwt>
</event>
<event>
12    1  0.5759937E-002  0.1870089E+03  0.7546771E-02  0.1161187E+00
         -2   -1    0    0    0  501 -0.00000000000E+00  0.00000000000E+00  0.60122508798E+02  0.60122508798E+02  0.00000000000E+00 0. -1.
          2   -1    0    0  503    0  0.00000000000E+00 -0.00000000000E+00 -0.95505723268E+03  0.95505723268E+03  0.00000000000E+00 0.  1.
          6    2    1    2  503    0  0.36040150514E+02 -0.61559977369E+02 -0.76534583390E+03  0.78794474739E+03  0.17324594139E+03 0.  0.
         24    2    3    3    0    0 -0.16904050171E+02 -0.29263605908E+02 -0.19883268367E+03  0.21802775047E+03  0.82822450680E+02 0.  0.
         -6    2    1    2    0  501 -0.36040150514E+02  0.61559977369E+02 -0.12958888998E+03  0.22723499409E+03  0.17249330094E+03 0.  0.
        -24    2    5    5    0    0 -0.69623082713E+02 -0.83447145439E+01 -0.62165998107E+02  0.12436412535E+03  0.81760726793E+02 0.  0.
          2    1    4    4  502    0 -0.26460572298E+02 -0.54512040087E+02 -0.15648052562E+03  0.16780309681E+03  0.00000000000E+00 0. -1.
         -1    1    4    4    0  502  0.95565221269E+01  0.25248434180E+02 -0.42352158048E+02  0.50224653658E+02  0.00000000000E+00 0.  1.
          5    1    3    3  503    0  0.52944200685E+02 -0.32296371462E+02 -0.56651315023E+03  0.56991699692E+03  0.47000000000E+01 0. -1.
         11    1    6    6    0    0 -0.15785734471E+02  0.34848596843E+02 -0.16909048390E+02  0.41827383760E+02  0.00000000000E+00 0. -1.
        -12    1    6    6    0    0 -0.53837348242E+02 -0.43193311387E+02 -0.45256949716E+02  0.82536741588E+02  0.00000000000E+00 0.  1.
         -5    1    5    5    0  501  0.33582932199E+02  0.69904691913E+02 -0.67422891878E+02  0.10287086874E+03  0.47000000000E+01 0.  1.
<mgrwt>
<rscale>  2 0.18700890E+03</rscale>
<asrwt>0</asrwt>
<pdfrwt beam="2">  1        2 0.14693188E+00 0.18700890E+03</pdfrwt>
<pdfrwt beam="1">  1       -2 0.92496170E-02 0.18700890E+03</pdfrwt>
<totfact> 0.20954370E+03</totfact>
</mgrwt>
</event>
<event>
12    1  0.5759937E-002  0.1823312E+03  0.7546771E-02  0.1165566E+00
          2   -1    0    0  503    0  0.00000000000E+00  0.00000000000E+00  0.50512396117E+03  0.50512396117E+03  0.00000000000E+00 0. -1.
         -2   -1    0    0    0  501 -0.00000000000E+00 -0.00000000000E+00 -0.68776655969E+02  0.68776655969E+02  0.00000000000E+00 0.  1.
          6    2    1    2  503    0  0.25230089411E+02 -0.55731240838E+02  0.15861874097E+03  0.24166559620E+03  0.17175513612E+03 0.  0.
         24    2    3    3    0    0  0.49017908347E+02 -0.39414927543E+01  0.27934809606E+02  0.99017714154E+02  0.81276462919E+02 0.  0.
         -6    2    1    2    0  501 -0.25230089411E+02  0.55731240838E+02  0.27772856423E+03  0.33223502093E+03  0.17176852194E+03 0.  0.
        -24    2    5    5    0    0 -0.49179728636E+02  0.40357195433E+02  0.28446942711E+03  0.30261280421E+03  0.81266877512E+02 0.  0.
          4    1    4    4  502    0  0.22480332600E+02  0.38680964283E+02  0.14730852967E+02  0.47101808679E+02  0.00000000000E+00 0. -1.
         -3    1    4    4    0  502  0.26537575747E+02 -0.42622457037E+02  0.13203956639E+02  0.51915905475E+02  0.00000000000E+00 0.  1.
          5    1    3    3  503    0 -0.23787818936E+02 -0.51789748084E+02  0.13068393137E+03  0.14264788205E+03  0.47000000000E+01 0. -1.
         11    1    6    6    0    0 -0.54227430330E+02  0.54391179685E+02  0.27355209449E+03  0.28412983481E+03  0.00000000000E+00 0. -1.
        -12    1    6    6    0    0  0.50477016939E+01 -0.14033984253E+02  0.10917332615E+02  0.18482969400E+02  0.00000000000E+00 0.  1.
         -5    1    5    5    0  501  0.23949639225E+02  0.15374045406E+02 -0.67408628822E+01  0.29622216722E+02  0.47000000000E+01 0.  1.
<mgrwt>
<rscale>  2 0.18233117E+03</rscale>
<asrwt>0</asrwt>
<pdfrwt beam="1">  1        2 0.77711376E-01 0.18233117E+03</pdfrwt>
<pdfrwt beam="2">  1       -2 0.10581024E-01 0.18233117E+03</pdfrwt>
<totfact> 0.36626787E+03</totfact>
</mgrwt>
</event>
<event>
12    1  0.5759937E-002  0.1846798E+03  0.7546771E-02  0.1163349E+00
          1   -1    0    0  503    0  0.00000000000E+00  0.00000000000E+00  0.86954723673E+03  0.86954723673E+03  0.00000000000E+00 0.  1.
         -1   -1    0    0    0  501 -0.00000000000E+00 -0.00000000000E+00 -0.80896902444E+02  0.80896902444E+02  0.00000000000E+00 0. -1.
          6    2    1    2  503    0 -0.27117257612E+01 -0.61248789136E+02  0.73458160759E+03  0.75724807189E+03  0.17336590363E+03 0.  0.
         24    2    3    3    0    0 -0.43397257619E+02  0.19707320507E+02  0.37931312830E+03  0.39057793871E+03  0.80006102597E+02 0.  0.
         -6    2    1    2    0  501  0.27117257612E+01  0.61248789136E+02  0.54068726698E+02  0.19319606729E+03  0.17505006593E+03 0.  0.
        -24    2    5    5    0    0 -0.51855049993E+02  0.26368005342E+02  0.75639905411E+02  0.12477379134E+03  0.80392075480E+02 0.  0.
          4    1    4    4  502    0 -0.85505823135E+01  0.14955165640E+02  0.10675785973E+02  0.20266766969E+02  0.00000000000E+00 0. -1.
         -3    1    4    4    0  502 -0.34846675306E+02  0.47521548665E+01  0.36863734233E+03  0.37031117174E+03  0.00000000000E+00 0.  1.
          5    1    3    3  503    0  0.40685531858E+02 -0.80956109643E+02  0.35526847929E+03  0.36667013318E+03  0.47000000000E+01 0. -1.
         11    1    6    6    0    0 -0.26841894401E+02  0.51378356047E+02  0.25297315381E+02  0.63246951947E+02  0.00000000000E+00 0. -1.
        -12    1    6    6    0    0 -0.25013155592E+02 -0.25010350705E+02  0.50342590030E+02  0.61526839395E+02  0.00000000000E+00 0.  1.
         -5    1    5    5    0  501  0.54566775754E+02  0.34880783795E+02 -0.21571178713E+02  0.68422275944E+02  0.47000000000E+01 0.  1.
<mgrwt>
<rscale>  2 0.18467982E+03</rscale>
<asrwt>0</asrwt>
<pdfrwt beam="1">  1        1 0.13377649E+00 0.18467982E+03</pdfrwt>
<pdfrwt beam="2">  1       -1 0.12445678E-01 0.18467982E+03</pdfrwt>
<totfact> 0.87802879E+02</totfact>
</mgrwt>
</event>
<event>
12    1  0.5759937E-002  0.1841415E+03  0.7546771E-02  0.1163854E+00
          1   -1    0    0  503    0  0.00000000000E+00  0.00000000000E+00  0.55441285609E+03  0.55441285609E+03  0.00000000000E+00 0. -1.
         -1   -1    0    0    0  501 -0.00000000000E+00 -0.00000000000E+00 -0.77886450256E+02  0.77886450256E+02  0.00000000000E+00 0.  1.
          6    2    1    2  503    0  0.36386241107E+02  0.97127223275E+01  0.99030345167E+02  0.21513902111E+03  0.18724180522E+03 0.  0.
         24    2    3    3    0    0  0.53307728194E+02  0.67413555152E+02  0.10025288045E+03  0.15481234851E+03  0.80807932223E+02 0.  0.
         -6    2    1    2    0  501 -0.36386241107E+02 -0.97127223275E+01  0.37749606066E+03  0.41716028523E+03  0.17349677877E+03 0.  0.
        -24    2    5    5    0    0 -0.15421472585E+02  0.55603518526E+02  0.15264802980E+03  0.18203380901E+03  0.80655523872E+02 0.  0.
          2    1    4    4  502    0 -0.14762721657E+02  0.19490550635E+02  0.54700965382E+02  0.59916734962E+02  0.00000000000E+00 0. -1.
         -1    1    4    4    0  502  0.68070449851E+02  0.47923004518E+02  0.45551915069E+02  0.94895613552E+02  0.00000000000E+00 0.  1.
          5    1    3    3  503    0 -0.16921487087E+02 -0.57700832825E+02 -0.12225352836E+01  0.60326672596E+02  0.47000000000E+01 0. -1.
         13    1    6    6    0    0 -0.34179833255E+02  0.17815101473E+01  0.94950600814E+02  0.10093092378E+03  0.00000000000E+00 0. -1.
        -14    1    6    6    0    0  0.18758360670E+02  0.53822008379E+02  0.57697428982E+02  0.81102885227E+02  0.00000000000E+00 0.  1.
         -5    1    5    5    0  501 -0.20964768522E+02 -0.65316240854E+02  0.22484803087E+03  0.23512647623E+03  0.47000000000E+01 0.  1.
<mgrwt>
<rscale>  2 0.18414151E+03</rscale>
<asrwt>0</asrwt>
<pdfrwt beam="1">  1        1 0.85294283E-01 0.18414151E+03</pdfrwt>
<pdfrwt beam="2">  1       -1 0.11982531E-01 0.18414151E+03</pdfrwt>
<totfact> 0.17884347E+03</totfact>
</mgrwt>
</event>
<event>
12    1  0.5759937E-002  0.2349022E+03  0.7546771E-02  0.1123236E+00
          2   -1    0    0  503    0  0.00000000000E+00  0.00000000000E+00  0.33419330292E+03  0.33419330292E+03  0.00000000000E+00 0. -1.
         -2   -1    0    0    0  501 -0.00000000000E+00 -0.00000000000E+00 -0.19661135464E+03  0.19661135464E+03  0.00000000000E+00 0.  1.
          6    2    1    2  503    0  0.48332108714E+02 -0.14952621744E+03 -0.37713559873E+02  0.23679030473E+03  0.17307008228E+03 0.  0.
         24    2    3    3    0    0 -0.30381084682E+00 -0.12808691459E+03 -0.81204402157E+02  0.16795252629E+03  0.72163329786E+02 0.  0.
         -6    2    1    2    0  501 -0.48332108714E+02  0.14952621744E+03  0.17529550815E+03  0.29401435282E+03  0.17613018495E+03 0.  0.
        -24    2    5    5    0    0 -0.80050154316E+01  0.15932072129E+03  0.91359097655E+02  0.20026139145E+03  0.79441599159E+02 0.  0.
          2    1    4    4  502    0  0.22639314600E+02 -0.10284873125E+03 -0.82563452026E+02  0.13381750146E+03  0.00000000000E+00 0. -1.
         -1    1    4    4    0  502 -0.22943125447E+02 -0.25238183341E+02  0.13590498692E+01  0.34135024831E+02  0.00000000000E+00 0.  1.
          5    1    3    3  503    0  0.48635919561E+02 -0.21439302848E+02  0.43490842284E+02  0.68837778441E+02  0.47000000000E+01 0. -1.
         13    1    6    6    0    0  0.44899858776E+01  0.11854339251E+03  0.24772359164E+02  0.12118731642E+03  0.00000000000E+00 0. -1.
        -14    1    6    6    0    0 -0.12495001309E+02  0.40777328782E+02  0.66586738491E+02  0.79074075038E+02  0.00000000000E+00 0.  1.
         -5    1    5    5    0  501 -0.40327093282E+02 -0.97945038520E+01  0.83936410498E+02  0.93752961370E+02  0.47000000000E+01 0.  1.
<mgrwt>
<rscale>  2 0.23490220E+03</rscale>
<asrwt>0</asrwt>
<pdfrwt beam="1">  1        2 0.51414354E-01 0.23490220E+03</pdfrwt>
<pdfrwt beam="2">  1       -2 0.30247901E-01 0.23490220E+03</pdfrwt>
<totfact> 0.97906401E+02</totfact>
</mgrwt>
</event>
<event>
12    1  0.5759937E-002  0.1759086E+03  0.7546771E-02  0.1171823E+00
         -1   -1    0    0    0  501 -0.00000000000E+00  0.00000000000E+00  0.24352649146E+03  0.24352649146E+03  0.00000000000E+00 0.  1.
          1   -1    0    0  503    0  0.00000000000E+00 -0.00000000000E+00 -0.17159221880E+03  0.17159221880E+03  0.00000000000E+00 0. -1.
          6    2    1    2  503    0 -0.86028942062E+01  0.25417948820E+02  0.14178291958E+03  0.22637993573E+03  0.17442877373E+03 0.  0.
         24    2    3    3    0    0 -0.50377697449E+02  0.55292110744E+01  0.22130963994E+02  0.98007911715E+02  0.80915305202E+02 0.  0.
         -6    2    1    2    0  501  0.86028942062E+01 -0.25417948820E+02 -0.69848646910E+02  0.18873877453E+03  0.17327264535E+03 0.  0.
        -24    2    5    5    0    0 -0.60735452403E+02 -0.57437462338E+01 -0.33897534413E+02  0.10805759304E+03  0.82496150058E+02 0.  0.
          2    1    4    4  502    0 -0.56505555059E+02 -0.49763545967E+01 -0.15216744523E+02  0.58729815013E+02  0.00000000000E+00 0. -1.
         -1    1    4    4    0  502  0.61278576104E+01  0.10505565671E+02  0.37347708518E+02  0.39278096701E+02  0.00000000000E+00 0.  1.
          5    1    3    3  503    0  0.41774803242E+02  0.19888737745E+02  0.11965195558E+03  0.12837202401E+03  0.47000000000E+01 0. -1.
         11    1    6    6    0    0 -0.69106171343E+02 -0.25428499059E+02 -0.74050407215E+01  0.74007473340E+02  0.00000000000E+00 0. -1.
        -12    1    6    6    0    0  0.83707189406E+01  0.19684752826E+02 -0.26492493691E+02  0.34050119697E+02  0.00000000000E+00 0.  1.
         -5    1    5    5    0  501  0.69338346609E+02 -0.19674202586E+02 -0.35951112498E+02  0.80681181497E+02  0.47000000000E+01 0.  1.
<mgrwt>
<rscale>  2 0.17590859E+03</rscale>
<asrwt>0</asrwt>
<pdfrwt beam="2">  1        1 0.26398803E-01 0.17590859E+03</pdfrwt>
<pdfrwt beam="1">  1       -1 0.37465614E-01 0.17590859E+03</pdfrwt>
<totfact> 0.12273656E+03</totfact>
</mgrwt>
</event>
<event>
12    1  0.5759937E-002  0.1988155E+03  0.7546771E-02  0.1150742E+00
          1   -1    0    0  503    0  0.00000000000E+00  0.00000000000E+00  0.23719438724E+04  0.23719438724E+04  0.00000000000E+00 0. -1.
         -1   -1    0    0    0  501 -0.00000000000E+00 -0.00000000000E+00 -0.18626548924E+02  0.18626548924E+02  0.00000000000E+00 0.  1.
          6    2    1    2  503    0 -0.95427651942E+02 -0.22742546948E+02  0.15652124590E+04  0.15778039300E+04  0.17306513098E+03 0.  0.
         24    2    3    3    0    0 -0.12835323031E+03 -0.45152860640E+02  0.12464799498E+04  0.12565582012E+04  0.81932381601E+02 0.  0.
         -6    2    1    2    0  501  0.95427651942E+02  0.22742546948E+02  0.78810486452E+03  0.81276649135E+03  0.17279013800E+03 0.  0.
        -24    2    5    5    0    0  0.60386049013E+02 -0.87749164924E+01  0.73102289177E+03  0.73859300519E+03  0.86033045620E+02 0.  0.
          2    1    4    4  502    0 -0.15931931396E+02 -0.43562001448E+02  0.35730231959E+03  0.36030046072E+03  0.00000000000E+00 0. -1.
         -1    1    4    4    0  502 -0.11242129891E+03 -0.15908591927E+01  0.88917763024E+03  0.89625774050E+03  0.00000000000E+00 0.  1.
          5    1    3    3  503    0  0.32925578365E+02  0.22410313693E+02  0.31873250916E+03  0.32124572879E+03  0.47000000000E+01 0. -1.
         13    1    6    6    0    0 -0.15600188668E+02  0.18776036397E+02  0.19139991261E+03  0.19295033551E+03  0.00000000000E+00 0. -1.
        -14    1    6    6    0    0  0.75986237681E+02 -0.27550952890E+02  0.53962297917E+03  0.54564266967E+03  0.00000000000E+00 0.  1.
         -5    1    5    5    0  501  0.35041602929E+02  0.31517463440E+02  0.57081972744E+02  0.74173486165E+02  0.47000000000E+01 0.  1.
<mgrwt>
<rscale>  2 0.19881554E+03</rscale>
<asrwt>0</asrwt>
<pdfrwt beam="1">  1        1 0.36491420E+00 0.19881554E+03</pdfrwt>
<pdfrwt beam="2">  1       -1 0.28656248E-02 0.19881554E+03</pdfrwt>
<totfact> 0.78573168E+02</totfact>
</mgrwt>
</event>
<event>
12    1  0.5759937E-002  0.1952913E+03  0.7546771E-02  0.1153774E+00
         -3   -1    0    0    0  501 -0.00000000000E+00  0.00000000000E+00  0.37671446446E+03  0.37671446446E+03  0.00000000000E+00 0.  1.
          3   -1    0    0  503    0  0.00000000000E+00 -0.00000000000E+00 -0.10129865255E+03  0.10129865255E+03  0.00000000000E+00 0. -1.
          6    2    1    2  503    0  0.70682810188E+02 -0.57531670995E+02  0.14361732677E+03  0.24262085668E+03  0.17301153350E+03 0.  0.
         24    2    3    3    0    0  0.10277332205E+03 -0.71420461914E+02  0.76674446079E+02  0.16694960229E+03  0.79561051524E+02 0.  0.
         -6    2    1    2    0  501 -0.70682810188E+02  0.57531670995E+02  0.13179848514E+03  0.23539226033E+03  0.17243179149E+03 0.  0.
        -24    2    5    5    0    0 -0.44006505818E+02  0.27679794822E+02  0.15993617564E+03  0.18623354439E+03  0.80003807289E+02 0.  0.
          2    1    4    4  502    0  0.11126662887E+03 -0.44664996950E+02  0.66412752347E+02  0.13706158589E+03  0.00000000000E+00 0. -1.
         -1    1    4    4    0  502 -0.84933068220E+01 -0.26755464964E+02  0.10261693732E+02  0.29888016402E+02  0.00000000000E+00 0.  1.
          5    1    3    3  503    0 -0.32090511862E+02  0.13888790919E+02  0.66942880690E+02  0.75671254383E+02  0.47000000000E+01 0. -1.
         11    1    6    6    0    0  0.27266218141E+01  0.41215349633E+02  0.10509548628E+03  0.11292121478E+03  0.00000000000E+00 0. -1.
        -12    1    6    6    0    0 -0.46733127632E+02 -0.13535554811E+02  0.54840689366E+02  0.73312329607E+02  0.00000000000E+00 0.  1.
         -5    1    5    5    0  501 -0.26676304369E+02  0.29851876173E+02 -0.28137690506E+02  0.49158715940E+02  0.47000000000E+01 0.  1.
<mgrwt>
<rscale>  2 0.19529126E+03</rscale>
<asrwt>0</asrwt>
<pdfrwt beam="2">  1        3 0.15584408E-01 0.19529126E+03</pdfrwt>
<pdfrwt beam="1">  1       -3 0.57956071E-01 0.19529126E+03</pdfrwt>
<totfact> 0.25029285E+02</totfact>
</mgrwt>
</event>
<event>
12    1  0.5759937E-002  0.1782875E+03  0.7546771E-02  0.1169471E+00
         -2   -1    0    0    0  501 -0.00000000000E+00  0.00000000000E+00  0.18916771385E+03  0.18916771385E+03  0.00000000000E+00 0.  1.
          2   -1    0    0  503    0  0.00000000000E+00 -0.00000000000E+00 -0.17344525463E+03  0.17344525463E+03  0.00000000000E+00 0. -1.
          6    2    1    2  503    0 -0.37950050800E+02  0.53045954983E+01  0.39912256469E+02  0.18451840300E+03  0.17602757664E+03 0.  0.
         24    2    3    3    0    0 -0.18847342627E+02 -0.38098265419E+02 -0.33505091135E+02  0.96991728635E+02  0.80486670571E+02 0.  0.
         -6    2    1    2    0  501  0.37950050800E+02 -0.53045954983E+01 -0.24189797248E+02  0.17809456549E+03  0.17223293203E+03 0.  0.
        -24    2    5    5    0    0  0.51618297087E+02 -0.59357304389E+02 -0.42336266412E+02  0.11927364542E+03  0.79032302627E+02 0.  0.
          4    1    4    4  502    0 -0.90851727169E+01 -0.59628365570E+02 -0.40123380727E+02  0.72442860413E+02  0.00000000000E+00 0. -1.
         -3    1    4    4    0  502 -0.97621699105E+01  0.21530100151E+02  0.66182895915E+01  0.24548868222E+02  0.00000000000E+00 0.  1.
          5    1    3    3  503    0 -0.19102708173E+02  0.43402860917E+02  0.73417347605E+02  0.87526674361E+02  0.47000000000E+01 0. -1.
         11    1    6    6    0    0  0.38857051267E+02 -0.35774189383E+02  0.15901703604E+02  0.55159108375E+02  0.00000000000E+00 0. -1.
        -12    1    6    6    0    0  0.12761245820E+02 -0.23583115006E+02 -0.58237970016E+02  0.64114537040E+02  0.00000000000E+00 0.  1.
         -5    1    5    5    0  501 -0.13668246287E+02  0.54052708891E+02  0.18146469164E+02  0.58820920072E+02  0.47000000000E+01 0.  1.
<mgrwt>
<rscale>  2 0.17828747E+03</rscale>
<asrwt>0</asrwt>
<pdfrwt beam="2">  1        2 0.26683885E-01 0.17828747E+03</pdfrwt>
<pdfrwt beam="1">  1       -2 0.29102725E-01 0.17828747E+03</pdfrwt>
<totfact> 0.21232494E+03</totfact>
</mgrwt>
</event>
<event>
12    1  0.5759937E-002  0.1988451E+03  0.7546771E-02  0.1150717E+00
          2   -1    0    0  503    0  0.00000000000E+00  0.00000000000E+00  0.13769327776E+04  0.13769327776E+04  0.00000000000E+00 0.  1.
         -2   -1    0    0    0  501 -0.00000000000E+00 -0.00000000000E+00 -0.50919986090E+02  0.50919986090E+02  0.00000000000E+00 0. -1.
          6    2    1    2  503    0 -0.38004562137E+02  0.89288084463E+02  0.11324712367E+04  0.11496159561E+04  0.17236309326E+03 0.  0.
         24    2    3    3    0    0 -0.83512025037E+02  0.72479101132E+02  0.97940553886E+03  0.98897763895E+03  0.81327008770E+02 0.  0.
         -6    2    1    2    0  501  0.38004562137E+02 -0.89288084463E+02  0.19354155484E+03  0.27823680756E+03  0.17475891641E+03 0.  0.
        -24    2    5    5    0    0  0.61710742712E+02 -0.44383252175E+02  0.20204311922E+03  0.22653774029E+03  0.68701069214E+02 0.  0.
          2    1    4    4  502    0 -0.30631453879E+02  0.76508685833E+02  0.51477364406E+03  0.52132884976E+03  0.00000000000E+00 0. -1.
         -1    1    4    4    0  502 -0.52880571158E+02 -0.40295847012E+01  0.46463189481E+03  0.46764878919E+03  0.00000000000E+00 0.  1.
          5    1    3    3  503    0  0.45507462900E+02  0.16808983332E+02  0.15306569782E+03  0.16063831719E+03  0.47000000000E+01 0. -1.
         13    1    6    6    0    0  0.46292815395E+02 -0.23674854136E+02  0.49380546798E+02  0.71707474350E+02  0.00000000000E+00 0. -1.
        -14    1    6    6    0    0  0.15417927317E+02 -0.20708398039E+02  0.15266257242E+03  0.15483026594E+03  0.00000000000E+00 0.  1.
         -5    1    5    5    0  501 -0.23706180575E+02 -0.44904832289E+02 -0.85015643802E+01  0.51699067277E+02  0.47000000000E+01 0.  1.
<mgrwt>
<rscale>  2 0.19884511E+03</rscale>
<asrwt>0</asrwt>
<pdfrwt beam="1">  1        2 0.21183578E+00 0.19884511E+03</pdfrwt>
<pdfrwt beam="2">  1       -2 0.78338451E-02 0.19884511E+03</pdfrwt>
<totfact> 0.15595502E+03</totfact>
</mgrwt>
</event>
<event>
12    1  0.5759937E-002  0.1732869E+03  0.7546771E-02  0.1174463E+00
         -1   -1    0    0    0  501 -0.00000000000E+00  0.00000000000E+00  0.48043933539E+02  0.48043933539E+02  0.00000000000E+00 0.  1.
          1   -1    0    0  503    0  0.00000000000E+00 -0.00000000000E+00 -0.62848287166E+03  0.62848287166E+03  0.00000000000E+00 0. -1.
          6    2    1    2  503    0 -0.72506940651E+01  0.69609375362E+01 -0.31592575633E+03  0.36050396877E+03  0.17335801330E+03 0.  0.
         24    2    3    3    0    0 -0.35650478483E+01 -0.40535560087E+02 -0.79189085601E+02  0.11897582851E+03  0.78920816600E+02 0.  0.
         -6    2    1    2    0  501  0.72506940651E+01 -0.69609375362E+01 -0.26451318180E+03  0.31602283643E+03  0.17263308659E+03 0.  0.
        -24    2    5    5    0    0 -0.46870084158E+02  0.24086512310E+02 -0.21654020981E+03  0.23717805969E+03  0.81159131772E+02 0.  0.
          4    1    4    4  502    0  0.96667440392E+00 -0.64372863373E+02 -0.60530267318E+02  0.88366924014E+02  0.00000000000E+00 0. -1.
         -3    1    4    4    0  502 -0.45317222522E+01  0.23837303286E+02 -0.18658818283E+02  0.30608904492E+02  0.00000000000E+00 0.  1.
          5    1    3    3  503    0 -0.36856462168E+01  0.47496497623E+02 -0.23673667072E+03  0.24152814027E+03  0.47000000000E+01 0. -1.
         13    1    6    6    0    0 -0.27784644488E+02  0.44495792309E+02 -0.19489808125E+03  0.20183439766E+03  0.00000000000E+00 0. -1.
        -14    1    6    6    0    0 -0.19085439670E+02 -0.20409279999E+02 -0.21642128563E+02  0.35343662038E+02  0.00000000000E+00 0.  1.
         -5    1    5    5    0  501  0.54120778224E+02 -0.31047449846E+02 -0.47972971986E+02  0.78844776736E+02  0.47000000000E+01 0.  1.
<mgrwt>
<rscale>  2 0.17328692E+03</rscale>
<asrwt>0</asrwt>
<pdfrwt beam="2">  1        1 0.96689663E-01 0.17328692E+03</pdfrwt>
<pdfrwt beam="1">  1       -1 0.73913752E-02 0.17328692E+03</pdfrwt>
<totfact> 0.31528336E+03</totfact>
</mgrwt>
</event>
<event>
12    1  0.5759937E-002  0.1899824E+03  0.7546771E-02  0.1158477E+00
         -1   -1    0    0    0  501 -0.00000000000E+00  0.00000000000E+00  0.27838772899E+03  0.27838772899E+03  0.00000000000E+00 0. -1.
          1   -1    0    0  503    0  0.00000000000E+00 -0.00000000000E+00 -0.13024463834E+03  0.13024463834E+03  0.00000000000E+00 0.  1.
          6    2    1    2  503    0 -0.64332712903E+02  0.40628867122E+02  0.85415842412E+02  0.20445505822E+03  0.16945973534E+03 0.  0.
         24    2    3    3    0    0 -0.70791004768E+02 -0.49849945679E+01  0.10831403918E+03  0.15279509957E+03  0.81106071544E+02 0.  0.
         -6    2    1    2    0  501  0.64332712903E+02 -0.40628867122E+02  0.62727248239E+02  0.20417730911E+03  0.17878552260E+03 0.  0.
        -24    2    5    5    0    0  0.39824155958E+02  0.12841387686E+02  0.98764163392E+02  0.13503624485E+03  0.82033912607E+02 0.  0.
          4    1    4    4  502    0 -0.39897638640E+02  0.12469414978E+01  0.11398584444E+03  0.12077313097E+03  0.00000000000E+00 0. -1.
         -3    1    4    4    0  502 -0.30893366129E+02 -0.62319360657E+01 -0.56718052581E+01  0.32021968596E+02  0.00000000000E+00 0.  1.
          5    1    3    3  503    0  0.64582918650E+01  0.45613861690E+02 -0.22898196770E+02  0.51659958647E+02  0.47000000000E+01 0. -1.
         11    1    6    6    0    0  0.57820991708E+02  0.16000727723E+02  0.10011469188E+03  0.11671436030E+03  0.00000000000E+00 0. -1.
        -12    1    6    6    0    0 -0.17996835750E+02 -0.31593400377E+01 -0.13505284847E+01  0.18321884555E+02  0.00000000000E+00 0.  1.
         -5    1    5    5    0  501  0.24508556945E+02 -0.53470254808E+02 -0.36036915153E+02  0.69141064256E+02  0.47000000000E+01 0.  1.
<mgrwt>
<rscale>  2 0.18998244E+03</rscale>
<asrwt>0</asrwt>
<pdfrwt beam="2">  1        1 0.20037637E-01 0.18998244E+03</pdfrwt>
<pdfrwt beam="1">  1       -1 0.42828881E-01 0.18998244E+03</pdfrwt>
<totfact> 0.13784899E+03</totfact>
</mgrwt>
</event>
<event>
12    1  0.5759937E-002  0.3363648E+03  0.7546771E-02  0.1068355E+00
         -2   -1    0    0    0  501 -0.00000000000E+00  0.00000000000E+00  0.41904800516E+03  0.41904800516E+03  0.00000000000E+00 0.  1.
          2   -1    0    0  503    0  0.00000000000E+00 -0.00000000000E+00 -0.27004626888E+03  0.27004626888E+03  0.00000000000E+00 0. -1.
          6    2    1    2  503    0  0.28232088058E+03 -0.40149675590E+02  0.77534100447E+02  0.34240080776E+03  0.17294421170E+03 0.  0.
         24    2    3    3    0    0  0.17668896299E+03  0.21574808085E+02  0.96652764966E+02  0.21848298325E+03  0.81906013250E+02 0.  0.
         -6    2    1    2    0  501 -0.28232088058E+03  0.40149675590E+02  0.71467635835E+02  0.34669346628E+03  0.18377067374E+03 0.  0.
        -24    2    5    5    0    0 -0.17596263258E+03  0.10484889217E+02  0.11461554442E+03  0.22805153236E+03  0.88306270587E+02 0.  0.
          2    1    4    4  502    0  0.35005506869E+02  0.32464722164E+02  0.20796610451E+01  0.47787746195E+02  0.00000000000E+00 0. -1.
         -1    1    4    4    0  502  0.14168345612E+03 -0.10889914079E+02  0.94573103921E+02  0.17069523706E+03  0.00000000000E+00 0.  1.
          5    1    3    3  503    0  0.10563191759E+03 -0.61724483674E+02 -0.19118664519E+02  0.12391782451E+03  0.47000000000E+01 0. -1.
         11    1    6    6    0    0 -0.10880533265E+03  0.32150180835E+02  0.29000412197E+02  0.11710362269E+03  0.00000000000E+00 0. -1.
        -12    1    6    6    0    0 -0.67157299931E+02 -0.21665291617E+02  0.85615132221E+02  0.11094790967E+03  0.00000000000E+00 0.  1.
         -5    1    5    5    0  501 -0.10635824800E+03  0.29664786372E+02 -0.43147908583E+02  0.11864193392E+03  0.47000000000E+01 0.  1.
<mgrwt>
<rscale>  2 0.33636480E+03</rscale>
<asrwt>0</asrwt>
<pdfrwt beam="2">  1        2 0.41545580E-01 0.33636480E+03</pdfrwt>
<pdfrwt beam="1">  1       -2 0.64468924E-01 0.33636480E+03</pdfrwt>
<totfact> 0.27985508E+02</totfact>
</mgrwt>
</event>
<event>
12    1  0.5759937E-002  0.4997653E+03  0.7546771E-02  0.1013840E+00
         -1   -1    0    0    0  501 -0.00000000000E+00  0.00000000000E+00  0.83312311987E+03  0.83312311987E+03  0.00000000000E+00 0. -1.
          1   -1    0    0  503    0  0.00000000000E+00 -0.00000000000E+00 -0.34283876168E+03  0.34283876168E+03  0.00000000000E+00 0.  1.
          6    2    1    2  503    0  0.34309770248E+03  0.31999994517E+03  0.36511819449E+02  0.50042504578E+03  0.17022372081E+03 0.  0.
         24    2    3    3    0    0  0.30141432990E+03  0.32855555989E+03  0.19205472456E+02  0.45424819293E+03  0.84694842833E+02 0.  0.
         -6    2    1    2    0  501 -0.34309770248E+03 -0.31999994517E+03  0.45377253875E+03  0.67553683578E+03  0.17413931554E+03 0.  0.
        -24    2    5    5    0    0 -0.20470993666E+03 -0.10146122541E+03  0.20656316714E+03  0.31770320241E+03  0.77887382623E+02 0.  0.
          2    1    4    4  502    0  0.14474106413E+03  0.13540894197E+03  0.47859254173E+02  0.20390209764E+03  0.00000000000E+00 0. -1.
         -1    1    4    4    0  502  0.15667326577E+03  0.19314661791E+03 -0.28653781716E+02  0.25034609529E+03  0.00000000000E+00 0.  1.
          5    1    3    3  503    0  0.41683372577E+02 -0.85556147223E+01  0.17306346992E+02  0.46176852847E+02  0.47000000000E+01 0. -1.
         13    1    6    6    0    0 -0.47450681089E+02 -0.35827174774E+02  0.10114206084E+03  0.11732378301E+03  0.00000000000E+00 0. -1.
        -14    1    6    6    0    0 -0.15725925557E+03 -0.65634050639E+02  0.10542110630E+03  0.20037941940E+03  0.00000000000E+00 0.  1.
         -5    1    5    5    0  501 -0.13838776582E+03 -0.21853871975E+03  0.24720937161E+03  0.35783363337E+03  0.47000000000E+01 0.  1.
<mgrwt>
<rscale>  2 0.49976534E+03</rscale>
<asrwt>0</asrwt>
<pdfrwt beam="2">  1        1 0.52744425E-01 0.49976534E+03</pdfrwt>
<pdfrwt beam="1">  1       -1 0.12817279E+00 0.49976534E+03</pdfrwt>
<totfact> 0.40555321E+01</totfact>
</mgrwt>
</event>
<event>
12    1  0.5759937E-002  0.1735105E+03  0.7546771E-02  0.1174236E+00
         -2   -1    0    0    0  501 -0.00000000000E+00  0.00000000000E+00  0.19751836865E+02  0.19751836865E+02  0.00000000000E+00 0.  1.
          2   -1    0    0  503    0  0.00000000000E+00 -0.00000000000E+00 -0.15595610100E+04  0.15595610100E+04  0.00000000000E+00 0. -1.
          6    2    1    2  503    0 -0.15198305821E+02 -0.33658711724E+02 -0.63358699340E+03  0.65577938429E+03  0.16507642253E+03 0.  0.
         24    2    3    3    0    0 -0.71342860857E+02 -0.32130730133E+02 -0.38907772402E+03  0.40485824409E+03  0.80040832457E+02 0.  0.
         -6    2    1    2    0  501  0.15198305821E+02  0.33658711724E+02 -0.90622217974E+03  0.92353346258E+03  0.17410203929E+03 0.  0.
        -24    2    5    5    0    0  0.32439420667E+02 -0.46085818124E+02 -0.48900959976E+03  0.49839245894E+03  0.78028429627E+02 0.  0.
          4    1    4    4  502    0 -0.43341865466E+02 -0.10169897778E+02 -0.34658668944E+03  0.34943422474E+03  0.00000000000E+00 0. -1.
         -3    1    4    4    0  502 -0.28000995391E+02 -0.21960832355E+02 -0.42491034582E+02  0.55424019346E+02  0.00000000000E+00 0.  1.
          5    1    3    3  503    0  0.56144555036E+02 -0.15279815905E+01 -0.24450926938E+03  0.25092114020E+03  0.47000000000E+01 0. -1.
         13    1    6    6    0    0  0.15189290986E+02 -0.66922842879E+02 -0.37405767005E+03  0.38030056795E+03  0.00000000000E+00 0. -1.
        -14    1    6    6    0    0  0.17250129681E+02  0.20837024756E+02 -0.11495192971E+03  0.11809189099E+03  0.00000000000E+00 0.  1.
         -5    1    5    5    0  501 -0.17241114846E+02  0.79744529847E+02 -0.41721257999E+03  0.42514100364E+03  0.47000000000E+01 0.  1.
<mgrwt>
<rscale>  2 0.17351047E+03</rscale>
<asrwt>0</asrwt>
<pdfrwt beam="2">  1        2 0.23993250E+00 0.17351047E+03</pdfrwt>
<pdfrwt beam="1">  1       -2 0.30387437E-02 0.17351047E+03</pdfrwt>
<totfact> 0.52253724E+03</totfact>
</mgrwt>
</event>
<event>
12    1  0.5759937E-002  0.2021500E+03  0.7546771E-02  0.1147938E+00
          2   -1    0    0  503    0  0.00000000000E+00  0.00000000000E+00  0.33127012845E+04  0.33127012845E+04  0.00000000000E+00 0.  1.
         -2   -1    0    0    0  501 -0.00000000000E+00 -0.00000000000E+00 -0.12847709337E+02  0.12847709337E+02  0.00000000000E+00 0. -1.
          6    2    1    2  503    0  0.82965473092E+02 -0.63286687484E+02  0.13137110735E+04  0.13290896260E+04  0.17249340445E+03 0.  0.
         24    2    3    3    0    0  0.10455452247E+03 -0.91413518361E+02  0.93381239840E+03  0.94751093285E+03  0.80518898163E+02 0.  0.
         -6    2    1    2    0  501 -0.82965473092E+02  0.63286687484E+02  0.19861425016E+04  0.19964593679E+04  0.17378002260E+03 0.  0.
        -24    2    5    5    0    0  0.99664502023E+01 -0.12802635080E+02  0.76889981860E+03  0.77329635062E+03  0.80728416641E+02 0.  0.
          2    1    4    4  502    0  0.48955488953E+02 -0.51258488459E+02  0.23810494343E+03  0.24843115067E+03  0.00000000000E+00 0. -1.
         -1    1    4    4    0  502  0.55599033515E+02 -0.40155029902E+02  0.69570745497E+03  0.69907978219E+03  0.00000000000E+00 0.  1.
          5    1    3    3  503    0 -0.21589049376E+02  0.28126830877E+02  0.37989867513E+03  0.38157869310E+03  0.47000000000E+01 0. -1.
         13    1    6    6    0    0  0.10118290236E+02 -0.79059014099E+01  0.16629487704E+02  0.21010067485E+02  0.00000000000E+00 0. -1.
        -14    1    6    6    0    0 -0.15184003417E+00 -0.48967336703E+01  0.75227033089E+03  0.75228628314E+03  0.00000000000E+00 0.  1.
         -5    1    5    5    0  501 -0.92931923294E+02  0.76089322564E+02  0.12172426830E+04  0.12231630172E+04  0.47000000000E+01 0.  1.
<mgrwt>
<rscale>  2 0.20214995E+03</rscale>
<asrwt>0</asrwt>
<pdfrwt beam="1">  1        2 0.50964567E+00 0.20214995E+03</pdfrwt>
<pdfrwt beam="2">  1       -2 0.19765733E-02 0.20214995E+03</pdfrwt>
<totfact> 0.10711607E+03</totfact>
</mgrwt>
</event>
<event>
12    1  0.5759937E-002  0.1726370E+03  0.7546771E-02  0.1175125E+00
          2   -1    0    0  503    0  0.00000000000E+00  0.00000000000E+00  0.24064837915E+04  0.24064837915E+04  0.00000000000E+00 0. -1.
         -2   -1    0    0    0  501 -0.00000000000E+00 -0.00000000000E+00 -0.12466505110E+02  0.12466505110E+02  0.00000000000E+00 0.  1.
          6    2    1    2  503    0  0.14878158654E+00 -0.20165003369E+02  0.12973713381E+04  0.13088532378E+04  0.17180733369E+03 0.  0.
         24    2    3    3    0    0  0.12373746103E+02  0.24826486543E+02  0.35100683595E+03  0.36132933590E+03  0.81139546874E+02 0.  0.
         -6    2    1    2    0  501 -0.14878158654E+00  0.20165003369E+02  0.10966459484E+04  0.11100970588E+04  0.17110375328E+03 0.  0.
        -24    2    5    5    0    0  0.26833637160E+02  0.19342591924E+02  0.10638960433E+04  0.10673960803E+04  0.79783590796E+02 0.  0.
          4    1    4    4  502    0 -0.31704136329E+02  0.18065367088E+02  0.10129508906E+03  0.10766710183E+03  0.00000000000E+00 0. -1.
         -3    1    4    4    0  502  0.44077882432E+02  0.67611194541E+01  0.24971174690E+03  0.25366223407E+03  0.00000000000E+00 0.  1.
          5    1    3    3  503    0 -0.12224964517E+02 -0.44991489911E+02  0.94636450210E+03  0.94752390195E+03  0.47000000000E+01 0. -1.
         11    1    6    6    0    0  0.40699281890E+02 -0.18552939017E+02  0.65020217240E+03  0.65173883427E+03  0.00000000000E+00 0. -1.
        -12    1    6    6    0    0 -0.13865644730E+02  0.37895530941E+02  0.41369387090E+03  0.41565724604E+03  0.00000000000E+00 0.  1.
         -5    1    5    5    0  501 -0.26982418747E+02  0.82241144427E+00  0.32749905057E+02  0.42700978481E+02  0.47000000000E+01 0.  1.
<mgrwt>
<rscale>  2 0.17263700E+03</rscale>
<asrwt>0</asrwt>
<pdfrwt beam="1">  1        2 0.37022791E+00 0.17263700E+03</pdfrwt>
<pdfrwt beam="2">  1       -2 0.19179258E-02 0.17263700E+03</pdfrwt>
<totfact> 0.37216890E+03</totfact>
</mgrwt>
</event>
<event>
12    1  0.5759937E-002  0.2120706E+03  0.7546771E-02  0.1139937E+00
          1   -1    0    0  503    0  0.00000000000E+00  0.00000000000E+00  0.78236474501E+03  0.78236474501E+03  0.00000000000E+00 0. -1.
         -1   -1    0    0    0  501 -0.00000000000E+00 -0.00000000000E+00 -0.58168252558E+02  0.58168252558E+02  0.00000000000E+00 0.  1.
          6    2    1    2  503    0 -0.12003561748E+03 -0.37172030422E+02  0.40508230727E+03  0.45655859027E+03  0.16900816956E+03 0.  0.
         24    2    3    3    0    0 -0.98332968921E+02  0.36570814942E+02  0.27332632036E+03  0.30394554271E+03  0.81662832757E+02 0.  0.
         -6    2    1    2    0  501  0.12003561748E+03  0.37172030422E+02  0.31911418518E+03  0.38397440729E+03  0.17266201946E+03 0.  0.
        -24    2    5    5    0    0  0.14707167126E+03  0.57181121266E+02  0.24019863891E+03  0.29806128046E+03  0.79027739785E+02 0.  0.
          2    1    4    4  502    0 -0.82942951496E+02  0.60781728734E+02  0.19359229965E+03  0.21920750497E+03  0.00000000000E+00 0. -1.
         -1    1    4    4    0  502 -0.15390017425E+02 -0.24210913792E+02  0.79734020703E+02  0.84738037742E+02  0.00000000000E+00 0.  1.
          5    1    3    3  503    0 -0.21702648558E+02 -0.73742845364E+02  0.13175598691E+03  0.15261304756E+03  0.47000000000E+01 0. -1.
         13    1    6    6    0    0  0.32138646559E+02 -0.12644768386E+02  0.90298361232E+02  0.96677695521E+02  0.00000000000E+00 0. -1.
        -14    1    6    6    0    0  0.11493302470E+03  0.69825889652E+02  0.14990027768E+03  0.20138358494E+03  0.00000000000E+00 0.  1.
         -5    1    5    5    0  501 -0.27036053781E+02 -0.20009090844E+02  0.78915546266E+02  0.85913126837E+02  0.47000000000E+01 0.  1.
<mgrwt>
<rscale>  2 0.21207061E+03</rscale>
<asrwt>0</asrwt>
<pdfrwt beam="1">  1        1 0.12036380E+00 0.21207061E+03</pdfrwt>
<pdfrwt beam="2">  1       -1 0.89489625E-02 0.21207061E+03</pdfrwt>
<totfact> 0.17224980E+03</totfact>
</mgrwt>
</event>
<event>
12    1  0.5759937E-002  0.1948554E+03  0.7546771E-02  0.1154154E+00
         -2   -1    0    0    0  501 -0.00000000000E+00  0.00000000000E+00  0.69265876266E+03  0.69265876266E+03  0.00000000000E+00 0.  1.
          2   -1    0    0  503    0  0.00000000000E+00 -0.00000000000E+00 -0.63533118827E+02  0.63533118827E+02  0.00000000000E+00 0. -1.
          6    2    1    2  503    0 -0.51603340414E+02  0.71781809975E+02  0.45167081014E+03  0.49109626378E+03  0.17132859243E+03 0.  0.
         24    2    3    3    0    0 -0.11025711196E+02  0.72097728378E+02  0.43289541789E+03  0.44613795919E+03  0.79504635464E+02 0.  0.
         -6    2    1    2    0  501  0.51603340414E+02 -0.71781809975E+02  0.17745483369E+03  0.26509561770E+03  0.17598277058E+03 0.  0.
        -24    2    5    5    0    0  0.77591936293E+02 -0.80985991878E+02  0.18952543067E+03  0.23463394684E+03  0.80956535756E+02 0.  0.
          2    1    4    4  502    0  0.15258745558E+02  0.34286999071E+00  0.20908183386E+03  0.20963816477E+03  0.00000000000E+00 0. -1.
         -1    1    4    4    0  502 -0.26284456755E+02  0.71754858388E+02  0.22381358402E+03  0.23649979442E+03  0.00000000000E+00 0.  1.
          5    1    3    3  503    0 -0.40577629218E+02 -0.31591840296E+00  0.18775392255E+02  0.44958304591E+02  0.47000000000E+01 0. -1.
         13    1    6    6    0    0  0.80801644277E+02 -0.28551206108E+02  0.11330831976E+03  0.14206636623E+03  0.00000000000E+00 0. -1.
        -14    1    6    6    0    0 -0.32097079840E+01 -0.52434785769E+02  0.76217110913E+02  0.92567580610E+02  0.00000000000E+00 0.  1.
         -5    1    5    5    0  501 -0.25988595880E+02  0.92041819021E+01 -0.12070596979E+02  0.30461670862E+02  0.47000000000E+01 0.  1.
<mgrwt>
<rscale>  2 0.19485544E+03</rscale>
<asrwt>0</asrwt>
<pdfrwt beam="2">  1        2 0.97743264E-02 0.19485544E+03</pdfrwt>
<pdfrwt beam="1">  1       -2 0.10656288E+00 0.19485544E+03</pdfrwt>
<totfact> 0.48419292E+02</totfact>
</mgrwt>
</event>
<event>
12    1  0.5759937E-002  0.3592975E+03  0.7546771E-02  0.1058862E+00
         -2   -1    0    0    0  501 -0.00000000000E+00  0.00000000000E+00  0.16571566577E+03  0.16571566577E+03  0.00000000000E+00 0. -1.
          2   -1    0    0  503    0  0.00000000000E+00 -0.00000000000E+00 -0.77928992439E+03  0.77928992439E+03  0.00000000000E+00 0.  1.
          6    2    1    2  503    0 -0.47607761809E+02 -0.31295431102E+03 -0.31667359019E+03  0.47996338639E+03  0.17284614481E+03 0.  0.
         24    2    3    3    0    0 -0.87001215117E+02 -0.29210929048E+03 -0.28559638845E+03  0.42542677929E+03  0.80781176206E+02 0.  0.
         -6    2    1    2    0  501  0.47607761809E+02  0.31295431102E+03 -0.29690066842E+03  0.46504220377E+03  0.16705491497E+03 0.  0.
        -24    2    5    5    0    0  0.24142479003E+02  0.15575558151E+03 -0.23536863620E+03  0.29454193678E+03  0.80708717926E+02 0.  0.
          4    1    4    4  502    0 -0.40526293305E+02 -0.20745213788E+03 -0.23614239813E+03  0.31692586224E+03  0.00000000000E+00 0. -1.
         -3    1    4    4    0  502 -0.46474921812E+02 -0.84657152601E+02 -0.49453990318E+02  0.10850091706E+03  0.00000000000E+00 0.  1.
          5    1    3    3  503    0  0.39393453308E+02 -0.20845020540E+02 -0.31077201747E+02  0.54536607093E+02  0.47000000000E+01 0. -1.
         11    1    6    6    0    0 -0.61354728680E+00 -0.77234366517E+01 -0.11354591256E+01  0.78305288079E+01  0.00000000000E+00 0. -1.
        -12    1    6    6    0    0  0.24756026290E+02  0.16347901816E+03 -0.23423317708E+03  0.28671140797E+03  0.00000000000E+00 0.  1.
         -5    1    5    5    0  501  0.23465282806E+02  0.15719872951E+03 -0.61532032212E+02  0.17050026699E+03  0.47000000000E+01 0.  1.
<mgrwt>
<rscale>  2 0.35929753E+03</rscale>
<asrwt>0</asrwt>
<pdfrwt beam="2">  1        2 0.11989076E+00 0.35929753E+03</pdfrwt>
<pdfrwt beam="1">  1       -2 0.25494718E-01 0.35929753E+03</pdfrwt>
<totfact> 0.50370133E+02</totfact>
</mgrwt>
</event>
<event>
12    1  0.5759937E-002  0.2142023E+03  0.7546771E-02  0.1138281E+00
         -1   -1    0    0    0  501 -0.00000000000E+00  0.00000000000E+00  0.81580867238E+02  0.81580867238E+02  0.00000000000E+00 0.  1.
          1   -1    0    0  503    0  0.00000000000E+00 -0.00000000000E+00 -0.58535620442E+03  0.58535620442E+03  0.00000000000E+00 0. -1.
          6    2    1    2  503    0  0.12148009777E+03 -0.51507207652E+02 -0.32164429664E+03  0.38841809250E+03  0.17321418657E+03 0.  0.
         24    2    3    3    0    0  0.83773898232E+01 -0.16274655220E+02 -0.20806507886E+03  0.22423562083E+03  0.81581196007E+02 0.  0.
         -6    2    1    2    0  501 -0.12148009777E+03  0.51507207652E+02 -0.18213104054E+03  0.27851897915E+03  0.16428846347E+03 0.  0.
        -24    2    5    5    0    0 -0.14494754902E+03  0.20331787110E+02 -0.16741823692E+03  0.23655250796E+03  0.80653886672E+02 0.  0.
          2    1    4    4  502    0  0.24466528049E+02 -0.71306070430E+01 -0.20361291991E+03  0.20520155386E+03  0.00000000000E+00 0. -1.
         -1    1    4    4    0  502 -0.16089138226E+02 -0.91440481773E+01 -0.44521589517E+01  0.19034066966E+02  0.00000000000E+00 0.  1.
          5    1    3    3  503    0  0.11310270794E+03 -0.35232552432E+02 -0.11357921778E+03  0.16418247168E+03  0.47000000000E+01 0. -1.
         13    1    6    6    0    0 -0.77886633460E+02  0.43932203531E+02 -0.59809244984E+02  0.10758025825E+03  0.00000000000E+00 0. -1.
        -14    1    6    6    0    0 -0.67060915558E+02 -0.23600416421E+02 -0.10760899193E+03  0.12897224971E+03  0.00000000000E+00 0.  1.
         -5    1    5    5    0  501  0.23467451252E+02  0.31175420542E+02 -0.14712803623E+02  0.41966471197E+02  0.47000000000E+01 0.  1.
<mgrwt>
<rscale>  2 0.21420228E+03</rscale>
<asrwt>0</asrwt>
<pdfrwt beam="2">  1        1 0.90054797E-01 0.21420228E+03</pdfrwt>
<pdfrwt beam="1">  1       -1 0.12550903E-01 0.21420228E+03</pdfrwt>
<totfact> 0.15489297E+03</totfact>
</mgrwt>
</event>
<event>
12    1  0.5759937E-002  0.2070296E+03  0.7546771E-02  0.1143940E+00
          1   -1    0    0  503    0  0.00000000000E+00  0.00000000000E+00  0.33812748212E+03  0.33812748212E+03  0.00000000000E+00 0.  1.
         -1   -1    0    0    0  501 -0.00000000000E+00 -0.00000000000E+00 -0.14949156851E+03  0.14949156851E+03  0.00000000000E+00 0. -1.
          6    2    1    2  503    0  0.10940367291E+03  0.25908304579E+02  0.18962976497E+03  0.28121502692E+03  0.17459106423E+03 0.  0.
         24    2    3    3    0    0  0.14746417900E+03  0.17384013361E+02  0.16084213799E+03  0.23251099082E+03  0.78379075590E+02 0.  0.
         -6    2    1    2    0  501 -0.10940367291E+03 -0.25908304579E+02 -0.99385136817E+00  0.20640402372E+03  0.17309312342E+03 0.  0.
        -24    2    5    5    0    0 -0.39339475402E+01 -0.42111390739E+02 -0.30087171238E+02  0.95702107602E+02  0.80404044383E+02 0.  0.
          4    1    4    4  502    0  0.15197383082E+03  0.26423571129E+02  0.13582131549E+03  0.20552780860E+03  0.00000000000E+00 0. -1.
         -3    1    4    4    0  502 -0.45096518227E+01 -0.90395577677E+01  0.25020822500E+02  0.26983182221E+02  0.00000000000E+00 0.  1.
          5    1    3    3  503    0 -0.38060506092E+02  0.85242912176E+01  0.28787626980E+02  0.48704036094E+02  0.47000000000E+01 0. -1.
         11    1    6    6    0    0 -0.10523382080E+02 -0.60113569667E+02 -0.12083810697E+01  0.61039683922E+02  0.00000000000E+00 0. -1.
        -12    1    6    6    0    0  0.65894345395E+01  0.18002178929E+02 -0.28878790168E+02  0.34662423679E+02  0.00000000000E+00 0.  1.
         -5    1    5    5    0  501 -0.10546972537E+03  0.16203086160E+02  0.29093319870E+02  0.11070191612E+03  0.47000000000E+01 0.  1.
<mgrwt>
<rscale>  2 0.20702958E+03</rscale>
<asrwt>0</asrwt>
<pdfrwt beam="1">  1        1 0.52019612E-01 0.20702958E+03</pdfrwt>
<pdfrwt beam="2">  1       -1 0.22998703E-01 0.20702958E+03</pdfrwt>
<totfact> 0.12006999E+03</totfact>
</mgrwt>
</event>
<event>
12    1  0.5759937E-002  0.1833095E+03  0.7546771E-02  0.1164638E+00
         -1   -1    0    0    0  501 -0.00000000000E+00  0.00000000000E+00  0.18788592629E+03  0.18788592629E+03  0.00000000000E+00 0.  1.
          1   -1    0    0  503    0  0.00000000000E+00 -0.00000000000E+00 -0.18101114748E+03  0.18101114748E+03  0.00000000000E+00 0. -1.
          6    2    1    2  503    0  0.43116309513E+02 -0.42881832357E+02  0.23615859078E+02  0.18478384427E+03  0.17288577909E+03 0.  0.
         24    2    3    3    0    0  0.79969940823E+02 -0.72457437586E+02  0.99993204440E+01  0.13538337171E+03  0.81138149035E+02 0.  0.
         -6    2    1    2    0  501 -0.43116309513E+02  0.42881832357E+02 -0.16741080272E+02  0.18411322949E+03  0.17297268516E+03 0.  0.
        -24    2    5    5    0    0  0.12628370486E+02 -0.92637452960E+01 -0.55779489669E+02  0.98248696505E+02  0.79348359650E+02 0.  0.
          2    1    4    4  502    0  0.95833059133E+02 -0.55735857757E+02  0.14782111601E+02  0.11184351517E+03  0.00000000000E+00 0. -1.
         -1    1    4    4    0  502 -0.15863118310E+02 -0.16721579829E+02 -0.47827911567E+01  0.23539856536E+02  0.00000000000E+00 0.  1.
          5    1    3    3  503    0 -0.36853631310E+02  0.29575605229E+02  0.13616538634E+02  0.49400472566E+02  0.47000000000E+01 0. -1.
         13    1    6    6    0    0 -0.22830609856E+02 -0.17917603207E+02  0.28758260816E+01  0.29164149684E+02  0.00000000000E+00 0. -1.
        -14    1    6    6    0    0  0.35458980342E+02  0.86538579114E+01 -0.58655315751E+02  0.69084546821E+02  0.00000000000E+00 0.  1.
         -5    1    5    5    0  501 -0.55744679999E+02  0.52145577653E+02  0.39038409397E+02  0.85864532988E+02  0.47000000000E+01 0.  1.
<mgrwt>
<rscale>  2 0.18330953E+03</rscale>
<asrwt>0</asrwt>
<pdfrwt beam="2">  1        1 0.27847869E-01 0.18330953E+03</pdfrwt>
<pdfrwt beam="1">  1       -1 0.28905527E-01 0.18330953E+03</pdfrwt>
<totfact> 0.17914310E+03</totfact>
</mgrwt>
</event>
<event>
12    1  0.5759937E-002  0.1985842E+03  0.7546771E-02  0.1150939E+00
          1   -1    0    0  503    0  0.00000000000E+00  0.00000000000E+00  0.88626924813E+03  0.88626924813E+03  0.00000000000E+00 0. -1.
         -1   -1    0    0    0  501 -0.00000000000E+00 -0.00000000000E+00 -0.50287236683E+02  0.50287236683E+02  0.00000000000E+00 0.  1.
          6    2    1    2  503    0  0.63306313104E+02  0.64514548449E+02  0.25048927966E+03  0.31671601096E+03  0.17144776503E+03 0.  0.
         24    2    3    3    0    0  0.71627866100E+02  0.10522080989E+03  0.15062497285E+03  0.20845143809E+03  0.67543686302E+02 0.  0.
         -6    2    1    2    0  501 -0.63306313104E+02 -0.64514548449E+02  0.58549273179E+03  0.61984047385E+03  0.18229278046E+03 0.  0.
        -24    2    5    5    0    0 -0.50203975343E+02  0.17916233029E+02  0.45289354934E+03  0.46308863758E+03  0.80604520168E+02 0.  0.
          2    1    4    4  502    0  0.67714357868E+02  0.62750712132E+02  0.13389634142E+03  0.16263799181E+03  0.00000000000E+00 0. -1.
         -1    1    4    4    0  502  0.39135082314E+01  0.42470097759E+02  0.16728631429E+02  0.45813446278E+02  0.00000000000E+00 0.  1.
          5    1    3    3  503    0 -0.83215529960E+01 -0.40706261442E+02  0.99864306807E+02  0.10826457287E+03  0.47000000000E+01 0. -1.
         11    1    6    6    0    0 -0.49776557541E+00  0.35726980239E+02  0.98439279554E+02  0.10472323833E+03  0.00000000000E+00 0. -1.
        -12    1    6    6    0    0 -0.49706209768E+02 -0.17810747209E+02  0.35445426979E+03  0.35836539924E+03  0.00000000000E+00 0.  1.
         -5    1    5    5    0  501 -0.13102337760E+02 -0.82430781478E+02  0.13259918245E+03  0.15675183627E+03  0.47000000000E+01 0.  1.
<mgrwt>
<rscale>  2 0.19858422E+03</rscale>
<asrwt>0</asrwt>
<pdfrwt beam="1">  1        1 0.13634910E+00 0.19858422E+03</pdfrwt>
<pdfrwt beam="2">  1       -1 0.77364986E-02 0.19858422E+03</pdfrwt>
<totfact> 0.17701430E+03</totfact>
</mgrwt>
</event>
<event>
12    1  0.5759937E-002  0.2284190E+03  0.7546771E-02  0.1127758E+00
         -2   -1    0    0    0  501 -0.00000000000E+00  0.00000000000E+00  0.34666071620E+02  0.34666071620E+02  0.00000000000E+00 0.  1.
          2   -1    0    0  503    0  0.00000000000E+00 -0.00000000000E+00 -0.15567036764E+04  0.15567036764E+04  0.00000000000E+00 0. -1.
          6    2    1    2  503    0 -0.11592335571E+03  0.94765413274E+02 -0.61399246348E+03  0.65487269810E+03  0.17161817373E+03 0.  0.
         24    2    3    3    0    0 -0.24673747917E+02  0.65668362376E+02 -0.19522734683E+03  0.22526887804E+03  0.87813568466E+02 0.  0.
         -6    2    1    2    0  501  0.11592335571E+03 -0.94765413274E+02 -0.90804514133E+03  0.93649704995E+03  0.17338407631E+03 0.  0.
        -24    2    5    5    0    0  0.10089188232E+03 -0.13314741862E+03 -0.78303650565E+03  0.80478382919E+03  0.81384492072E+02 0.  0.
          2    1    4    4  502    0  0.30740993000E+02  0.10777361970E+02 -0.40339413852E+02  0.51850057778E+02  0.00000000000E+00 0. -1.
         -1    1    4    4    0  502 -0.55414740917E+02  0.54891000406E+02 -0.15488793298E+03  0.17341882026E+03  0.00000000000E+00 0.  1.
          5    1    3    3  503    0 -0.91249607794E+02  0.29097050898E+02 -0.41876511665E+03  0.42960382007E+03  0.47000000000E+01 0. -1.
         11    1    6    6    0    0  0.40834879516E+02 -0.83344696204E+02 -0.57801696778E+03  0.58542073829E+03  0.00000000000E+00 0. -1.
        -12    1    6    6    0    0  0.60057002801E+02 -0.49802722419E+02 -0.20501953786E+03  0.21936309090E+03  0.00000000000E+00 0.  1.
         -5    1    5    5    0  501  0.15031473393E+02  0.38382005348E+02 -0.12500863568E+03  0.13171322075E+03  0.47000000000E+01 0.  1.
<mgrwt>
<rscale>  2 0.22841899E+03</rscale>
<asrwt>0</asrwt>
<pdfrwt beam="2">  1        2 0.23949285E+00 0.22841899E+03</pdfrwt>
<pdfrwt beam="1">  1       -2 0.53332423E-02 0.22841899E+03</pdfrwt>
<totfact> 0.22588823E+03</totfact>
</mgrwt>
</event>
<event>
12    1  0.5759937E-002  0.2579924E+03  0.7546771E-02  0.1108355E+00
         -1   -1    0    0    0  501 -0.00000000000E+00  0.00000000000E+00  0.12062164255E+03  0.12062164255E+03  0.00000000000E+00 0.  1.
          1   -1    0    0  503    0  0.00000000000E+00 -0.00000000000E+00 -0.55517101399E+03  0.55517101399E+03  0.00000000000E+00 0. -1.
          6    2    1    2  503    0  0.93350736966E+02  0.15897549028E+03 -0.19717115374E+03  0.32953229705E+03  0.18901720645E+03 0.  0.
         24    2    3    3    0    0  0.88371212713E+01 -0.52245898909E+01 -0.61029646837E+02  0.10005284815E+03  0.78616560462E+02 0.  0.
         -6    2    1    2    0  501 -0.93350736966E+02 -0.15897549028E+03 -0.23737821771E+03  0.34626035948E+03  0.17193095040E+03 0.  0.
        -24    2    5    5    0    0 -0.51616294805E+02 -0.11088162128E+03 -0.24105401773E+03  0.28230423856E+03  0.81422772104E+02 0.  0.
          4    1    4    4  502    0  0.26907670496E+02 -0.25571886665E+02 -0.62617357829E+02  0.72793389952E+02  0.00000000000E+00 0. -1.
         -3    1    4    4    0  502 -0.18070549225E+02  0.20347296774E+02  0.15877109923E+01  0.27259458202E+02  0.00000000000E+00 0.  1.
          5    1    3    3  503    0  0.84513615695E+02  0.16420008017E+03 -0.13614150690E+03  0.22947944890E+03  0.47000000000E+01 0. -1.
         11    1    6    6    0    0  0.39804419463E+01  0.98860559366E+01 -0.39024516722E+02  0.40453565053E+02  0.00000000000E+00 0. -1.
        -12    1    6    6    0    0 -0.55596736751E+02 -0.12076767722E+03 -0.20202950101E+03  0.24185067351E+03  0.00000000000E+00 0.  1.
         -5    1    5    5    0  501 -0.41734442161E+02 -0.48093868999E+02  0.36758000252E+01  0.63956120923E+02  0.47000000000E+01 0.  1.
<mgrwt>
<rscale>  2 0.25799235E+03</rscale>
<asrwt>0</asrwt>
<pdfrwt beam="2">  1        1 0.85410924E-01 0.25799235E+03</pdfrwt>
<pdfrwt beam="1">  1       -1 0.18557176E-01 0.25799235E+03</pdfrwt>
<totfact> 0.89499851E+02</totfact>
</mgrwt>
</event>
<event>
12    1  0.5759937E-002  0.3196199E+03  0.7546771E-02  0.1075824E+00
         -2   -1    0    0    0  501 -0.00000000000E+00  0.00000000000E+00  0.58945101869E+03  0.58945101869E+03  0.00000000000E+00 0.  1.
          2   -1    0    0  503    0  0.00000000000E+00 -0.00000000000E+00 -0.36372721002E+03  0.36372721002E+03  0.00000000000E+00 0. -1.
          6    2    1    2  503    0 -0.18434339928E+03  0.19639729789E+03  0.45781550359E+03  0.55875652480E+03  0.17337655897E+03 0.  0.
         24    2    3    3    0    0 -0.38803541542E+02  0.19926130671E+02  0.12899329931E+03  0.15816938686E+03  0.80470604286E+02 0.  0.
         -6    2    1    2    0  501  0.18434339928E+03 -0.19639729789E+03 -0.23209169492E+03  0.39442170391E+03  0.17072650113E+03 0.  0.
        -24    2    5    5    0    0  0.10142169093E+03 -0.45843809555E+02 -0.14997304068E+03  0.20387531602E+03  0.81763178044E+02 0.  0.
          4    1    4    4  502    0 -0.34187148792E+02 -0.26290515156E+02  0.78471921236E+02  0.89542139533E+02  0.00000000000E+00 0. -1.
         -3    1    4    4    0  502 -0.46163927500E+01  0.46216645828E+02  0.50521378070E+02  0.68627247327E+02  0.00000000000E+00 0.  1.
          5    1    3    3  503    0 -0.14553985774E+03  0.17647116722E+03  0.32882220428E+03  0.40058713794E+03  0.47000000000E+01 0. -1.
         11    1    6    6    0    0  0.88579234731E+02 -0.67143807590E+02 -0.10735516003E+03  0.15453058632E+03  0.00000000000E+00 0. -1.
        -12    1    6    6    0    0  0.12842456195E+02  0.21299998034E+02 -0.42617880654E+02  0.49344729697E+02  0.00000000000E+00 0.  1.
         -5    1    5    5    0  501  0.82921708356E+02 -0.15055348834E+03 -0.82118654238E+02  0.19054638790E+03  0.47000000000E+01 0.  1.
<mgrwt>
<rscale>  2 0.31961986E+03</rscale>
<asrwt>0</asrwt>
<pdfrwt beam="2">  1        2 0.55958033E-01 0.31961986E+03</pdfrwt>
<pdfrwt beam="1">  1       -2 0.90684772E-01 0.31961986E+03</pdfrwt>
<totfact> 0.95642227E+01</totfact>
</mgrwt>
</event>
<event>
12    1  0.5759937E-002  0.1842688E+03  0.7546771E-02  0.1163734E+00
         -3   -1    0    0    0  501 -0.00000000000E+00  0.00000000000E+00  0.83635465504E+03  0.83635465504E+03  0.00000000000E+00 0. -1.
          3   -1    0    0  503    0  0.00000000000E+00 -0.00000000000E+00 -0.42448867547E+02  0.42448867547E+02  0.00000000000E+00 0.  1.
          6    2    1    2  503    0  0.52627844771E+02  0.36669898643E+02  0.30593963830E+03  0.35732662297E+03  0.17311522662E+03 0.  0.
         24    2    3    3    0    0  0.68134052693E+02  0.31126504073E+02  0.31790663783E+03  0.33643473973E+03  0.80700652567E+02 0.  0.
         -6    2    1    2    0  501 -0.52627844771E+02 -0.36669898643E+02  0.48796614919E+03  0.52147689961E+03  0.17237407741E+03 0.  0.
        -24    2    5    5    0    0  0.15545649139E+02 -0.42380184542E+02  0.39599664299E+03  0.40675675008E+03  0.81240170063E+02 0.  0.
          2    1    4    4  502    0  0.76945827257E+02  0.87269592856E+01  0.28698178621E+03  0.29724630488E+03  0.00000000000E+00 0. -1.
         -1    1    4    4    0  502 -0.88117745634E+01  0.22399544787E+02  0.30924851625E+02  0.39188434846E+02  0.00000000000E+00 0.  1.
          5    1    3    3  503    0 -0.15506207922E+02  0.55433945704E+01 -0.11966999535E+02  0.20891883241E+02  0.47000000000E+01 0. -1.
         11    1    6    6    0    0 -0.67273230397E+01 -0.59625944465E+02  0.32274397971E+03  0.32827455974E+03  0.00000000000E+00 0. -1.
        -12    1    6    6    0    0  0.22272972179E+02  0.17245759922E+02  0.73252663275E+02  0.78482190348E+02  0.00000000000E+00 0.  1.
         -5    1    5    5    0  501 -0.68173493910E+02  0.57102858995E+01  0.91969506203E+02  0.11472014953E+03  0.47000000000E+01 0.  1.
<mgrwt>
<rscale>  2 0.18426878E+03</rscale>
<asrwt>0</asrwt>
<pdfrwt beam="2">  1        3 0.65305956E-02 0.18426878E+03</pdfrwt>
<pdfrwt beam="1">  1       -3 0.12866993E+00 0.18426878E+03</pdfrwt>
<totfact> 0.17985118E+02</totfact>
</mgrwt>
</event>
<event>
12    1  0.5759937E-002  0.3393305E+03  0.7546771E-02  0.1067081E+00
         -2   -1    0    0    0  501 -0.00000000000E+00  0.00000000000E+00  0.48707199597E+03  0.48707199597E+03  0.00000000000E+00 0. -1.
          2   -1    0    0  503    0  0.00000000000E+00 -0.00000000000E+00 -0.26507678833E+03  0.26507678833E+03  0.00000000000E+00 0.  1.
          6    2    1    2  503    0  0.19769800562E+03 -0.21503015112E+03 -0.12734216063E+02  0.33942314921E+03  0.17240489159E+03 0.  0.
         24    2    3    3    0    0  0.65956343937E+02 -0.67956221601E+02  0.44223904909E+02  0.13386798943E+03  0.83645666170E+02 0.  0.
         -6    2    1    2    0  501 -0.19769800562E+03  0.21503015112E+03  0.23472942370E+03  0.41272563508E+03  0.17297999937E+03 0.  0.
        -24    2    5    5    0    0 -0.65509339239E+02  0.10683084417E+03  0.42000063076E+02  0.15514529811E+03  0.81251187279E+02 0.  0.
          2    1    4    4  502    0  0.39402794202E+02 -0.85362569041E+02  0.38553057297E+02  0.10161538570E+03  0.00000000000E+00 0. -1.
         -1    1    4    4    0  502  0.26553549735E+02  0.17406347440E+02  0.56708476120E+01  0.32252603730E+02  0.00000000000E+00 0.  1.
          5    1    3    3  503    0  0.13174166169E+03 -0.14707392952E+03 -0.56958120973E+02  0.20555515978E+03  0.47000000000E+01 0. -1.
         13    1    6    6    0    0 -0.18399584419E+02  0.92966836392E+02  0.46998912151E+02  0.10578409672E+03  0.00000000000E+00 0. -1.
        -14    1    6    6    0    0 -0.47109754820E+02  0.13864007782E+02 -0.49988490755E+01  0.49361201394E+02  0.00000000000E+00 0.  1.
         -5    1    5    5    0  501 -0.13218866638E+03  0.10819930695E+03  0.19272936063E+03  0.25758033697E+03  0.47000000000E+01 0.  1.
<mgrwt>
<rscale>  2 0.33933050E+03</rscale>
<asrwt>0</asrwt>
<pdfrwt beam="2">  1        2 0.40781044E-01 0.33933050E+03</pdfrwt>
<pdfrwt beam="1">  1       -2 0.74934153E-01 0.33933050E+03</pdfrwt>
<totfact> 0.20652640E+02</totfact>
</mgrwt>
</event>
<event>
12    1  0.5759937E-002  0.2165073E+03  0.7546771E-02  0.1136514E+00
          2   -1    0    0  503    0  0.00000000000E+00  0.00000000000E+00  0.75780424168E+03  0.75780424168E+03  0.00000000000E+00 0.  1.
         -2   -1    0    0    0  501 -0.00000000000E+00 -0.00000000000E+00 -0.89825832939E+02  0.89825832939E+02  0.00000000000E+00 0. -1.
          6    2    1    2  503    0  0.77771693685E+02  0.10487733127E+03  0.57037451937E+03  0.61004886497E+03  0.17258283330E+03 0.  0.
         24    2    3    3    0    0  0.88721032297E+02  0.18777310485E+02  0.22719322181E+03  0.25603107644E+03  0.75572105358E+02 0.  0.
         -6    2    1    2    0  501 -0.77771693685E+02 -0.10487733127E+03  0.97603889371E+02  0.23758120965E+03  0.17283119223E+03 0.  0.
        -24    2    5    5    0    0 -0.12133570500E+02 -0.11860872468E+03  0.45728284019E+02  0.15266900316E+03  0.83674939289E+02 0.  0.
          2    1    4    4  502    0  0.98480172642E+02  0.63847749606E+01  0.16866905862E+03  0.19541842566E+03  0.00000000000E+00 0. -1.
         -1    1    4    4    0  502 -0.97591403455E+01  0.12392535525E+02  0.58524163193E+02  0.60612650779E+02  0.00000000000E+00 0.  1.
          5    1    3    3  503    0 -0.10949338612E+02  0.86100020784E+02  0.34318129756E+03  0.35401778852E+03  0.47000000000E+01 0. -1.
         13    1    6    6    0    0 -0.38195298892E+02 -0.52096926339E+02 -0.53969009907E+01  0.64823584688E+02  0.00000000000E+00 0. -1.
        -14    1    6    6    0    0  0.26061728392E+02 -0.66511798338E+02  0.51125185010E+02  0.87845418476E+02  0.00000000000E+00 0.  1.
         -5    1    5    5    0  501 -0.65638123184E+02  0.13731393408E+02  0.51875605352E+02  0.84912206488E+02  0.47000000000E+01 0.  1.
<mgrwt>
<rscale>  2 0.21650727E+03</rscale>
<asrwt>0</asrwt>
<pdfrwt beam="1">  1        2 0.11658526E+00 0.21650727E+03</pdfrwt>
<pdfrwt beam="2">  1       -2 0.13819359E-01 0.21650727E+03</pdfrwt>
<totfact> 0.14885316E+03</totfact>
</mgrwt>
</event>
<event>
12    1  0.5759937E-002  0.2004733E+03  0.7546771E-02  0.1149340E+00
         -2   -1    0    0    0  501 -0.00000000000E+00  0.00000000000E+00  0.53394776815E+02  0.53394776815E+02  0.00000000000E+00 0.  1.
          2   -1    0    0  503    0  0.00000000000E+00 -0.00000000000E+00 -0.76602706276E+03  0.76602706276E+03  0.00000000000E+00 0. -1.
          6    2    1    2  503    0 -0.19500220128E+01  0.99106484404E+02 -0.40872174239E+03  0.45483077444E+03  0.17318104065E+03 0.  0.
         24    2    3    3    0    0 -0.65528218758E+01  0.12560603466E+03 -0.22764411403E+03  0.27170620094E+03  0.78629520894E+02 0.  0.
         -6    2    1    2    0  501  0.19500220128E+01 -0.99106484404E+02 -0.30391054355E+03  0.36459106513E+03  0.17532577807E+03 0.  0.
        -24    2    5    5    0    0  0.95621931998E+01  0.17646054699E+01 -0.21420734201E+03  0.22930737694E+03  0.81256005188E+02 0.  0.
          4    1    4    4  502    0 -0.58522620733E+01  0.35862327508E+02 -0.14574937131E+03  0.15021063458E+03  0.00000000000E+00 0. -1.
         -3    1    4    4    0  502 -0.70055980250E+00  0.89743707149E+02 -0.81894742726E+02  0.12149556635E+03  0.00000000000E+00 0.  1.
          5    1    3    3  503    0  0.46027998630E+01 -0.26499550253E+02 -0.18107762836E+03  0.18312457350E+03  0.47000000000E+01 0. -1.
         11    1    6    6    0    0 -0.66754222334E+00 -0.37058970784E+02 -0.14125525307E+03  0.14603718515E+03  0.00000000000E+00 0. -1.
        -12    1    6    6    0    0  0.10229735423E+02  0.38823576254E+02 -0.72952088939E+02  0.83270191789E+02  0.00000000000E+00 0.  1.
         -5    1    5    5    0  501 -0.76121711870E+01 -0.10087108987E+03 -0.89703201545E+02  0.13528368819E+03  0.47000000000E+01 0.  1.
<mgrwt>
<rscale>  2 0.20047334E+03</rscale>
<asrwt>0</asrwt>
<pdfrwt beam="2">  1        2 0.11785032E+00 0.20047334E+03</pdfrwt>
<pdfrwt beam="1">  1       -2 0.82145809E-02 0.20047334E+03</pdfrwt>
<totfact> 0.33657077E+03</totfact>
</mgrwt>
</event>
<event>
12    1  0.5759937E-002  0.2405450E+03  0.7546771E-02  0.1119430E+00
          2   -1    0    0  503    0  0.00000000000E+00  0.00000000000E+00  0.27521094714E+03  0.27521094714E+03  0.00000000000E+00 0. -1.
         -2   -1    0    0    0  501 -0.00000000000E+00 -0.00000000000E+00 -0.26477239780E+03  0.26477239780E+03  0.00000000000E+00 0.  1.
          6    2    1    2  503    0  0.11484003952E+03  0.12091303365E+03 -0.11730202163E+03  0.26772254162E+03  0.17351483691E+03 0.  0.
         24    2    3    3    0    0 -0.34056767279E+01  0.41430738150E+02 -0.78088769512E+02  0.11987378833E+03  0.80893538101E+02 0.  0.
         -6    2    1    2    0  501 -0.11484003952E+03 -0.12091303365E+03  0.12774057097E+03  0.27226080332E+03  0.17320535549E+03 0.  0.
        -24    2    5    5    0    0 -0.13338711590E+03 -0.44657169161E+02  0.87165877533E+02  0.18378851015E+03  0.79962121110E+02 0.  0.
          4    1    4    4  502    0  0.14242553666E+02  0.42832881792E+02 -0.88492051285E+02  0.99339565321E+02  0.00000000000E+00 0. -1.
         -3    1    4    4    0  502 -0.17648230394E+02 -0.14021436420E+01  0.10403281773E+02  0.20534223006E+02  0.00000000000E+00 0.  1.
          5    1    3    3  503    0  0.11824571624E+03  0.79482295499E+02 -0.39213252120E+02  0.14784875329E+03  0.47000000000E+01 0. -1.
         11    1    6    6    0    0 -0.53118190178E+01 -0.28464826252E+02  0.32690090364E+02  0.43670399160E+02  0.00000000000E+00 0. -1.
        -12    1    6    6    0    0 -0.12807529688E+03 -0.16192342909E+02  0.54475787169E+02  0.14011811099E+03  0.00000000000E+00 0.  1.
         -5    1    5    5    0  501  0.18547076384E+02 -0.76255864488E+02  0.40574693440E+02  0.88472293171E+02  0.47000000000E+01 0.  1.
<mgrwt>
<rscale>  2 0.24054504E+03</rscale>
<asrwt>0</asrwt>
<pdfrwt beam="1">  1        2 0.42340146E-01 0.24054504E+03</pdfrwt>
<pdfrwt beam="2">  1       -2 0.40734215E-01 0.24054504E+03</pdfrwt>
<totfact> 0.69231410E+02</totfact>
</mgrwt>
</event>
<event>
12    1  0.5759937E-002  0.1912650E+03  0.7546771E-02  0.1157325E+00
         -1   -1    0    0    0  501 -0.00000000000E+00  0.00000000000E+00  0.13803516681E+03  0.13803516681E+03  0.00000000000E+00 0. -1.
          1   -1    0    0  503    0  0.00000000000E+00 -0.00000000000E+00 -0.30623581816E+03  0.30623581816E+03  0.00000000000E+00 0.  1.
          6    2    1    2  503    0 -0.32627560138E+02 -0.53991577675E+02 -0.23726550863E+00  0.18401203743E+03  0.17286042197E+03 0.  0.
         24    2    3    3    0    0  0.51917480985E+01 -0.27692901786E+02 -0.65104212486E+02  0.10431428816E+03  0.76479155149E+02 0.  0.
         -6    2    1    2    0  501  0.32627560138E+02  0.53991577675E+02 -0.16796338584E+03  0.26025894754E+03  0.18852950074E+03 0.  0.
        -24    2    5    5    0    0  0.42453919323E+02  0.95359745978E+02 -0.60197052623E+02  0.14431260107E+03  0.79414263601E+02 0.  0.
          2    1    4    4  502    0  0.42251209266E+01  0.26658474010E+02 -0.18634122745E+02  0.32798725796E+02  0.00000000000E+00 0. -1.
         -1    1    4    4    0  502  0.96662717192E+00 -0.54351375796E+02 -0.46470089742E+02  0.71515562359E+02  0.00000000000E+00 0.  1.
          5    1    3    3  503    0 -0.37819308236E+02 -0.26298675889E+02  0.64866946978E+02  0.79697749273E+02  0.47000000000E+01 0. -1.
         13    1    6    6    0    0  0.24587591847E+02  0.71871530792E+02 -0.78781284046E+02  0.10943745852E+03  0.00000000000E+00 0. -1.
        -14    1    6    6    0    0  0.17866327476E+02  0.23488215187E+02  0.18584231423E+02  0.34875142548E+02  0.00000000000E+00 0.  1.
         -5    1    5    5    0  501 -0.98263591851E+01 -0.41368168303E+02 -0.10776633322E+03  0.11594634647E+03  0.47000000000E+01 0.  1.
<mgrwt>
<rscale>  2 0.19126498E+03</rscale>
<asrwt>0</asrwt>
<pdfrwt beam="2">  1        1 0.47113202E-01 0.19126498E+03</pdfrwt>
<pdfrwt beam="1">  1       -1 0.21236180E-01 0.19126498E+03</pdfrwt>
<totfact> 0.15473007E+03</totfact>
</mgrwt>
</event>
<event>
12    1  0.5759937E-002  0.1915599E+03  0.7546771E-02  0.1157062E+00
         -2   -1    0    0    0  501 -0.00000000000E+00  0.00000000000E+00  0.89696089150E+02  0.89696089150E+02  0.00000000000E+00 0.  1.
          2   -1    0    0  503    0  0.00000000000E+00 -0.00000000000E+00 -0.80750505425E+03  0.80750505425E+03  0.00000000000E+00 0. -1.
          6    2    1    2  503    0  0.25279461195E+02 -0.83362787849E+02 -0.67137952617E+03  0.69743892867E+03  0.16757740156E+03 0.  0.
         24    2    3    3    0    0 -0.48227784971E+01 -0.20901756416E+02 -0.17013477543E+03  0.19139948809E+03  0.85016349113E+02 0.  0.
         -6    2    1    2    0  501 -0.25279461195E+02  0.83362787849E+02 -0.46429438928E+02  0.19976221472E+03  0.17366877692E+03 0.  0.
        -24    2    5    5    0    0  0.11387808221E+02  0.11796902754E+03 -0.29598149258E+02  0.14640059196E+03  0.80688966113E+02 0.  0.
          4    1    4    4  502    0  0.92804567105E+01 -0.40987336963E+02 -0.36908275805E+02  0.55931292591E+02  0.00000000000E+00 0. -1.
         -3    1    4    4    0  502 -0.14103235208E+02  0.20085580547E+02 -0.13322649962E+03  0.13546819549E+03  0.00000000000E+00 0.  1.
          5    1    3    3  503    0  0.30102239692E+02 -0.62461031433E+02 -0.50124475074E+03  0.50603944059E+03  0.47000000000E+01 0. -1.
         13    1    6    6    0    0  0.45779074790E+02  0.57247296008E+02 -0.10491362619E+02  0.74047587932E+02  0.00000000000E+00 0. -1.
        -14    1    6    6    0    0 -0.34391266570E+02  0.60721731532E+02 -0.19106786638E+02  0.72353004030E+02  0.00000000000E+00 0.  1.
         -5    1    5    5    0  501 -0.36667269416E+02 -0.34606239690E+02 -0.16831289671E+02  0.53361622763E+02  0.47000000000E+01 0.  1.
<mgrwt>
<rscale>  2 0.19155992E+03</rscale>
<asrwt>0</asrwt>
<pdfrwt beam="2">  1        2 0.12423155E+00 0.19155992E+03</pdfrwt>
<pdfrwt beam="1">  1       -2 0.13799398E-01 0.19155992E+03</pdfrwt>
<totfact> 0.13766366E+03</totfact>
</mgrwt>
</event>
<event>
12    1  0.5759937E-002  0.1855192E+03  0.7546771E-02  0.1162566E+00
          2   -1    0    0  503    0  0.00000000000E+00  0.00000000000E+00  0.42517417237E+03  0.42517417237E+03  0.00000000000E+00 0. -1.
         -2   -1    0    0    0  501 -0.00000000000E+00 -0.00000000000E+00 -0.97743362369E+02  0.97743362369E+02  0.00000000000E+00 0.  1.
          6    2    1    2  503    0  0.13474612846E+02  0.60888357200E+02  0.27393974621E+03  0.33232786862E+03  0.17751019822E+03 0.  0.
         24    2    3    3    0    0  0.67828602962E+02  0.75789640404E+02  0.15831068327E+03  0.20360889302E+03  0.77778659713E+02 0.  0.
         -6    2    1    2    0  501 -0.13474612846E+02 -0.60888357200E+02  0.53491063792E+02  0.19058966612E+03  0.17197142115E+03 0.  0.
        -24    2    5    5    0    0 -0.93215947733E+01 -0.98161933607E+02  0.75183718320E+02  0.14700952939E+03  0.78971848734E+02 0.  0.
          2    1    4    4  502    0  0.18719893113E+02  0.49028775053E+02  0.23199311221E+02  0.57379989739E+02  0.00000000000E+00 0. -1.
         -1    1    4    4    0  502  0.49108709849E+02  0.26760865351E+02  0.13511137205E+03  0.14622890328E+03  0.00000000000E+00 0.  1.
          5    1    3    3  503    0 -0.54353990117E+02 -0.14901283204E+02  0.11562906293E+03  0.12871897559E+03  0.47000000000E+01 0. -1.
         11    1    6    6    0    0  0.25395816280E+02 -0.72158689018E+02  0.69331037513E+02  0.10324057656E+03  0.00000000000E+00 0. -1.
        -12    1    6    6    0    0 -0.34717411053E+02 -0.26003244589E+02  0.58526808068E+01  0.43768952832E+02  0.00000000000E+00 0.  1.
         -5    1    5    5    0  501 -0.41530180724E+01  0.37273576406E+02 -0.21692654528E+02  0.43580136733E+02  0.47000000000E+01 0.  1.
<mgrwt>
<rscale>  2 0.18551919E+03</rscale>
<asrwt>0</asrwt>
<pdfrwt beam="1">  1        2 0.65411410E-01 0.18551919E+03</pdfrwt>
<pdfrwt beam="2">  1       -2 0.15037441E-01 0.18551919E+03</pdfrwt>
<totfact> 0.25088965E+03</totfact>
</mgrwt>
</event>
<event>
12    1  0.5759937E-002  0.3054471E+03  0.7546771E-02  0.1082549E+00
          2   -1    0    0  503    0  0.00000000000E+00  0.00000000000E+00  0.71490429593E+03  0.71490429593E+03  0.00000000000E+00 0.  1.
         -2   -1    0    0    0  501 -0.00000000000E+00 -0.00000000000E+00 -0.13114962350E+03  0.13114962350E+03  0.00000000000E+00 0. -1.
          6    2    1    2  503    0 -0.19912579096E+03 -0.15224501160E+03  0.26117983849E+03  0.40104298232E+03  0.17260052564E+03 0.  0.
         24    2    3    3    0    0 -0.21102437703E+03 -0.16777756118E+03  0.22808422865E+03  0.36230997523E+03  0.81027804246E+02 0.  0.
         -6    2    1    2    0  501  0.19912579096E+03  0.15224501160E+03  0.32257483395E+03  0.44501093711E+03  0.17649528739E+03 0.  0.
        -24    2    5    5    0    0  0.17925624315E+03  0.16305078513E+03  0.20997242647E+03  0.33006331495E+03  0.78326322243E+02 0.  0.
          4    1    4    4  502    0 -0.95586129946E+02 -0.45133483262E+02  0.49141854715E+02  0.11657041406E+03  0.00000000000E+00 0. -1.
         -3    1    4    4    0  502 -0.11543824709E+03 -0.12264407791E+03  0.17894237393E+03  0.24573956117E+03  0.00000000000E+00 0.  1.
          5    1    3    3  503    0  0.11898586077E+02  0.15532549574E+02  0.33095609842E+02  0.38733007083E+02  0.47000000000E+01 0. -1.
         11    1    6    6    0    0  0.35195894816E+02  0.75320392667E+02  0.93326778941E+02  0.12498720027E+03  0.00000000000E+00 0. -1.
        -12    1    6    6    0    0  0.14406034834E+03  0.87730392462E+02  0.11664564753E+03  0.20507611468E+03  0.00000000000E+00 0.  1.
         -5    1    5    5    0  501  0.19869547802E+02 -0.10805773527E+02  0.11260240748E+03  0.11494762216E+03  0.47000000000E+01 0.  1.
<mgrwt>
<rscale>  2 0.30544707E+03</rscale>
<asrwt>0</asrwt>
<pdfrwt beam="1">  1        2 0.10998527E+00 0.30544707E+03</pdfrwt>
<pdfrwt beam="2">  1       -2 0.20176865E-01 0.30544707E+03</pdfrwt>
<totfact> 0.84786385E+02</totfact>
</mgrwt>
</event>
<event>
12    1  0.5759937E-002  0.1758637E+03  0.7546771E-02  0.1171867E+00
         -2   -1    0    0    0  501 -0.00000000000E+00  0.00000000000E+00  0.89316900820E+02  0.89316900820E+02  0.00000000000E+00 0. -1.
          2   -1    0    0  503    0  0.00000000000E+00 -0.00000000000E+00 -0.36231234978E+03  0.36231234978E+03  0.00000000000E+00 0.  1.
          6    2    1    2  503    0  0.26803137209E+01  0.23082312105E+02 -0.18276846484E+03  0.25252792724E+03  0.17270224401E+03 0.  0.
         24    2    3    3    0    0 -0.23485252342E+02 -0.27934026571E+02 -0.44287443413E+02  0.10257331093E+03  0.85017877840E+02 0.  0.
         -6    2    1    2    0  501 -0.26803137209E+01 -0.23082312105E+02 -0.90226984121E+02  0.19910132336E+03  0.17595582140E+03 0.  0.
        -24    2    5    5    0    0 -0.67458170076E+02  0.95982427794E+00 -0.35029401402E+02  0.11054028151E+03  0.80253155080E+02 0.  0.
          2    1    4    4  502    0 -0.44319604200E+02 -0.10543704755E+02  0.54824745624E+01  0.45885232415E+02  0.00000000000E+00 0. -1.
         -1    1    4    4    0  502  0.20834351858E+02 -0.17390321817E+02 -0.49769917975E+02  0.56688078513E+02  0.00000000000E+00 0.  1.
          5    1    3    3  503    0  0.26165566063E+02  0.51016338676E+02 -0.13848102143E+03  0.14995461632E+03  0.47000000000E+01 0. -1.
         11    1    6    6    0    0  0.18366714336E+02  0.18645601346E+01 -0.19779830408E+01  0.18566776697E+02  0.00000000000E+00 0. -1.
        -12    1    6    6    0    0 -0.85824884412E+02 -0.90473585664E+00 -0.33051418361E+02  0.91973504809E+02  0.00000000000E+00 0.  1.
         -5    1    5    5    0  501  0.64777856355E+02 -0.24042136383E+02 -0.55197582720E+02  0.88561041852E+02  0.47000000000E+01 0.  1.
<mgrwt>
<rscale>  2 0.17586368E+03</rscale>
<asrwt>0</asrwt>
<pdfrwt beam="2">  1        2 0.55740363E-01 0.17586368E+03</pdfrwt>
<pdfrwt beam="1">  1       -2 0.13741061E-01 0.17586368E+03</pdfrwt>
<totfact> 0.34488366E+03</totfact>
</mgrwt>
</event>
<event>
12    1  0.5759937E-002  0.1800329E+03  0.7546771E-02  0.1167771E+00
         -2   -1    0    0    0  501 -0.00000000000E+00  0.00000000000E+00  0.48121194484E+02  0.48121194484E+02  0.00000000000E+00 0.  1.
          2   -1    0    0  503    0  0.00000000000E+00 -0.00000000000E+00 -0.11710374607E+04  0.11710374607E+04  0.00000000000E+00 0. -1.
          6    2    1    2  503    0 -0.46962812841E+02  0.13923208260E+02 -0.96006828169E+03  0.97693641586E+03  0.17399509652E+03 0.  0.
         24    2    3    3    0    0 -0.64291076730E+02  0.61878623929E+02 -0.50578784040E+03  0.51977911256E+03  0.79916704848E+02 0.  0.
         -6    2    1    2    0  501  0.46962812841E+02 -0.13923208260E+02 -0.16284798455E+03  0.24222223935E+03  0.17248995810E+03 0.  0.
        -24    2    5    5    0    0  0.88805509623E+02  0.21840076045E+02 -0.10489881726E+03  0.16215964029E+03  0.83238089928E+02 0.  0.
          4    1    4    4  502    0 -0.26347592218E+02  0.50312600845E+02 -0.43451843987E+03  0.43821436307E+03  0.00000000000E+00 0. -1.
         -3    1    4    4    0  502 -0.37943484512E+02  0.11566023084E+02 -0.71269400530E+02  0.81564749486E+02  0.00000000000E+00 0.  1.
          5    1    3    3  503    0  0.17328263889E+02 -0.47955415668E+02 -0.45428044129E+03  0.45715730330E+03  0.47000000000E+01 0. -1.
         13    1    6    6    0    0  0.32637302484E+02  0.43200351179E+02 -0.19107322640E+02  0.57415621863E+02  0.00000000000E+00 0. -1.
        -14    1    6    6    0    0  0.56168207139E+02 -0.21360275134E+02 -0.85791494615E+02  0.10474401842E+03  0.00000000000E+00 0.  1.
         -5    1    5    5    0  501 -0.41842696782E+02 -0.35763284306E+02 -0.57949167296E+02  0.80062599062E+02  0.47000000000E+01 0.  1.
<mgrwt>
<rscale>  2 0.18003292E+03</rscale>
<asrwt>0</asrwt>
<pdfrwt beam="2">  1        2 0.18015962E+00 0.18003292E+03</pdfrwt>
<pdfrwt beam="1">  1       -2 0.74032604E-02 0.18003292E+03</pdfrwt>
<totfact> 0.22106441E+03</totfact>
</mgrwt>
</event>
<event>
12    1  0.5759937E-002  0.2278761E+03  0.7546771E-02  0.1128144E+00
          1   -1    0    0  503    0  0.00000000000E+00  0.00000000000E+00  0.13432527300E+03  0.13432527300E+03  0.00000000000E+00 0. -1.
         -1   -1    0    0    0  501 -0.00000000000E+00 -0.00000000000E+00 -0.39578912056E+03  0.39578912056E+03  0.00000000000E+00 0.  1.
          6    2    1    2  503    0  0.55066815573E+02 -0.13811364608E+03 -0.17034391927E+03  0.28338914084E+03  0.17083506930E+03 0.  0.
         24    2    3    3    0    0  0.81014923317E+02 -0.79802282584E+02 -0.16925557472E+03  0.21938293878E+03  0.80929612304E+02 0.  0.
         -6    2    1    2    0  501 -0.55066815573E+02  0.13811364608E+03 -0.91119928280E+02  0.24672525272E+03  0.17453588625E+03 0.  0.
        -24    2    5    5    0    0 -0.82037348369E+02  0.13491515070E+03 -0.11453344442E+03  0.21056003808E+03  0.79280485190E+02 0.  0.
          4    1    4    4  502    0  0.89818809750E+02 -0.46753624637E+02 -0.10089675679E+03  0.14294570834E+03  0.00000000000E+00 0. -1.
         -3    1    4    4    0  502 -0.88038864335E+01 -0.33048657947E+02 -0.68358817937E+02  0.76437230445E+02  0.00000000000E+00 0.  1.
          5    1    3    3  503    0 -0.25948107743E+02 -0.58311363495E+02 -0.10883445484E+01  0.64006202059E+02  0.47000000000E+01 0. -1.
         13    1    6    6    0    0 -0.84141158433E+02  0.69907569169E+02 -0.55244677501E+02  0.12255112061E+03  0.00000000000E+00 0. -1.
        -14    1    6    6    0    0  0.21038100640E+01  0.65007581527E+02 -0.59288766915E+02  0.88008917475E+02  0.00000000000E+00 0.  1.
         -5    1    5    5    0  501  0.26970532795E+02  0.31984953834E+01  0.23413516136E+02  0.36165214638E+02  0.47000000000E+01 0.  1.
<mgrwt>
<rscale>  2 0.22787606E+03</rscale>
<asrwt>0</asrwt>
<pdfrwt beam="1">  1        1 0.20665426E-01 0.22787606E+03</pdfrwt>
<pdfrwt beam="2">  1       -1 0.60890634E-01 0.22787606E+03</pdfrwt>
<totfact> 0.69179635E+02</totfact>
</mgrwt>
</event>
<event>
12    1  0.5759937E-002  0.2863121E+03  0.7546771E-02  0.1092291E+00
          2   -1    0    0  503    0  0.00000000000E+00  0.00000000000E+00  0.12368473140E+04  0.12368473140E+04  0.00000000000E+00 0.  1.
         -2   -1    0    0    0  501 -0.00000000000E+00 -0.00000000000E+00 -0.74805264271E+02  0.74805264271E+02  0.00000000000E+00 0. -1.
          6    2    1    2  503    0 -0.20363821014E+03  0.10292489654E+03  0.35991019812E+03  0.46001519307E+03  0.17325291394E+03 0.  0.
         24    2    3    3    0    0 -0.18845559247E+03  0.10176932128E+03  0.21435296959E+03  0.31358826927E+03  0.80733524439E+02 0.  0.
         -6    2    1    2    0  501  0.20363821014E+03 -0.10292489654E+03  0.80213185163E+03  0.85163738523E+03  0.17265188547E+03 0.  0.
        -24    2    5    5    0    0  0.14466335296E+03 -0.78205188007E+00  0.40000456415E+03  0.43254355345E+03  0.78499535012E+02 0.  0.
          4    1    4    4  502    0 -0.10693105384E+03  0.33415876331E+02  0.62831195029E+02  0.12844699349E+03  0.00000000000E+00 0. -1.
         -3    1    4    4    0  502 -0.81524538626E+02  0.68353444951E+02  0.15152177456E+03  0.18514127579E+03  0.00000000000E+00 0.  1.
          5    1    3    3  503    0 -0.15182617670E+02  0.11555752535E+01  0.14555722853E+03  0.14642692380E+03  0.47000000000E+01 0. -1.
         11    1    6    6    0    0  0.12916905313E+03 -0.29013422846E+02  0.32160138366E+03  0.34778423334E+03  0.00000000000E+00 0. -1.
        -12    1    6    6    0    0  0.15494299826E+02  0.28231370966E+02  0.78403180495E+02  0.84759320110E+02  0.00000000000E+00 0.  1.
         -5    1    5    5    0  501  0.58974857184E+02 -0.10214284466E+03  0.40212728748E+03  0.41909383178E+03  0.47000000000E+01 0.  1.
<mgrwt>
<rscale>  2 0.28631209E+03</rscale>
<asrwt>0</asrwt>
<pdfrwt beam="1">  1        2 0.19028419E+00 0.28631209E+03</pdfrwt>
<pdfrwt beam="2">  1       -2 0.11508503E-01 0.28631209E+03</pdfrwt>
<totfact> 0.10084483E+03</totfact>
</mgrwt>
</event>
<event>
12    1  0.5759937E-002  0.1880644E+03  0.7546771E-02  0.1160219E+00
         -2   -1    0    0    0  501 -0.00000000000E+00  0.00000000000E+00  0.14671567684E+03  0.14671567684E+03  0.00000000000E+00 0.  1.
          2   -1    0    0  503    0  0.00000000000E+00 -0.00000000000E+00 -0.24148676093E+03  0.24148676093E+03  0.00000000000E+00 0. -1.
          6    2    1    2  503    0 -0.32689758865E+02  0.66481089853E+02 -0.39300903185E+02  0.19217524926E+03  0.17291156639E+03 0.  0.
         24    2    3    3    0    0  0.22331406547E+02  0.43077531100E+02  0.32098443607E+02  0.98928201433E+02  0.80013208614E+02 0.  0.
         -6    2    1    2    0  501  0.32689758865E+02 -0.66481089853E+02 -0.55470180909E+02  0.19602718852E+03  0.17280440395E+03 0.  0.
        -24    2    5    5    0    0  0.21758547335E+02  0.31820730446E+02 -0.34815718549E+02  0.94876627099E+02  0.79394249435E+02 0.  0.
          2    1    4    4  502    0  0.46695944346E+02  0.47907218067E+01  0.82460977827E+01  0.47659840143E+02  0.00000000000E+00 0. -1.
         -1    1    4    4    0  502 -0.24364537799E+02  0.38286809294E+02  0.23852345824E+02  0.51268361290E+02  0.00000000000E+00 0.  1.
          5    1    3    3  503    0 -0.55021165412E+02  0.23403558753E+02 -0.71399346792E+02  0.93247047824E+02  0.47000000000E+01 0. -1.
         13    1    6    6    0    0  0.37096892179E+02  0.29449121702E+02 -0.52926204718E+02  0.71025441387E+02  0.00000000000E+00 0. -1.
        -14    1    6    6    0    0 -0.15338344844E+02  0.23716087444E+01  0.18110486169E+02  0.23851185712E+02  0.00000000000E+00 0.  1.
         -5    1    5    5    0  501  0.10931211529E+02 -0.98301820299E+02 -0.20654462360E+02  0.10115056142E+03  0.47000000000E+01 0.  1.
<mgrwt>
<rscale>  2 0.18806445E+03</rscale>
<asrwt>0</asrwt>
<pdfrwt beam="2">  1        2 0.37151809E-01 0.18806445E+03</pdfrwt>
<pdfrwt beam="1">  1       -2 0.22571643E-01 0.18806445E+03</pdfrwt>
<totfact> 0.23231178E+03</totfact>
</mgrwt>
</event>
<event>
12    1  0.5759937E-002  0.2008454E+03  0.7546771E-02  0.1149028E+00
         -2   -1    0    0    0  501 -0.00000000000E+00  0.00000000000E+00  0.25266486605E+03  0.25266486605E+03  0.00000000000E+00 0. -1.
          2   -1    0    0  503    0  0.00000000000E+00 -0.00000000000E+00 -0.28115337338E+03  0.28115337338E+03  0.00000000000E+00 0.  1.
          6    2    1    2  503    0  0.14951690784E+02 -0.92760081063E+02  0.16100458857E+03  0.26041090418E+03  0.18183337367E+03 0.  0.
         24    2    3    3    0    0 -0.20170526993E+02 -0.69965590596E+01  0.10562829562E+02  0.83651845738E+02  0.80188876593E+02 0.  0.
         -6    2    1    2    0  501 -0.14951690784E+02  0.92760081063E+02 -0.18949309590E+03  0.27340733525E+03  0.17325112374E+03 0.  0.
        -24    2    5    5    0    0  0.50211284686E+02  0.60133729337E+02 -0.69485008628E+02  0.13292700492E+03  0.81879079736E+02 0.  0.
          2    1    4    4  502    0 -0.37536386404E+02 -0.70871019999E+01  0.36239026919E+02  0.52654291289E+02  0.00000000000E+00 0. -1.
         -1    1    4    4    0  502  0.17365859411E+02  0.90542940290E-01 -0.25676197358E+02  0.30997554450E+02  0.00000000000E+00 0.  1.
          5    1    3    3  503    0  0.35122217777E+02 -0.85763522003E+02  0.15044175901E+03  0.17675905844E+03  0.47000000000E+01 0. -1.
         13    1    6    6    0    0  0.10198660728E+02 -0.19317406474E+02 -0.25849849328E+02  0.33843604770E+02  0.00000000000E+00 0. -1.
        -14    1    6    6    0    0  0.40012623958E+02  0.79451135811E+02 -0.43635159300E+02  0.99083400147E+02  0.00000000000E+00 0.  1.
         -5    1    5    5    0  501 -0.65162975471E+02  0.32626351726E+02 -0.12000808727E+03  0.14048033033E+03  0.47000000000E+01 0.  1.
<mgrwt>
<rscale>  2 0.20084542E+03</rscale>
<asrwt>0</asrwt>
<pdfrwt beam="2">  1        2 0.43254365E-01 0.20084542E+03</pdfrwt>
<pdfrwt beam="1">  1       -2 0.38871518E-01 0.20084542E+03</pdfrwt>
<totfact> 0.73865820E+02</totfact>
</mgrwt>
</event>
<event>
12    1  0.5759937E-002  0.2055847E+03  0.7546771E-02  0.1145111E+00
         -1   -1    0    0    0  501 -0.00000000000E+00  0.00000000000E+00  0.54070500507E+02  0.54070500507E+02  0.00000000000E+00 0.  1.
          1   -1    0    0  503    0  0.00000000000E+00 -0.00000000000E+00 -0.87537635778E+03  0.87537635778E+03  0.00000000000E+00 0. -1.
          6    2    1    2  503    0  0.17843995109E+02 -0.10751625502E+03 -0.26167209317E+03  0.33382621225E+03  0.17632215513E+03 0.  0.
         24    2    3    3    0    0  0.31164326343E+02 -0.12680026423E+03 -0.12832009882E+03  0.19834872840E+03  0.76332483590E+02 0.  0.
         -6    2    1    2    0  501 -0.17843995109E+02  0.10751625502E+03 -0.55963376411E+03  0.59562064604E+03  0.17232484094E+03 0.  0.
        -24    2    5    5    0    0  0.50639085405E+01 -0.44498296413E+01 -0.15383471281E+03  0.17400928923E+03  0.81047330100E+02 0.  0.
          2    1    4    4  502    0 -0.10730956583E+02 -0.69452260754E+02 -0.99243127587E+02  0.12160579068E+03  0.00000000000E+00 0. -1.
         -1    1    4    4    0  502  0.41895282927E+02 -0.57348003472E+02 -0.29076971236E+02  0.76742937720E+02  0.00000000000E+00 0.  1.
          5    1    3    3  503    0 -0.13320331234E+02  0.19284009210E+02 -0.13335199434E+03  0.13547748385E+03  0.47000000000E+01 0. -1.
         11    1    6    6    0    0 -0.17136043550E+02  0.33060667507E+02 -0.80570304666E+02  0.88759369751E+02  0.00000000000E+00 0. -1.
        -12    1    6    6    0    0  0.22199952090E+02 -0.37510497148E+02 -0.73264408148E+02  0.85249919475E+02  0.00000000000E+00 0.  1.
         -5    1    5    5    0  501 -0.22907903650E+02  0.11196608466E+03 -0.40579905129E+03  0.42161135681E+03  0.47000000000E+01 0.  1.
<mgrwt>
<rscale>  2 0.20558474E+03</rscale>
<asrwt>0</asrwt>
<pdfrwt beam="2">  1        1 0.13467328E+00 0.20558474E+03</pdfrwt>
<pdfrwt beam="1">  1       -1 0.83185388E-02 0.20558474E+03</pdfrwt>
<totfact> 0.16170478E+03</totfact>
</mgrwt>
</event>
<event>
12    1  0.5759937E-002  0.2177449E+03  0.7546771E-02  0.1135576E+00
         -2   -1    0    0    0  501 -0.00000000000E+00  0.00000000000E+00  0.44531758255E+03  0.44531758255E+03  0.00000000000E+00 0. -1.
          2   -1    0    0  503    0  0.00000000000E+00 -0.00000000000E+00 -0.25683237905E+03  0.25683237905E+03  0.00000000000E+00 0.  1.
          6    2    1    2  503    0 -0.12834720767E+03  0.32947066892E+02  0.36274044979E+03  0.42271945546E+03  0.17190866522E+03 0.  0.
         24    2    3    3    0    0 -0.82263223892E+02 -0.41012275241E+02  0.15337882818E+03  0.19589772711E+03  0.80010060785E+02 0.  0.
         -6    2    1    2    0  501  0.12834720767E+03 -0.32947066892E+02 -0.17425524629E+03  0.27943050613E+03  0.17366059416E+03 0.  0.
        -24    2    5    5    0    0  0.93879433707E+02  0.36012792614E+02 -0.94226757593E+02  0.16820938103E+03  0.96464733014E+02 0.  0.
          4    1    4    4  502    0 -0.79650461072E+02 -0.13867430045E+02  0.14719193776E+03  0.16793441608E+03  0.00000000000E+00 0. -1.
         -3    1    4    4    0  502 -0.26127628200E+01 -0.27144845196E+02  0.61868904218E+01  0.27963311023E+02  0.00000000000E+00 0.  1.
          5    1    3    3  503    0 -0.46083983777E+02  0.73959342133E+02  0.20936162161E+03  0.22682172835E+03  0.47000000000E+01 0. -1.
         11    1    6    6    0    0  0.80937641209E+02 -0.52764770685E+01 -0.22045213632E+02  0.84051974509E+02  0.00000000000E+00 0. -1.
        -12    1    6    6    0    0  0.12941792498E+02  0.41289269683E+02 -0.72181543961E+02  0.84157406523E+02  0.00000000000E+00 0.  1.
         -5    1    5    5    0  501  0.34467773962E+02 -0.68959859506E+02 -0.80028488698E+02  0.11122112510E+03  0.47000000000E+01 0.  1.
<mgrwt>
<rscale>  2 0.21774491E+03</rscale>
<asrwt>0</asrwt>
<pdfrwt beam="2">  1        2 0.39512674E-01 0.21774491E+03</pdfrwt>
<pdfrwt beam="1">  1       -2 0.68510397E-01 0.21774491E+03</pdfrwt>
<totfact> 0.26081114E+02</totfact>
</mgrwt>
</event>
<event>
12    1  0.5759937E-002  0.1895249E+03  0.7546771E-02  0.1158891E+00
         -2   -1    0    0    0  501 -0.00000000000E+00  0.00000000000E+00  0.12004435504E+04  0.12004435504E+04  0.00000000000E+00 0. -1.
          2   -1    0    0  503    0  0.00000000000E+00 -0.00000000000E+00 -0.29926537970E+02  0.29926537970E+02  0.00000000000E+00 0.  1.
          6    2    1    2  503    0  0.73700161318E+02 -0.23831849008E+02  0.57646632363E+03  0.60668346776E+03  0.17248691825E+03 0.  0.
         24    2    3    3    0    0 -0.56830629684E+01 -0.52117443403E+02  0.23180858107E+03  0.25184150202E+03  0.83309055732E+02 0.  0.
         -6    2    1    2    0  501 -0.73700161318E+02  0.23831849008E+02  0.59405068883E+03  0.62368662064E+03  0.17346212573E+03 0.  0.
        -24    2    5    5    0    0  0.26452872199E+02  0.29155365019E+02  0.27344875722E+03  0.28773028643E+03  0.80403390140E+02 0.  0.
          2    1    4    4  502    0 -0.32563000359E+02 -0.61781834829E+02  0.16167490630E+03  0.17611393879E+03  0.00000000000E+00 0. -1.
         -1    1    4    4    0  502  0.26879937390E+02  0.96643914256E+01  0.70133674770E+02  0.75727563228E+02  0.00000000000E+00 0.  1.
          5    1    3    3  503    0  0.79383224286E+02  0.28285594395E+02  0.34465774256E+03  0.35484196574E+03  0.47000000000E+01 0. -1.
         11    1    6    6    0    0  0.44983274285E+02 -0.42612403834E+00  0.21496555207E+03  0.21962209616E+03  0.00000000000E+00 0. -1.
        -12    1    6    6    0    0 -0.18530402087E+02  0.29581489058E+02  0.58483205150E+02  0.68108190264E+02  0.00000000000E+00 0.  1.
         -5    1    5    5    0  501 -0.10015303352E+03 -0.53235160112E+01  0.32060193161E+03  0.33595633421E+03  0.47000000000E+01 0.  1.
<mgrwt>
<rscale>  2 0.18952493E+03</rscale>
<asrwt>0</asrwt>
<pdfrwt beam="2">  1        2 0.46040837E-02 0.18952493E+03</pdfrwt>
<pdfrwt beam="1">  1       -2 0.18468359E+00 0.18952493E+03</pdfrwt>
<totfact> 0.31585709E+02</totfact>
</mgrwt>
</event>
<event>
12    1  0.5759937E-002  0.1825736E+03  0.7546771E-02  0.1165335E+00
         -2   -1    0    0    0  501 -0.00000000000E+00  0.00000000000E+00  0.13357538900E+02  0.13357538900E+02  0.00000000000E+00 0. -1.
          2   -1    0    0  503    0  0.00000000000E+00 -0.00000000000E+00 -0.27393534246E+04  0.27393534246E+04  0.00000000000E+00 0.  1.
          6    2    1    2  503    0 -0.52337886169E+02 -0.27553570570E+02 -0.17820547812E+04  0.17915106992E+04  0.17404852372E+03 0.  0.
         24    2    3    3    0    0 -0.33356743721E+02 -0.81886155376E+01 -0.17330447261E+04  0.17353025080E+04  0.81553945605E+02 0.  0.
         -6    2    1    2    0  501  0.52337886169E+02  0.27553570570E+02 -0.94394110447E+03  0.96120026426E+03  0.17141378511E+03 0.  0.
        -24    2    5    5    0    0  0.80364922470E+02  0.45010629785E+02 -0.42642321911E+03  0.44260879176E+03  0.74708119986E+02 0.  0.
          2    1    4    4  502    0 -0.12636843667E+02 -0.42317123649E+02 -0.11759007784E+04  0.11767298201E+04  0.00000000000E+00 0. -1.
         -1    1    4    4    0  502 -0.20719900055E+02  0.34128508112E+02 -0.55714394767E+03  0.55857268797E+03  0.00000000000E+00 0.  1.
          5    1    3    3  503    0 -0.18981142447E+02 -0.19364955033E+02 -0.49010055142E+02  0.56208191192E+02  0.47000000000E+01 0. -1.
         13    1    6    6    0    0  0.29758228482E+02 -0.18088315074E+02 -0.17715968160E+03  0.18054997117E+03  0.00000000000E+00 0. -1.
        -14    1    6    6    0    0  0.50606693987E+02  0.63098944858E+02 -0.24926353751E+03  0.26205882059E+03  0.00000000000E+00 0.  1.
         -5    1    5    5    0  501 -0.28027036301E+02 -0.17457059214E+02 -0.51751788536E+03  0.51859147250E+03  0.47000000000E+01 0.  1.
<mgrwt>
<rscale>  2 0.18257364E+03</rscale>
<asrwt>0</asrwt>
<pdfrwt beam="2">  1        2 0.42143853E+00 0.18257364E+03</pdfrwt>
<pdfrwt beam="1">  1       -2 0.20550082E-02 0.18257364E+03</pdfrwt>
<totfact> 0.22136552E+03</totfact>
</mgrwt>
</event>
<event>
12    1  0.5759937E-002  0.2096812E+03  0.7546771E-02  0.1141819E+00
          3   -1    0    0  503    0  0.00000000000E+00  0.00000000000E+00  0.66847198538E+03  0.66847198538E+03  0.00000000000E+00 0.  1.
         -3   -1    0    0    0  501 -0.00000000000E+00 -0.00000000000E+00 -0.74592229172E+02  0.74592229172E+02  0.00000000000E+00 0. -1.
          6    2    1    2  503    0 -0.18590511996E+02  0.11826468816E+03  0.16939565603E+03  0.26969414607E+03  0.17235979967E+03 0.  0.
         24    2    3    3    0    0  0.49457237776E+02  0.34768170771E+02  0.67172216864E+02  0.12112131484E+03  0.80643797796E+02 0.  0.
         -6    2    1    2    0  501  0.18590511996E+02 -0.11826468816E+03  0.42448410018E+03  0.47337006848E+03  0.17193116887E+03 0.  0.
        -24    2    5    5    0    0 -0.20539055187E+01 -0.92351357024E+02  0.13679272601E+03  0.18373908002E+03  0.80714360346E+02 0.  0.
          2    1    4    4  502    0  0.12395067869E+02 -0.23060904066E+02  0.17102338088E+01  0.26236766255E+02  0.00000000000E+00 0. -1.
         -1    1    4    4    0  502  0.37062169907E+02  0.57829074837E+02  0.65461983055E+02  0.94884548585E+02  0.00000000000E+00 0.  1.
          5    1    3    3  503    0 -0.68047749772E+02  0.83496517386E+02  0.10222343917E+03  0.14857283123E+03  0.47000000000E+01 0. -1.
         11    1    6    6    0    0 -0.27883211608E+02 -0.70404595121E+02  0.12800138984E+03  0.14872335494E+03  0.00000000000E+00 0. -1.
        -12    1    6    6    0    0  0.25829306089E+02 -0.21946761903E+02  0.87913361629E+01  0.35015725076E+02  0.00000000000E+00 0.  1.
         -5    1    5    5    0  501  0.20644417514E+02 -0.25913331133E+02  0.28769137417E+03  0.28963098846E+03  0.47000000000E+01 0.  1.
<mgrwt>
<rscale>  2 0.20968118E+03</rscale>
<asrwt>0</asrwt>
<pdfrwt beam="1">  1        3 0.10284184E+00 0.20968118E+03</pdfrwt>
<pdfrwt beam="2">  1       -3 0.11475728E-01 0.20968118E+03</pdfrwt>
<totfact> 0.12218239E+02</totfact>
</mgrwt>
</event>
<event>
12    1  0.5759937E-002  0.1840065E+03  0.7546771E-02  0.1163981E+00
          2   -1    0    0  503    0  0.00000000000E+00  0.00000000000E+00  0.29849066457E+03  0.29849066457E+03  0.00000000000E+00 0. -1.
         -2   -1    0    0    0  501 -0.00000000000E+00 -0.00000000000E+00 -0.11350651147E+03  0.11350651147E+03  0.00000000000E+00 0.  1.
          6    2    1    2  503    0 -0.19601587844E+02 -0.59843658941E+02  0.97923617951E+02  0.20873806625E+03  0.17325432054E+03 0.  0.
         24    2    3    3    0    0  0.10730520109E+02 -0.74779330408E+02  0.12317668351E+03  0.16627727992E+03  0.82271174424E+02 0.  0.
         -6    2    1    2    0  501  0.19601587844E+02  0.59843658941E+02  0.87060535145E+02  0.20325910980E+03  0.17253765727E+03 0.  0.
        -24    2    5    5    0    0  0.61887312466E+02  0.59411978811E+02  0.44317470548E+01  0.11031893832E+03  0.69215642008E+02 0.  0.
          2    1    4    4  502    0  0.16716522969E+02 -0.30081402198E+02  0.11551721021E+03  0.12053447123E+03  0.00000000000E+00 0. -1.
         -1    1    4    4    0  502 -0.59860028600E+01 -0.44697928210E+02  0.76594732948E+01  0.45742808699E+02  0.00000000000E+00 0.  1.
          5    1    3    3  503    0 -0.30332107952E+02  0.14935671467E+02 -0.25253065556E+02  0.42460786321E+02  0.47000000000E+01 0. -1.
         13    1    6    6    0    0  0.34251976136E+02  0.33915715638E+02  0.36848840562E+02  0.60673805610E+02  0.00000000000E+00 0. -1.
        -14    1    6    6    0    0  0.27635336330E+02  0.25496263173E+02 -0.32417093507E+02  0.49645132705E+02  0.00000000000E+00 0.  1.
         -5    1    5    5    0  501 -0.42285724622E+02  0.43168012963E+00  0.82628788090E+02  0.92940171485E+02  0.47000000000E+01 0.  1.
<mgrwt>
<rscale>  2 0.18400655E+03</rscale>
<asrwt>0</asrwt>
<pdfrwt beam="1">  1        2 0.45921640E-01 0.18400655E+03</pdfrwt>
<pdfrwt beam="2">  1       -2 0.17462540E-01 0.18400655E+03</pdfrwt>
<totfact> 0.28625914E+03</totfact>
</mgrwt>
</event>
<event>
12    1  0.5759937E-002  0.1783915E+03  0.7546771E-02  0.1169369E+00
         -1   -1    0    0    0  501 -0.00000000000E+00  0.00000000000E+00  0.33647233032E+02  0.33647233032E+02  0.00000000000E+00 0. -1.
          1   -1    0    0  503    0  0.00000000000E+00 -0.00000000000E+00 -0.10434859889E+04  0.10434859889E+04  0.00000000000E+00 0.  1.
          6    2    1    2  503    0  0.39480588604E+02 -0.17920286308E+02 -0.67018207343E+03  0.69356639931E+03  0.17323534619E+03 0.  0.
         24    2    3    3    0    0  0.33197402129E+02 -0.23427930765E+02 -0.67621826153E+03  0.68223775656E+03  0.80785418248E+02 0.  0.
         -6    2    1    2    0  501 -0.39480588604E+02  0.17920286308E+02 -0.33965668244E+03  0.38356682262E+03  0.17284962237E+03 0.  0.
        -24    2    5    5    0    0  0.39215931275E+02  0.35404825350E+02 -0.20892688362E+03  0.22990738866E+03  0.80097276709E+02 0.  0.
          2    1    4    4  502    0  0.31843527298E+02 -0.41843883139E+02 -0.63376247864E+03  0.63594009161E+03  0.00000000000E+00 0. -1.
         -1    1    4    4    0  502  0.13538748313E+01  0.18415952374E+02 -0.42455782891E+02  0.46297664950E+02  0.00000000000E+00 0.  1.
          5    1    3    3  503    0  0.62831864742E+01  0.55076444572E+01  0.60361881027E+01  0.11328642750E+02  0.47000000000E+01 0. -1.
         11    1    6    6    0    0  0.22682969217E+01  0.18243188424E+02 -0.14190413930E+01  0.18438350611E+02  0.00000000000E+00 0. -1.
        -12    1    6    6    0    0  0.36947634354E+02  0.17161636926E+02 -0.20750784223E+03  0.21146903805E+03  0.00000000000E+00 0.  1.
         -5    1    5    5    0  501 -0.78696519879E+02 -0.17484539042E+02 -0.13072979881E+03  0.15365943396E+03  0.47000000000E+01 0.  1.
<mgrwt>
<rscale>  2 0.17839149E+03</rscale>
<asrwt>0</asrwt>
<pdfrwt beam="2">  1        1 0.16053632E+00 0.17839149E+03</pdfrwt>
<pdfrwt beam="1">  1       -1 0.51764971E-02 0.17839149E+03</pdfrwt>
<totfact> 0.24636415E+03</totfact>
</mgrwt>
</event>
<event>
12    1  0.5759937E-002  0.1956671E+03  0.7546771E-02  0.1153447E+00
         -2   -1    0    0    0  501 -0.00000000000E+00  0.00000000000E+00  0.70967873052E+02  0.70967873052E+02  0.00000000000E+00 0.  1.
          2   -1    0    0  503    0  0.00000000000E+00 -0.00000000000E+00 -0.72799356648E+03  0.72799356648E+03  0.00000000000E+00 0. -1.
          6    2    1    2  503    0  0.38889717857E+02 -0.77248825238E+02 -0.53188574778E+03  0.56675900229E+03  0.17559478018E+03 0.  0.
         24    2    3    3    0    0  0.79873390125E+02 -0.78805014565E+02 -0.48581232672E+03  0.50489679051E+03  0.79480585711E+02 0.  0.
         -6    2    1    2    0  501 -0.38889717857E+02  0.77248825238E+02 -0.12513994565E+03  0.23220243724E+03  0.17543709616E+03 0.  0.
        -24    2    5    5    0    0 -0.76102357625E+02  0.87733277311E+02 -0.12703802122E+03  0.19321016898E+03  0.87765675388E+02 0.  0.
          4    1    4    4  502    0  0.93926705987E+02 -0.54390808350E+02 -0.40605328055E+03  0.42030923470E+03  0.00000000000E+00 0. -1.
         -3    1    4    4    0  502 -0.14053315862E+02 -0.24414206215E+02 -0.79759046171E+02  0.84587555810E+02  0.00000000000E+00 0.  1.
          5    1    3    3  503    0 -0.40983672268E+02  0.15561893266E+01 -0.46073421061E+02  0.61862211778E+02  0.47000000000E+01 0. -1.
         13    1    6    6    0    0  0.12340864249E+02  0.45208504267E+02 -0.49263314775E+02  0.67992499374E+02  0.00000000000E+00 0. -1.
        -14    1    6    6    0    0 -0.88443221874E+02  0.42524773044E+02 -0.77774706445E+02  0.12521766960E+03  0.00000000000E+00 0.  1.
         -5    1    5    5    0  501  0.37212639768E+02 -0.10484452073E+02  0.18980755732E+01  0.38992268268E+02  0.47000000000E+01 0.  1.
<mgrwt>
<rscale>  2 0.19566715E+03</rscale>
<asrwt>0</asrwt>
<pdfrwt beam="2">  1        2 0.11199901E+00 0.19566715E+03</pdfrwt>
<pdfrwt beam="1">  1       -2 0.10918134E-01 0.19566715E+03</pdfrwt>
<totfact> 0.22856931E+03</totfact>
</mgrwt>
</event>
<event>
12    1  0.5759937E-002  0.2547834E+03  0.7546771E-02  0.1110319E+00
         -2   -1    0    0    0  501 -0.00000000000E+00  0.00000000000E+00  0.10411510826E+03  0.10411510826E+03  0.00000000000E+00 0. -1.
          2   -1    0    0  503    0  0.00000000000E+00 -0.00000000000E+00 -0.64189417417E+03  0.64189417417E+03  0.00000000000E+00 0.  1.
          6    2    1    2  503    0  0.15200321445E+03  0.10921711850E+03 -0.33311796239E+03  0.42002834704E+03  0.17442155623E+03 0.  0.
         24    2    3    3    0    0  0.10859558621E+03  0.14559873723E+03 -0.24499297477E+03  0.31516678205E+03  0.79476721087E+02 0.  0.
         -6    2    1    2    0  501 -0.15200321445E+03 -0.10921711850E+03 -0.20466110353E+03  0.32598093538E+03  0.17130104133E+03 0.  0.
        -24    2    5    5    0    0 -0.10449126964E+02 -0.10681811657E+02 -0.63351036365E+02  0.10296212124E+03  0.79778187796E+02 0.  0.
          2    1    4    4  502    0  0.81645362487E+02  0.43426018804E+02 -0.11983590678E+03  0.15136852011E+03  0.00000000000E+00 0. -1.
         -1    1    4    4    0  502  0.26950223724E+02  0.10217271842E+03 -0.12515706799E+03  0.16379826194E+03  0.00000000000E+00 0.  1.
          5    1    3    3  503    0  0.43407628240E+02 -0.36381618725E+02 -0.88124987618E+02  0.10486156499E+03  0.47000000000E+01 0. -1.
         13    1    6    6    0    0 -0.65239372588E+01 -0.52360368235E+01  0.18779138197E+02  0.20558060959E+02  0.00000000000E+00 0. -1.
        -14    1    6    6    0    0 -0.39251897057E+01 -0.54457748334E+01 -0.82130174563E+02  0.82404060285E+02  0.00000000000E+00 0.  1.
         -5    1    5    5    0  501 -0.14155408749E+03 -0.98535306844E+02 -0.14131006716E+03  0.22301881414E+03  0.47000000000E+01 0.  1.
<mgrwt>
<rscale>  2 0.25478339E+03</rscale>
<asrwt>0</asrwt>
<pdfrwt beam="2">  1        2 0.98752952E-01 0.25478339E+03</pdfrwt>
<pdfrwt beam="1">  1       -2 0.16017709E-01 0.25478339E+03</pdfrwt>
<totfact> 0.14282075E+03</totfact>
</mgrwt>
</event>
<event>
12    1  0.5759937E-002  0.2078991E+03  0.7546771E-02  0.1143241E+00
         -2   -1    0    0    0  501 -0.00000000000E+00  0.00000000000E+00  0.27847968496E+02  0.27847968496E+02  0.00000000000E+00 0.  1.
          2   -1    0    0  503    0  0.00000000000E+00 -0.00000000000E+00 -0.16463364486E+04  0.16463364486E+04  0.00000000000E+00 0. -1.
          6    2    1    2  503    0  0.77364491123E+02 -0.84670657610E+02 -0.60699115500E+03  0.64143492261E+03  0.17276027595E+03 0.  0.
         24    2    3    3    0    0  0.61460500717E+02  0.47392932911E+01 -0.20244431765E+03  0.22679374058E+03  0.81558843569E+02 0.  0.
         -6    2    1    2    0  501 -0.77364491123E+02  0.84670657610E+02 -0.10114973251E+04  0.10327494945E+04  0.17404107252E+03 0.  0.
        -24    2    5    5    0    0 -0.86622200051E+02  0.98099415844E+01 -0.79388736558E+03  0.80238887185E+03  0.77272970322E+02 0.  0.
          4    1    4    4  502    0  0.29403963785E+02  0.21796302076E+02 -0.18091235254E+03  0.18457776457E+03  0.00000000000E+00 0. -1.
         -3    1    4    4    0  502  0.32056536932E+02 -0.17057008784E+02 -0.21531965114E+02  0.42215976009E+02  0.00000000000E+00 0.  1.
          5    1    3    3  503    0  0.15903990406E+02 -0.89409950901E+02 -0.40454683735E+03  0.41464118203E+03  0.47000000000E+01 0. -1.
         13    1    6    6    0    0 -0.79812021724E+02  0.19059969519E+02 -0.78027456176E+03  0.78457735946E+03  0.00000000000E+00 0. -1.
        -14    1    6    6    0    0 -0.68101783273E+01 -0.92500279346E+01 -0.13612803818E+02  0.17811512385E+02  0.00000000000E+00 0.  1.
         -5    1    5    5    0  501  0.92577089281E+01  0.74860716025E+02 -0.21760995949E+03  0.23036062261E+03  0.47000000000E+01 0.  1.
<mgrwt>
<rscale>  2 0.20789906E+03</rscale>
<asrwt>0</asrwt>
<pdfrwt beam="2">  1        2 0.25328264E+00 0.20789906E+03</pdfrwt>
<pdfrwt beam="1">  1       -2 0.42843010E-02 0.20789906E+03</pdfrwt>
<totfact> 0.28243927E+03</totfact>
</mgrwt>
</event>
<event>
12    1  0.5759937E-002  0.2154818E+03  0.7546771E-02  0.1137297E+00
          1   -1    0    0  503    0  0.00000000000E+00  0.00000000000E+00  0.76323704986E+03  0.76323704986E+03  0.00000000000E+00 0.  1.
         -1   -1    0    0    0  501 -0.00000000000E+00 -0.00000000000E+00 -0.76303725934E+02  0.76303725934E+02  0.00000000000E+00 0. -1.
          6    2    1    2  503    0  0.12520502266E+03 -0.27772203150E+02  0.15440704624E+03  0.26505094496E+03  0.17309787556E+03 0.  0.
         24    2    3    3    0    0  0.63239534801E+02  0.27241112358E+02  0.14674452940E+03  0.18170233529E+03  0.82100333591E+02 0.  0.
         -6    2    1    2    0  501 -0.12520502266E+03  0.27772203150E+02  0.53252627768E+03  0.57448983084E+03  0.17322452582E+03 0.  0.
        -24    2    5    5    0    0 -0.15746870818E+03  0.14034216127E+02  0.40649508318E+03  0.44358669994E+03  0.80855144766E+02 0.  0.
          2    1    4    4  502    0  0.51349759435E+02  0.55029171338E+02  0.89273117109E+02  0.11676770500E+03  0.00000000000E+00 0. -1.
         -1    1    4    4    0  502  0.11889775367E+02 -0.27788058980E+02  0.57471412292E+02  0.64934630290E+02  0.00000000000E+00 0.  1.
          5    1    3    3  503    0  0.61965487862E+02 -0.55013315508E+02  0.76625168420E+01  0.83348609668E+02  0.47000000000E+01 0. -1.
         13    1    6    6    0    0 -0.79070328092E+02 -0.22256858321E+02  0.12880347774E+03  0.15276720985E+03  0.00000000000E+00 0. -1.
        -14    1    6    6    0    0 -0.78398380091E+02  0.36291074448E+02  0.27769160544E+03  0.29081949009E+03  0.00000000000E+00 0.  1.
         -5    1    5    5    0  501  0.32263685520E+02  0.13737987023E+02  0.12603119450E+03  0.13090313090E+03  0.47000000000E+01 0.  1.
<mgrwt>
<rscale>  2 0.21548177E+03</rscale>
<asrwt>0</asrwt>
<pdfrwt beam="1">  1        1 0.11742108E+00 0.21548177E+03</pdfrwt>
<pdfrwt beam="2">  1       -1 0.11739035E-01 0.21548177E+03</pdfrwt>
<totfact> 0.11756012E+03</totfact>
</mgrwt>
</event>
<event>
12    1  0.5759937E-002  0.1741713E+03  0.7546771E-02  0.1173566E+00
          1   -1    0    0  503    0  0.00000000000E+00  0.00000000000E+00  0.35776163706E+03  0.35776163706E+03  0.00000000000E+00 0. -1.
         -1   -1    0    0    0  501 -0.00000000000E+00 -0.00000000000E+00 -0.12186798853E+03  0.12186798853E+03  0.00000000000E+00 0.  1.
          6    2    1    2  503    0 -0.21234805151E+02 -0.16361062665E+02  0.25070830432E+03  0.30587372454E+03  0.17316316061E+03 0.  0.
         24    2    3    3    0    0 -0.15249551779E+02  0.41267481435E+02  0.83962476117E+02  0.12928625734E+03  0.87918627646E+02 0.  0.
         -6    2    1    2    0  501  0.21234805151E+02  0.16361062665E+02 -0.14814655790E+02  0.17375590105E+03  0.17103519463E+03 0.  0.
        -24    2    5    5    0    0  0.65708537432E+02  0.51514460335E+02 -0.30994739566E+01  0.11567828302E+03  0.80003168116E+02 0.  0.
          2    1    4    4  502    0 -0.13185198324E+02  0.67025269412E+02  0.76132036649E+02  0.10228549848E+03  0.00000000000E+00 0. -1.
         -1    1    4    4    0  502 -0.20643534544E+01 -0.25757787978E+02  0.78304394684E+01  0.27000758859E+02  0.00000000000E+00 0.  1.
          5    1    3    3  503    0 -0.59852533726E+01 -0.57628544100E+02  0.16674582820E+03  0.17658746721E+03  0.47000000000E+01 0. -1.
         13    1    6    6    0    0 -0.12465982247E+01 -0.18443973215E+02  0.26346540865E+01  0.18672856162E+02  0.00000000000E+00 0. -1.
        -14    1    6    6    0    0  0.66955135656E+02  0.69958433550E+02 -0.57341280431E+01  0.97005426858E+02  0.00000000000E+00 0.  1.
         -5    1    5    5    0  501 -0.44473732280E+02 -0.35153397670E+02 -0.11715181833E+02  0.58077618031E+02  0.47000000000E+01 0.  1.
<mgrwt>
<rscale>  2 0.17417132E+03</rscale>
<asrwt>0</asrwt>
<pdfrwt beam="1">  1        1 0.55040252E-01 0.17417132E+03</pdfrwt>
<pdfrwt beam="2">  1       -1 0.18748921E-01 0.17417132E+03</pdfrwt>
<totfact> 0.15537588E+03</totfact>
</mgrwt>
</event>
<event>
12    1  0.5759937E-002  0.3572521E+03  0.7546771E-02  0.1059677E+00
         -2   -1    0    0    0  501 -0.00000000000E+00  0.00000000000E+00  0.26428038267E+03  0.26428038267E+03  0.00000000000E+00 0.  1.
          2   -1    0    0  503    0  0.00000000000E+00 -0.00000000000E+00 -0.73750453015E+03  0.73750453015E+03  0.00000000000E+00 0. -1.
          6    2    1    2  503    0 -0.15868905228E+03  0.26991345898E+03  0.57704160427E+02  0.36181287285E+03  0.17188162840E+03 0.  0.
         24    2    3    3    0    0 -0.10013382507E+03  0.16077267265E+03  0.10209849871E+03  0.23015660394E+03  0.81690413775E+02 0.  0.
         -6    2    1    2    0  501  0.15868905228E+03 -0.26991345898E+03 -0.53092830792E+03  0.63997203997E+03  0.17217390379E+03 0.  0.
        -24    2    5    5    0    0  0.16036343665E+03 -0.19153655644E+03 -0.47733915936E+03  0.54489507506E+03  0.81579933170E+02 0.  0.
          4    1    4    4  502    0  0.97300560804E+01  0.23527377144E+02  0.32004415900E+02  0.40896138004E+02  0.00000000000E+00 0. -1.
         -3    1    4    4    0  502 -0.10986388115E+03  0.13724529551E+03  0.70094082811E+02  0.18926046593E+03  0.00000000000E+00 0.  1.
          5    1    3    3  503    0 -0.58555227214E+02  0.10914078632E+03 -0.44394338284E+02  0.13165626891E+03  0.47000000000E+01 0. -1.
         11    1    6    6    0    0  0.16318873754E+03 -0.18605770981E+03 -0.42201599311E+03  0.48922953087E+03  0.00000000000E+00 0. -1.
        -12    1    6    6    0    0 -0.28253008842E+01 -0.54788466356E+01 -0.55323166254E+02  0.55665544190E+02  0.00000000000E+00 0.  1.
         -5    1    5    5    0  501 -0.16743843701E+01 -0.78376902530E+02 -0.53589148554E+02  0.95076964908E+02  0.47000000000E+01 0.  1.
<mgrwt>
<rscale>  2 0.35725209E+03</rscale>
<asrwt>0</asrwt>
<pdfrwt beam="2">  1        2 0.11346223E+00 0.35725209E+03</pdfrwt>
<pdfrwt beam="1">  1       -2 0.40658521E-01 0.35725209E+03</pdfrwt>
<totfact> 0.22715320E+02</totfact>
</mgrwt>
</event>
<event>
12    1  0.5759937E-002  0.1839289E+03  0.7546771E-02  0.1164054E+00
          2   -1    0    0  503    0  0.00000000000E+00  0.00000000000E+00  0.11668901861E+03  0.11668901861E+03  0.00000000000E+00 0. -1.
         -2   -1    0    0    0  501 -0.00000000000E+00 -0.00000000000E+00 -0.31272570385E+03  0.31272570385E+03  0.00000000000E+00 0.  1.
          6    2    1    2  503    0  0.27832673587E+02 -0.54798020783E+02 -0.39982415651E+02  0.18812938419E+03  0.17325296774E+03 0.  0.
         24    2    3    3    0    0  0.29068680796E+02 -0.63210322561E+02 -0.89445766063E+02  0.13772097646E+03  0.78268698790E+02 0.  0.
         -6    2    1    2    0  501 -0.27832673587E+02  0.54798020783E+02 -0.15605426959E+03  0.24128533827E+03  0.17345950134E+03 0.  0.
        -24    2    5    5    0    0  0.46359859045E+02  0.13607918205E+02 -0.47206409747E+02  0.10318717376E+03  0.78004716131E+02 0.  0.
          2    1    4    4  502    0 -0.66311679256E+01 -0.47317791351E+02 -0.94712172561E+01  0.48709852419E+02  0.00000000000E+00 0. -1.
         -1    1    4    4    0  502  0.35699848721E+02 -0.15892531210E+02 -0.79974548807E+02  0.89011124046E+02  0.00000000000E+00 0.  1.
          5    1    3    3  503    0 -0.12360072089E+01  0.84123017779E+01  0.49463350412E+02  0.50408407722E+02  0.47000000000E+01 0. -1.
         11    1    6    6    0    0  0.16678222131E+02 -0.28778214213E+02 -0.17549991544E+00  0.33262283550E+02  0.00000000000E+00 0. -1.
        -12    1    6    6    0    0  0.29681636915E+02  0.42386132418E+02 -0.47030909831E+02  0.69924890210E+02  0.00000000000E+00 0.  1.
         -5    1    5    5    0  501 -0.74192532632E+02  0.41190102578E+02 -0.10884785984E+03  0.13809816451E+03  0.47000000000E+01 0.  1.
<mgrwt>
<rscale>  2 0.18392894E+03</rscale>
<asrwt>0</asrwt>
<pdfrwt beam="1">  1        2 0.17952157E-01 0.18392894E+03</pdfrwt>
<pdfrwt beam="2">  1       -2 0.48111646E-01 0.18392894E+03</pdfrwt>
<totfact> 0.12910007E+03</totfact>
</mgrwt>
</event>
<event>
12    1  0.5759937E-002  0.3266968E+03  0.7546771E-02  0.1072608E+00
         -1   -1    0    0    0  501 -0.00000000000E+00  0.00000000000E+00  0.50098626383E+03  0.50098626383E+03  0.00000000000E+00 0. -1.
          1   -1    0    0  503    0  0.00000000000E+00 -0.00000000000E+00 -0.29065572940E+03  0.29065572940E+03  0.00000000000E+00 0.  1.
          6    2    1    2  503    0 -0.11473069312E+03 -0.25257136588E+03  0.30972897454E+03  0.45025063958E+03  0.17273729755E+03 0.  0.
         24    2    3    3    0    0 -0.50138649995E+01 -0.13715505406E+03  0.10820691860E+03  0.19336168217E+03  0.82724574356E+02 0.  0.
         -6    2    1    2    0  501  0.11473069312E+03  0.25257136588E+03 -0.99398440109E+02  0.34139135366E+03  0.17237337281E+03 0.  0.
        -24    2    5    5    0    0  0.54199264729E+02  0.71873553064E+02  0.10129707710E+02  0.12154081684E+03  0.81032038426E+02 0.  0.
          2    1    4    4  502    0  0.44667668909E+00 -0.14803343986E+03  0.98762954292E+02  0.17795566858E+03  0.00000000000E+00 0. -1.
         -1    1    4    4    0  502 -0.54605416885E+01  0.10878385799E+02  0.94439643059E+01  0.15406013596E+02  0.00000000000E+00 0.  1.
          5    1    3    3  503    0 -0.10971682812E+03 -0.11541631181E+03  0.20152205594E+03  0.25688895740E+03  0.47000000000E+01 0. -1.
         13    1    6    6    0    0 -0.57102876749E+01 -0.14712823746E+02  0.21850757508E+00  0.15783609013E+02  0.00000000000E+00 0. -1.
        -14    1    6    6    0    0  0.59909552404E+02  0.86586376810E+02  0.99112001348E+01  0.10575720782E+03  0.00000000000E+00 0.  1.
         -5    1    5    5    0  501  0.60531428388E+02  0.18069781281E+03 -0.10952814782E+03  0.21985053683E+03  0.47000000000E+01 0.  1.
<mgrwt>
<rscale>  2 0.32669678E+03</rscale>
<asrwt>0</asrwt>
<pdfrwt beam="2">  1        1 0.44716266E-01 0.32669678E+03</pdfrwt>
<pdfrwt beam="1">  1       -1 0.77074810E-01 0.32669678E+03</pdfrwt>
<totfact> 0.16114964E+02</totfact>
</mgrwt>
</event>
<event>
12    1  0.5759937E-002  0.1745172E+03  0.7546771E-02  0.1173217E+00
         -4   -1    0    0    0  501 -0.00000000000E+00  0.00000000000E+00  0.16369041865E+03  0.16369041865E+03  0.00000000000E+00 0. -1.
          4   -1    0    0  503    0  0.00000000000E+00 -0.00000000000E+00 -0.18808073758E+03  0.18808073758E+03  0.00000000000E+00 0.  1.
          6    2    1    2  503    0 -0.24096946119E+02  0.35381394653E+01  0.60376878945E+01  0.17459471074E+03  0.17278216951E+03 0.  0.
         24    2    3    3    0    0  0.11485363484E+02  0.64793011618E+02 -0.12394875535E+01  0.10322729940E+03  0.79525411557E+02 0.  0.
         -6    2    1    2    0  501  0.24096946119E+02 -0.35381394653E+01 -0.30428006823E+02  0.17717644549E+03  0.17283647761E+03 0.  0.
        -24    2    5    5    0    0 -0.33599812763E+02  0.45937118429E+02 -0.93355807014E+01  0.98159374114E+02  0.79428857428E+02 0.  0.
          2    1    4    4  502    0  0.15621127237E+02  0.77586522197E+02  0.16622702550E+02  0.80870280591E+02  0.00000000000E+00 0. -1.
         -1    1    4    4    0  502 -0.41357637532E+01 -0.12793510579E+02 -0.17862190104E+02  0.22357018810E+02  0.00000000000E+00 0.  1.
          5    1    3    3  503    0 -0.35582309603E+02 -0.61254872153E+02  0.72771754480E+01  0.71367411342E+02  0.47000000000E+01 0. -1.
         13    1    6    6    0    0 -0.59761490348E+02  0.34063940398E+02 -0.94155247770E+01  0.69429387660E+02  0.00000000000E+00 0. -1.
        -14    1    6    6    0    0  0.26161677585E+02  0.11873178031E+02  0.79944075674E-01  0.28729986454E+02  0.00000000000E+00 0.  1.
         -5    1    5    5    0  501  0.57696758882E+02 -0.49475257894E+02 -0.21092426121E+02  0.79017071376E+02  0.47000000000E+01 0.  1.
<mgrwt>
<rscale>  2 0.17451717E+03</rscale>
<asrwt>0</asrwt>
<pdfrwt beam="2">  1        4 0.28935498E-01 0.17451717E+03</pdfrwt>
<pdfrwt beam="1">  1       -4 0.25183142E-01 0.17451717E+03</pdfrwt>
<totfact> 0.29278967E+02</totfact>
</mgrwt>
</event>
<event>
12    1  0.5759937E-002  0.1736370E+03  0.7546771E-02  0.1174107E+00
          2   -1    0    0  503    0  0.00000000000E+00  0.00000000000E+00  0.46383121472E+02  0.46383121472E+02  0.00000000000E+00 0. -1.
         -2   -1    0    0    0  501 -0.00000000000E+00 -0.00000000000E+00 -0.13636693324E+04  0.13636693324E+04  0.00000000000E+00 0.  1.
          6    2    1    2  503    0 -0.24833457172E+01  0.19581627748E+01 -0.11674706347E+04  0.11802155687E+04  0.17294827075E+03 0.  0.
         24    2    3    3    0    0  0.21522712294E+02 -0.37896740082E+02 -0.10464709298E+04  0.10504938562E+04  0.80848902426E+02 0.  0.
         -6    2    1    2    0  501  0.24833457172E+01 -0.19581627748E+01 -0.14981557621E+03  0.22983688514E+03  0.17427072470E+03 0.  0.
        -24    2    5    5    0    0  0.13992858086E+02  0.11154529257E+02  0.23540213760E+00  0.78701853885E+02  0.76640086055E+02 0.  0.
          4    1    4    4  502    0  0.37247035197E+02 -0.56203903165E+02 -0.73239681924E+03  0.73549393008E+03  0.00000000000E+00 0. -1.
         -3    1    4    4    0  502 -0.15724322903E+02  0.18307163084E+02 -0.31407411057E+03  0.31499992616E+03  0.00000000000E+00 0.  1.
          5    1    3    3  503    0 -0.24006058012E+02  0.39854902857E+02 -0.12099970487E+03  0.12972171245E+03  0.47000000000E+01 0. -1.
         11    1    6    6    0    0  0.13652746662E+02 -0.28900685008E+02  0.15889709175E+02  0.35694956829E+02  0.00000000000E+00 0. -1.
        -12    1    6    6    0    0  0.34011142441E+00  0.40055214265E+02 -0.15654307037E+02  0.43006897056E+02  0.00000000000E+00 0.  1.
         -5    1    5    5    0  501 -0.11509512369E+02 -0.13112692031E+02 -0.15005097835E+03  0.15113503125E+03  0.47000000000E+01 0.  1.
<mgrwt>
<rscale>  2 0.17363704E+03</rscale>
<asrwt>0</asrwt>
<pdfrwt beam="1">  1        2 0.71358656E-02 0.17363704E+03</pdfrwt>
<pdfrwt beam="2">  1       -2 0.20979526E+00 0.17363704E+03</pdfrwt>
<totfact> 0.12377219E+02</totfact>
</mgrwt>
</event>
<event>
12    1  0.5759937E-002  0.1798281E+03  0.7546771E-02  0.1167970E+00
         -3   -1    0    0    0  501 -0.00000000000E+00  0.00000000000E+00  0.29550528006E+02  0.29550528006E+02  0.00000000000E+00 0. -1.
          3   -1    0    0  503    0  0.00000000000E+00 -0.00000000000E+00 -0.11606333822E+04  0.11606333822E+04  0.00000000000E+00 0.  1.
          6    2    1    2  503    0  0.14382441983E+01  0.30051053271E+02 -0.41499212281E+03  0.45113746127E+03  0.17436000865E+03 0.  0.
         24    2    3    3    0    0 -0.32410733578E+02  0.42823422313E+02 -0.11746426045E+03  0.15138121765E+03  0.78956440044E+02 0.  0.
         -6    2    1    2    0  501 -0.14382441983E+01 -0.30051053271E+02 -0.71609073140E+03  0.73904644895E+03  0.18027363581E+03 0.  0.
        -24    2    5    5    0    0  0.16072533406E+02 -0.46350395501E+02 -0.18453878132E+03  0.20693568838E+03  0.79756703918E+02 0.  0.
          4    1    4    4  502    0 -0.54424735525E+02  0.34530388241E+02 -0.55340807309E+02  0.84952954643E+02  0.00000000000E+00 0. -1.
         -3    1    4    4    0  502  0.22014001946E+02  0.82930340718E+01 -0.62123453145E+02  0.66428263010E+02  0.00000000000E+00 0.  1.
          5    1    3    3  503    0  0.33848977776E+02 -0.12772369041E+02 -0.29752786236E+03  0.29975624362E+03  0.47000000000E+01 0. -1.
         11    1    6    6    0    0  0.20735205897E+02 -0.63940273066E+02 -0.17245417241E+03  0.18509119067E+03  0.00000000000E+00 0. -1.
        -12    1    6    6    0    0 -0.46626724916E+01  0.17589877565E+02 -0.12084608916E+02  0.21844497709E+02  0.00000000000E+00 0.  1.
         -5    1    5    5    0  501 -0.17510777604E+02  0.16299342230E+02 -0.53155195008E+03  0.53211076057E+03  0.47000000000E+01 0.  1.
<mgrwt>
<rscale>  2 0.17982807E+03</rscale>
<asrwt>0</asrwt>
<pdfrwt beam="2">  1        3 0.17855900E+00 0.17982807E+03</pdfrwt>
<pdfrwt beam="1">  1       -3 0.45462347E-02 0.17982807E+03</pdfrwt>
<totfact> 0.14073178E+02</totfact>
</mgrwt>
</event>
<event>
12    1  0.5759937E-002  0.2367667E+03  0.7546771E-02  0.1121966E+00
          1   -1    0    0  503    0  0.00000000000E+00  0.00000000000E+00  0.45634535723E+02  0.45634535723E+02  0.00000000000E+00 0.  1.
         -1   -1    0    0    0  501 -0.00000000000E+00 -0.00000000000E+00 -0.13989389696E+04  0.13989389696E+04  0.00000000000E+00 0. -1.
          6    2    1    2  503    0  0.14934965524E+03  0.61039632088E+02 -0.42726261276E+03  0.48901407407E+03  0.17478635008E+03 0.  0.
         24    2    3    3    0    0  0.12833780156E+03 -0.69557056135E+01 -0.36136773142E+03  0.39191057604E+03  0.80549917117E+02 0.  0.
         -6    2    1    2    0  501 -0.14934965524E+03 -0.61039632088E+02 -0.92604182115E+03  0.95555943129E+03  0.17178246706E+03 0.  0.
        -24    2    5    5    0    0 -0.13840262579E+03 -0.26001245715E+02 -0.46013809235E+03  0.48818816507E+03  0.82275566703E+02 0.  0.
          2    1    4    4  502    0  0.13594191033E+03  0.30677205298E+01 -0.30163876787E+03  0.33087091165E+03  0.00000000000E+00 0. -1.
         -1    1    4    4    0  502 -0.76041087688E+01 -0.10023426143E+02 -0.59728963549E+02  0.61039664387E+02  0.00000000000E+00 0.  1.
          5    1    3    3  503    0  0.21011853679E+02  0.67995337701E+02 -0.65894881338E+02  0.97103498035E+02  0.47000000000E+01 0. -1.
         13    1    6    6    0    0 -0.91776566677E+02  0.22464700096E+02 -0.29915951476E+03  0.31372602094E+03  0.00000000000E+00 0. -1.
        -14    1    6    6    0    0 -0.46626059115E+02 -0.48465945812E+02 -0.16097857759E+03  0.17446214413E+03  0.00000000000E+00 0.  1.
         -5    1    5    5    0  501 -0.10947029445E+02 -0.35038386373E+02 -0.46590372880E+03  0.46737126622E+03  0.47000000000E+01 0.  1.
<mgrwt>
<rscale>  2 0.23676672E+03</rscale>
<asrwt>0</asrwt>
<pdfrwt beam="1">  1        1 0.70206978E-02 0.23676672E+03</pdfrwt>
<pdfrwt beam="2">  1       -1 0.21522138E+00 0.23676672E+03</pdfrwt>
<totfact> 0.13839032E+02</totfact>
</mgrwt>
</event>
<event>
12    1  0.5759937E-002  0.2268106E+03  0.7546771E-02  0.1128905E+00
          1   -1    0    0  503    0  0.00000000000E+00  0.00000000000E+00  0.21913162356E+04  0.21913162356E+04  0.00000000000E+00 0.  1.
         -1   -1    0    0    0  501 -0.00000000000E+00 -0.00000000000E+00 -0.16871322472E+03  0.16871322472E+03  0.00000000000E+00 0. -1.
          6    2    1    2  503    0  0.11457117580E+03 -0.93955649620E+02  0.21063512934E+04  0.21185632187E+04  0.17216306747E+03 0.  0.
         24    2    3    3    0    0  0.11935900128E+03 -0.12284547858E+03  0.20035321969E+04  0.20115519945E+04  0.53503081768E+02 0.  0.
         -6    2    1    2    0  501 -0.11457117580E+03  0.93955649620E+02 -0.83748282539E+02  0.24146624165E+03  0.17128325256E+03 0.  0.
        -24    2    5    5    0    0 -0.62484792712E+01  0.21145431601E+02 -0.72936375446E+02  0.11041616814E+03  0.79911466967E+02 0.  0.
          4    1    4    4  502    0  0.41130798760E+02 -0.47629395691E+02  0.47152575180E+03  0.47570667070E+03  0.00000000000E+00 0. -1.
         -3    1    4    4    0  502  0.78228202522E+02 -0.75216082886E+02  0.15320064451E+04  0.15358453238E+04  0.00000000000E+00 0.  1.
          5    1    3    3  503    0 -0.47878254791E+01  0.28889828957E+02  0.10281909647E+03  0.10701122412E+03  0.47000000000E+01 0. -1.
         13    1    6    6    0    0  0.35550472419E+02  0.20438465844E+02 -0.38628200235E+02  0.56335644389E+02  0.00000000000E+00 0. -1.
        -14    1    6    6    0    0 -0.41798951690E+02  0.70696575703E+00 -0.34308175211E+02  0.54080523752E+02  0.00000000000E+00 0.  1.
         -5    1    5    5    0  501 -0.10832269653E+03  0.72810218019E+02 -0.10811907093E+02  0.13105007351E+03  0.47000000000E+01 0.  1.
<mgrwt>
<rscale>  2 0.22681057E+03</rscale>
<asrwt>0</asrwt>
<pdfrwt beam="1">  1        1 0.33712555E+00 0.22681057E+03</pdfrwt>
<pdfrwt beam="2">  1       -1 0.25955882E-01 0.22681057E+03</pdfrwt>
<totfact> 0.34057111E+01</totfact>
</mgrwt>
</event>
<event>
12    1  0.5759937E-002  0.2045774E+03  0.7546771E-02  0.1145934E+00
         -1   -1    0    0    0  501 -0.00000000000E+00  0.00000000000E+00  0.45529607887E+02  0.45529607887E+02  0.00000000000E+00 0. -1.
          1   -1    0    0  503    0  0.00000000000E+00 -0.00000000000E+00 -0.11817760261E+04  0.11817760261E+04  0.00000000000E+00 0.  1.
          6    2    1    2  503    0  0.76554904022E+02 -0.73779102197E+02 -0.84852044078E+03  0.87191717822E+03  0.17014293400E+03 0.  0.
         24    2    3    3    0    0 -0.15651751401E+02 -0.64884192027E+01 -0.29032389840E+03  0.30214917872E+03  0.81970014717E+02 0.  0.
         -6    2    1    2    0  501 -0.76554904022E+02  0.73779102197E+02 -0.28772597740E+03  0.35538845574E+03  0.17947341628E+03 0.  0.
        -24    2    5    5    0    0 -0.99502248715E+02  0.88635476753E+02 -0.15853989688E+03  0.22325811898E+03  0.83380714484E+02 0.  0.
          4    1    4    4  502    0 -0.42361499536E+02 -0.26656452736E+02 -0.18365349630E+03  0.19035143766E+03  0.00000000000E+00 0. -1.
         -3    1    4    4    0  502  0.26709748136E+02  0.20168033533E+02 -0.10667040210E+03  0.11179774106E+03  0.00000000000E+00 0.  1.
          5    1    3    3  503    0  0.92206655423E+02 -0.67290682994E+02 -0.55819654238E+03  0.56976799950E+03  0.47000000000E+01 0. -1.
         13    1    6    6    0    0  0.39679459751E+01  0.42296763978E+02 -0.56790841904E+02  0.70922214872E+02  0.00000000000E+00 0. -1.
        -14    1    6    6    0    0 -0.10347019469E+03  0.46338712775E+02 -0.10174905498E+03  0.15233590411E+03  0.00000000000E+00 0.  1.
         -5    1    5    5    0  501  0.22947344693E+02 -0.14856374556E+02 -0.12918608052E+03  0.13213033677E+03  0.47000000000E+01 0.  1.
<mgrwt>
<rscale>  2 0.20457737E+03</rscale>
<asrwt>0</asrwt>
<pdfrwt beam="2">  1        1 0.18181169E+00 0.20457737E+03</pdfrwt>
<pdfrwt beam="1">  1       -1 0.70045553E-02 0.20457737E+03</pdfrwt>
<totfact> 0.12478864E+03</totfact>
</mgrwt>
</event>
<event>
12    1  0.5759937E-002  0.2577768E+03  0.7546771E-02  0.1108486E+00
         -2   -1    0    0    0  501 -0.00000000000E+00  0.00000000000E+00  0.80587080459E+02  0.80587080459E+02  0.00000000000E+00 0.  1.
          2   -1    0    0  503    0  0.00000000000E+00 -0.00000000000E+00 -0.82943851847E+03  0.82943851847E+03  0.00000000000E+00 0. -1.
          6    2    1    2  503    0 -0.19769539305E+03  0.20791146319E+02 -0.41579688883E+03  0.49211730082E+03  0.17255910526E+03 0.  0.
         24    2    3    3    0    0 -0.14066238002E+03 -0.25288594672E+02 -0.17287569994E+03  0.23832821296E+03  0.80553778865E+02 0.  0.
         -6    2    1    2    0  501  0.19769539305E+03 -0.20791146319E+02 -0.33305454918E+03  0.41790829810E+03  0.15558365176E+03 0.  0.
        -24    2    5    5    0    0  0.16232731420E+03 -0.61497302593E+02 -0.29554341712E+03  0.35205188468E+03  0.80389943053E+02 0.  0.
          2    1    4    4  502    0 -0.79627034166E+02  0.10696200066E+02 -0.44873489165E+02  0.92024471179E+02  0.00000000000E+00 0. -1.
         -1    1    4    4    0  502 -0.61035345857E+02 -0.35984794738E+02 -0.12800221078E+03  0.14630374178E+03  0.00000000000E+00 0.  1.
          5    1    3    3  503    0 -0.57033013030E+02  0.46079740991E+02 -0.24292118889E+03  0.25378908786E+03  0.47000000000E+01 0. -1.
         13    1    6    6    0    0  0.80310227999E+01 -0.95477478802E+01 -0.84966572771E+02  0.85877676408E+02  0.00000000000E+00 0. -1.
        -14    1    6    6    0    0  0.15429629140E+03 -0.51949554713E+02 -0.21057684435E+03  0.26617420827E+03  0.00000000000E+00 0.  1.
         -5    1    5    5    0  501  0.35368078854E+02  0.40706156274E+02 -0.37511132058E+02  0.65856413421E+02  0.47000000000E+01 0.  1.
<mgrwt>
<rscale>  2 0.25777675E+03</rscale>
<asrwt>0</asrwt>
<pdfrwt beam="2">  1        2 0.12760593E+00 0.25777675E+03</pdfrwt>
<pdfrwt beam="1">  1       -2 0.12398012E-01 0.25777675E+03</pdfrwt>
<totfact> 0.15863338E+03</totfact>
</mgrwt>
</event>
<event>
12    1  0.5759937E-002  0.1769762E+03  0.7546771E-02  0.1170762E+00
          1   -1    0    0  503    0  0.00000000000E+00  0.00000000000E+00  0.17320126919E+03  0.17320126919E+03  0.00000000000E+00 0. -1.
         -1   -1    0    0    0  501 -0.00000000000E+00 -0.00000000000E+00 -0.68279924798E+03  0.68279924798E+03  0.00000000000E+00 0.  1.
          6    2    1    2  503    0 -0.32991200868E+02 -0.15240368673E+02  0.11218819608E+03  0.20950888753E+03  0.17316782161E+03 0.  0.
         24    2    3    3    0    0  0.31815802098E+02 -0.16779363123E+02  0.10745859055E+02  0.89030865138E+02  0.80729357550E+02 0.  0.
         -6    2    1    2    0  501  0.32991200868E+02  0.15240368673E+02 -0.62178617487E+03  0.64649162964E+03  0.17324171484E+03 0.  0.
        -24    2    5    5    0    0  0.25864722692E+02  0.23889333716E+02 -0.14020030461E+03  0.16475245569E+03  0.79041521345E+02 0.  0.
          4    1    4    4  502    0  0.27218160585E+02  0.19864791236E+02 -0.21526711448E+02  0.39985466138E+02  0.00000000000E+00 0. -1.
         -3    1    4    4    0  502  0.45976415127E+01 -0.36644154359E+02  0.32272570503E+02  0.49045399000E+02  0.00000000000E+00 0.  1.
          5    1    3    3  503    0 -0.64807002966E+02  0.15389944498E+01  0.10144233703E+03  0.12047802239E+03  0.47000000000E+01 0. -1.
         11    1    6    6    0    0 -0.10852194403E+02  0.36540303693E+02 -0.10724915122E+03  0.11382154610E+03  0.00000000000E+00 0. -1.
        -12    1    6    6    0    0  0.36716917096E+02 -0.12650969976E+02 -0.32951153391E+02  0.50930909595E+02  0.00000000000E+00 0.  1.
         -5    1    5    5    0  501  0.71264781756E+01 -0.86489650433E+01 -0.48158587025E+03  0.48173917395E+03  0.47000000000E+01 0.  1.
<mgrwt>
<rscale>  2 0.17697621E+03</rscale>
<asrwt>0</asrwt>
<pdfrwt beam="1">  1        1 0.26646349E-01 0.17697621E+03</pdfrwt>
<pdfrwt beam="2">  1       -1 0.10504604E+00 0.17697621E+03</pdfrwt>
<totfact> 0.16191897E+02</totfact>
</mgrwt>
</event>
<event>
12    1  0.5759937E-002  0.2292255E+03  0.7546771E-02  0.1127186E+00
         -2   -1    0    0    0  501 -0.00000000000E+00  0.00000000000E+00  0.15366440956E+02  0.15366440956E+02  0.00000000000E+00 0.  1.
          2   -1    0    0  503    0  0.00000000000E+00 -0.00000000000E+00 -0.37181034785E+04  0.37181034785E+04  0.00000000000E+00 0. -1.
          6    2    1    2  503    0 -0.14392250550E+03 -0.90397107934E+01 -0.23950397760E+04  0.24061761012E+04  0.18075535163E+03 0.  0.
         24    2    3    3    0    0 -0.57266158964E+02 -0.64209207852E+02 -0.93132330455E+03  0.93885166716E+03  0.81713646233E+02 0.  0.
         -6    2    1    2    0  501  0.14392250550E+03  0.90397107934E+01 -0.13076972615E+04  0.13272938183E+04  0.17561705017E+03 0.  0.
        -24    2    5    5    0    0  0.99586238409E+02  0.63666509588E+02 -0.10656315758E+04  0.10751675049E+04  0.80272441138E+02 0.  0.
          4    1    4    4  502    0  0.14308481723E+02 -0.14528263437E+02 -0.64161359066E+02  0.67323718591E+02  0.00000000000E+00 0. -1.
         -3    1    4    4    0  502 -0.71574640687E+02 -0.49680944415E+02 -0.86716194549E+03  0.87152794857E+03  0.00000000000E+00 0.  1.
          5    1    3    3  503    0 -0.86656346538E+02  0.55169497059E+02 -0.14637164715E+04  0.14673244340E+04  0.47000000000E+01 0. -1.
         13    1    6    6    0    0  0.11004740642E+03  0.44576126629E+02 -0.96012390075E+03  0.96743752642E+03  0.00000000000E+00 0. -1.
        -14    1    6    6    0    0 -0.10461168015E+02  0.19090382959E+02 -0.10550767510E+03  0.10772997848E+03  0.00000000000E+00 0.  1.
         -5    1    5    5    0  501  0.44336267093E+02 -0.54626798795E+02 -0.24206568569E+03  0.25212631342E+03  0.47000000000E+01 0.  1.
<mgrwt>
<rscale>  2 0.22922554E+03</rscale>
<asrwt>0</asrwt>
<pdfrwt beam="2">  1        2 0.57201602E+00 0.22922554E+03</pdfrwt>
<pdfrwt beam="1">  1       -2 0.23640674E-02 0.22922554E+03</pdfrwt>
<totfact> 0.44046926E+02</totfact>
</mgrwt>
</event>
<event>
12    1  0.5759937E-002  0.1741225E+03  0.7546771E-02  0.1173616E+00
          1   -1    0    0  503    0  0.00000000000E+00  0.00000000000E+00  0.21060661326E+03  0.21060661326E+03  0.00000000000E+00 0.  1.
         -1   -1    0    0    0  501 -0.00000000000E+00 -0.00000000000E+00 -0.14901326587E+03  0.14901326587E+03  0.00000000000E+00 0. -1.
          6    2    1    2  503    0 -0.10702610526E+02 -0.57472559602E+01  0.63824404185E+02  0.18498485623E+03  0.17320007402E+03 0.  0.
         24    2    3    3    0    0  0.15028800183E+02  0.51828375545E+02  0.71438732296E+02  0.12128927685E+03  0.81826345756E+02 0.  0.
         -6    2    1    2    0  501  0.10702610526E+02  0.57472559602E+01 -0.22310567955E+01  0.17463502290E+03  0.17419769455E+03 0.  0.
        -24    2    5    5    0    0  0.49037710122E+02 -0.31592602429E+02  0.37753466560E+02  0.10766714259E+03  0.82244147599E+02 0.  0.
          4    1    4    4  502    0  0.46619356321E+02  0.35245913283E+02  0.27219296419E+02  0.64471147691E+02  0.00000000000E+00 0. -1.
         -3    1    4    4    0  502 -0.31590556138E+02  0.16582462262E+02  0.44219435877E+02  0.56818129158E+02  0.00000000000E+00 0.  1.
          5    1    3    3  503    0 -0.25731410710E+02 -0.57575631505E+02 -0.76143281114E+01  0.63695579383E+02  0.47000000000E+01 0. -1.
         11    1    6    6    0    0 -0.64892196122E+01  0.21717749896E+02  0.15774225167E+02  0.27615155465E+02  0.00000000000E+00 0. -1.
        -12    1    6    6    0    0  0.55526929734E+02 -0.53310352325E+02  0.21979241394E+02  0.80051987127E+02  0.00000000000E+00 0.  1.
         -5    1    5    5    0  501 -0.38335099596E+02  0.37339858389E+02 -0.39984523356E+02  0.66967880313E+02  0.47000000000E+01 0.  1.
<mgrwt>
<rscale>  2 0.17412247E+03</rscale>
<asrwt>0</asrwt>
<pdfrwt beam="1">  1        1 0.32401017E-01 0.17412247E+03</pdfrwt>
<pdfrwt beam="2">  1       -1 0.22925118E-01 0.17412247E+03</pdfrwt>
<totfact> 0.21733125E+03</totfact>
</mgrwt>
</event>
<event>
12    1  0.5759937E-002  0.1814469E+03  0.7546771E-02  0.1166410E+00
         -2   -1    0    0    0  501 -0.00000000000E+00  0.00000000000E+00  0.29436639404E+02  0.29436639404E+02  0.00000000000E+00 0. -1.
          2   -1    0    0  503    0  0.00000000000E+00 -0.00000000000E+00 -0.19784550939E+04  0.19784550939E+04  0.00000000000E+00 0.  1.
          6    2    1    2  503    0  0.33364645073E+02  0.41536951013E+02 -0.31361149664E+03  0.36248663298E+03  0.17379836139E+03 0.  0.
         24    2    3    3    0    0  0.46198016446E+02  0.83231354472E+02 -0.28155537373E+03  0.30814692635E+03  0.81359600836E+02 0.  0.
         -6    2    1    2    0  501 -0.33364645073E+02 -0.41536951013E+02 -0.16354069579E+04  0.16454051004E+04  0.17309970694E+03 0.  0.
        -24    2    5    5    0    0  0.21650384710E+02 -0.76084022807E+02 -0.11680112022E+04  0.11734929940E+04  0.81105615552E+02 0.  0.
          2    1    4    4  502    0  0.59140057560E+02  0.61321709242E+02 -0.13670303166E+03  0.16107643309E+03  0.00000000000E+00 0. -1.
         -1    1    4    4    0  502 -0.12942041114E+02  0.21909645230E+02 -0.14485234207E+03  0.14707049325E+03  0.00000000000E+00 0.  1.
          5    1    3    3  503    0 -0.12833371373E+02 -0.41694403459E+02 -0.32056122908E+02  0.54339706629E+02  0.47000000000E+01 0. -1.
         13    1    6    6    0    0  0.20744421216E+02 -0.24774050833E+02 -0.12146738563E+03  0.12569172756E+03  0.00000000000E+00 0. -1.
        -14    1    6    6    0    0  0.90596349371E+00 -0.51309971974E+02 -0.10465438166E+04  0.10478012665E+04  0.00000000000E+00 0.  1.
         -5    1    5    5    0  501 -0.55015029783E+02  0.34547071794E+02 -0.46739575568E+03  0.47191210633E+03  0.47000000000E+01 0.  1.
<mgrwt>
<rscale>  2 0.18144692E+03</rscale>
<asrwt>0</asrwt>
<pdfrwt beam="2">  1        2 0.30437774E+00 0.18144692E+03</pdfrwt>
<pdfrwt beam="1">  1       -2 0.45287133E-02 0.18144692E+03</pdfrwt>
<totfact> 0.17483998E+03</totfact>
</mgrwt>
</event>
<event>
12    1  0.5759937E-002  0.1778484E+03  0.7546771E-02  0.1169902E+00
         -2   -1    0    0    0  501 -0.00000000000E+00  0.00000000000E+00  0.32018440144E+02  0.32018440144E+02  0.00000000000E+00 0. -1.
          2   -1    0    0  503    0  0.00000000000E+00 -0.00000000000E+00 -0.10863273067E+04  0.10863273067E+04  0.00000000000E+00 0.  1.
          6    2    1    2  503    0 -0.20179670825E+02  0.31378590533E+02 -0.35792831505E+03  0.39953192851E+03  0.17355474101E+03 0.  0.
         24    2    3    3    0    0 -0.33194823139E+02 -0.18190876339E+02 -0.32781000883E+03  0.33990199806E+03  0.81493325698E+02 0.  0.
         -6    2    1    2    0  501  0.20179670825E+02 -0.31378590533E+02 -0.69638055151E+03  0.71881381833E+03  0.17422857932E+03 0.  0.
        -24    2    5    5    0    0  0.20840435633E+02 -0.12155594483E+02 -0.16462771911E+03  0.18669247414E+03  0.84674150516E+02 0.  0.
          4    1    4    4  502    0 -0.49235398586E+02  0.14700658626E+02 -0.22440736726E+03  0.23021490029E+03  0.00000000000E+00 0. -1.
         -3    1    4    4    0  502  0.16040575446E+02 -0.32891534965E+02 -0.10340264157E+03  0.10968709777E+03  0.00000000000E+00 0.  1.
          5    1    3    3  503    0  0.13015152315E+02  0.49569466872E+02 -0.30118306224E+02  0.59629930451E+02  0.47000000000E+01 0. -1.
         13    1    6    6    0    0  0.49266503184E+02 -0.25194449586E+02 -0.88293342149E+02  0.10420010986E+03  0.00000000000E+00 0. -1.
        -14    1    6    6    0    0 -0.28426067552E+02  0.13038855103E+02 -0.76334376959E+02  0.82492364281E+02  0.00000000000E+00 0.  1.
         -5    1    5    5    0  501 -0.66076480818E+00 -0.19222996051E+02 -0.53175283240E+03  0.53212134420E+03  0.47000000000E+01 0.  1.
<mgrwt>
<rscale>  2 0.17784837E+03</rscale>
<asrwt>0</asrwt>
<pdfrwt beam="2">  1        2 0.16712726E+00 0.17784837E+03</pdfrwt>
<pdfrwt beam="1">  1       -2 0.49259145E-02 0.17784837E+03</pdfrwt>
<totfact> 0.46055571E+03</totfact>
</mgrwt>
</event>
<event>
12    1  0.5759937E-002  0.2410012E+03  0.7546771E-02  0.1119128E+00
         -2   -1    0    0    0  501 -0.00000000000E+00  0.00000000000E+00  0.10358484320E+03  0.10358484320E+03  0.00000000000E+00 0. -1.
          2   -1    0    0  503    0  0.00000000000E+00 -0.00000000000E+00 -0.56976118446E+03  0.56976118446E+03  0.00000000000E+00 0.  1.
          6    2    1    2  503    0 -0.16001380525E+03 -0.52580287253E+02 -0.27534713753E+03  0.36580739532E+03  0.17213337807E+03 0.  0.
         24    2    3    3    0    0 -0.55268716586E+02  0.17517437065E+02 -0.18631779080E+03  0.21142624643E+03  0.81395619512E+02 0.  0.
         -6    2    1    2    0  501  0.16001380525E+03  0.52580287253E+02 -0.19082920373E+03  0.30753863234E+03  0.17261263252E+03 0.  0.
        -24    2    5    5    0    0  0.39377080726E+02  0.30542471927E+01 -0.14178389500E+03  0.16813425559E+03  0.81280822523E+02 0.  0.
          4    1    4    4  502    0 -0.67953764555E+02  0.15813891827E+02 -0.88112408577E+02  0.11239034584E+03  0.00000000000E+00 0. -1.
         -3    1    4    4    0  502  0.12685047970E+02  0.17035452384E+01 -0.98205382226E+02  0.99035900594E+02  0.00000000000E+00 0.  1.
          5    1    3    3  503    0 -0.10474508866E+03 -0.70097724318E+02 -0.89029346731E+02  0.15438114889E+03  0.47000000000E+01 0. -1.
         11    1    6    6    0    0  0.44488924815E+02  0.12084882062E+02 -0.28125784947E+02  0.54003412711E+02  0.00000000000E+00 0. -1.
        -12    1    6    6    0    0 -0.51118440893E+01 -0.90306348688E+01 -0.11365811005E+03  0.11413084288E+03  0.00000000000E+00 0.  1.
         -5    1    5    5    0  501  0.12063672452E+03  0.49526040060E+02 -0.49045308731E+02  0.13940437675E+03  0.47000000000E+01 0.  1.
<mgrwt>
<rscale>  2 0.24100115E+03</rscale>
<asrwt>0</asrwt>
<pdfrwt beam="2">  1        2 0.87655568E-01 0.24100115E+03</pdfrwt>
<pdfrwt beam="1">  1       -2 0.15936130E-01 0.24100115E+03</pdfrwt>
<totfact> 0.16543762E+03</totfact>
</mgrwt>
</event>
<event>
12    1  0.5759937E-002  0.2364280E+03  0.7546771E-02  0.1122196E+00
          1   -1    0    0  503    0  0.00000000000E+00  0.00000000000E+00  0.55236168140E+03  0.55236168140E+03  0.00000000000E+00 0.  1.
         -1   -1    0    0    0  501 -0.00000000000E+00 -0.00000000000E+00 -0.16375312177E+03  0.16375312177E+03  0.00000000000E+00 0. -1.
          6    2    1    2  503    0  0.14691734270E+03  0.60691556641E+02 -0.27306286023E+02  0.23739584142E+03  0.17419236963E+03 0.  0.
         24    2    3    3    0    0  0.13223728046E+03  0.10411768968E+03 -0.37501464861E+02  0.19020087421E+03  0.80267185307E+02 0.  0.
         -6    2    1    2    0  501 -0.14691734270E+03 -0.60691556641E+02  0.41591484565E+03  0.47871896175E+03  0.17583661414E+03 0.  0.
        -24    2    5    5    0    0 -0.31083551377E+02 -0.19362966791E+01  0.26874942724E+03  0.28237895523E+03  0.80880673229E+02 0.  0.
          4    1    4    4  502    0  0.59098516295E+02  0.55422932602E+02 -0.58411290303E+02  0.99881003806E+02  0.00000000000E+00 0. -1.
         -3    1    4    4    0  502  0.73138764163E+02  0.48694757081E+02  0.20909825442E+02  0.90319870408E+02  0.00000000000E+00 0.  1.
          5    1    3    3  503    0  0.14680062238E+02 -0.43426133042E+02  0.10195178838E+02  0.47194967209E+02  0.47000000000E+01 0. -1.
         13    1    6    6    0    0  0.51698494833E+01  0.40986153228E+01 -0.36307334041E+01  0.75304857941E+01  0.00000000000E+00 0. -1.
        -14    1    6    6    0    0 -0.36253400861E+02 -0.60349120019E+01  0.27238016065E+03  0.27484846944E+03  0.00000000000E+00 0.  1.
         -5    1    5    5    0  501 -0.11583379132E+03 -0.58755259962E+02  0.14716541841E+03  0.19634000652E+03  0.47000000000E+01 0.  1.
<mgrwt>
<rscale>  2 0.23642796E+03</rscale>
<asrwt>0</asrwt>
<pdfrwt beam="1">  1        1 0.84978720E-01 0.23642796E+03</pdfrwt>
<pdfrwt beam="2">  1       -1 0.25192788E-01 0.23642796E+03</pdfrwt>
<totfact> 0.54588210E+02</totfact>
</mgrwt>
</event>
<event>
12    1  0.5759937E-002  0.2080038E+03  0.7546771E-02  0.1143157E+00
          2   -1    0    0  503    0  0.00000000000E+00  0.00000000000E+00  0.69974122137E+03  0.69974122137E+03  0.00000000000E+00 0. -1.
         -2   -1    0    0    0  501 -0.00000000000E+00 -0.00000000000E+00 -0.66420124434E+02  0.66420124434E+02  0.00000000000E+00 0.  1.
          6    2    1    2  503    0  0.75135729206E+02  0.82617805412E+02  0.41863059925E+03  0.46786418872E+03  0.17656228613E+03 0.  0.
         24    2    3    3    0    0  0.54068767246E+01  0.10362446065E+03  0.22337053711E+03  0.25941281717E+03  0.81445378649E+02 0.  0.
         -6    2    1    2    0  501 -0.75135729206E+02 -0.82617805412E+02  0.21469049769E+03  0.29829715709E+03  0.17440786838E+03 0.  0.
        -24    2    5    5    0    0 -0.80722468071E+02 -0.11938888542E+03  0.14163597120E+03  0.21618517370E+03  0.76846978951E+02 0.  0.
          2    1    4    4  502    0 -0.26080830459E+02  0.92669098778E+02  0.14282786204E+03  0.17224276403E+03  0.00000000000E+00 0. -1.
         -1    1    4    4    0  502  0.31487707184E+02  0.10955361873E+02  0.80542675065E+02  0.87170053138E+02  0.00000000000E+00 0.  1.
          5    1    3    3  503    0  0.69728852481E+02 -0.21006655239E+02  0.19526006214E+03  0.20845137155E+03  0.47000000000E+01 0. -1.
         11    1    6    6    0    0  0.74052698332E+01 -0.45703707038E+02  0.57349325317E+02  0.73706254637E+02  0.00000000000E+00 0. -1.
        -12    1    6    6    0    0 -0.88127737905E+02 -0.73685178384E+02  0.84286645884E+02  0.14247891906E+03  0.00000000000E+00 0.  1.
         -5    1    5    5    0  501  0.55867388656E+01  0.36771080010E+02  0.73054526484E+02  0.82111983389E+02  0.47000000000E+01 0.  1.
<mgrwt>
<rscale>  2 0.20800385E+03</rscale>
<asrwt>0</asrwt>
<pdfrwt beam="1">  1        2 0.10765249E+00 0.20800385E+03</pdfrwt>
<pdfrwt beam="2">  1       -2 0.10218481E-01 0.20800385E+03</pdfrwt>
<totfact> 0.26684720E+03</totfact>
</mgrwt>
</event>
<event>
12    1  0.5759937E-002  0.1864407E+03  0.7546771E-02  0.1161711E+00
          3   -1    0    0  503    0  0.00000000000E+00  0.00000000000E+00  0.41970244249E+03  0.41970244249E+03  0.00000000000E+00 0. -1.
         -3   -1    0    0    0  501 -0.00000000000E+00 -0.00000000000E+00 -0.87361613823E+02  0.87361613823E+02  0.00000000000E+00 0.  1.
          6    2    1    2  503    0 -0.58803819604E+02 -0.40027463384E+02  0.22401591610E+03  0.29148407309E+03  0.17239416225E+03 0.  0.
         24    2    3    3    0    0 -0.39741043318E+02 -0.16173671505E+02  0.24032510941E+03  0.25654880992E+03  0.78868215932E+02 0.  0.
         -6    2    1    2    0  501  0.58803819604E+02  0.40027463384E+02  0.10832491257E+03  0.21557998322E+03  0.17227987536E+03 0.  0.
        -24    2    5    5    0    0  0.57078069435E+02 -0.31481940295E+01  0.13322801110E+03  0.16548637162E+03  0.79801122248E+02 0.  0.
          2    1    4    4  502    0 -0.57001806965E+02 -0.10189056776E+02  0.22609364352E+03  0.23339099922E+03  0.00000000000E+00 0. -1.
         -1    1    4    4    0  502  0.17260763648E+02 -0.59846147284E+01  0.14231465889E+02  0.23157810702E+02  0.00000000000E+00 0.  1.
          5    1    3    3  503    0 -0.19062776286E+02 -0.23853791880E+02 -0.16309193312E+02  0.34935263177E+02  0.47000000000E+01 0. -1.
         13    1    6    6    0    0  0.32611931588E+02 -0.40979371920E+02  0.81641743872E+02  0.96995986243E+02  0.00000000000E+00 0. -1.
        -14    1    6    6    0    0  0.24466137847E+02  0.37831177890E+02  0.51586267231E+02  0.68490385373E+02  0.00000000000E+00 0.  1.
         -5    1    5    5    0  501  0.17257501692E+01  0.43175657414E+02 -0.24903098532E+02  0.50093611601E+02  0.47000000000E+01 0.  1.
<mgrwt>
<rscale>  2 0.18644070E+03</rscale>
<asrwt>0</asrwt>
<pdfrwt beam="1">  1        3 0.64569606E-01 0.18644070E+03</pdfrwt>
<pdfrwt beam="2">  1       -3 0.13440248E-01 0.18644070E+03</pdfrwt>
<totfact> 0.25663970E+02</totfact>
</mgrwt>
</event>
<event>
12    1  0.5759937E-002  0.1898185E+03  0.7546771E-02  0.1158625E+00
          2   -1    0    0  503    0  0.00000000000E+00  0.00000000000E+00  0.67338818616E+03  0.67338818616E+03  0.00000000000E+00 0.  1.
         -2   -1    0    0    0  501 -0.00000000000E+00 -0.00000000000E+00 -0.76188986259E+02  0.76188986259E+02  0.00000000000E+00 0. -1.
          6    2    1    2  503    0  0.69285720794E+02 -0.30336425671E+02  0.50270710242E+03  0.53722756942E+03  0.17371879775E+03 0.  0.
         24    2    3    3    0    0  0.67372461760E+02  0.42286482939E+02  0.31180899459E+03  0.33291916287E+03  0.85341224822E+02 0.  0.
         -6    2    1    2    0  501 -0.69285720794E+02  0.30336425671E+02  0.94492097486E+02  0.21234960300E+03  0.17447861640E+03 0.  0.
        -24    2    5    5    0    0 -0.96564830878E+02 -0.20086000568E+02  0.38713376094E+02  0.13222515808E+03  0.79098375193E+02 0.  0.
          4    1    4    4  502    0 -0.19921971587E+02  0.96809699620E+01  0.42184774870E+02  0.47646210365E+02  0.00000000000E+00 0. -1.
         -3    1    4    4    0  502  0.87294433347E+02  0.32605512977E+02  0.26962421972E+03  0.28527295250E+03  0.00000000000E+00 0.  1.
          5    1    3    3  503    0  0.19132590337E+01 -0.72622908610E+02  0.19089810783E+03  0.20430840655E+03  0.47000000000E+01 0. -1.
         13    1    6    6    0    0 -0.16326294234E+02 -0.20108359818E+02  0.44807791902E+02  0.51755504375E+02  0.00000000000E+00 0. -1.
        -14    1    6    6    0    0 -0.80238536644E+02  0.22359249767E-01 -0.60944158074E+01  0.80469653700E+02  0.00000000000E+00 0.  1.
         -5    1    5    5    0  501  0.27279110084E+02  0.50422426239E+02  0.55778721392E+02  0.80124444927E+02  0.47000000000E+01 0.  1.
<mgrwt>
<rscale>  2 0.18981852E+03</rscale>
<asrwt>0</asrwt>
<pdfrwt beam="1">  1        2 0.10359818E+00 0.18981852E+03</pdfrwt>
<pdfrwt beam="2">  1       -2 0.11721383E-01 0.18981852E+03</pdfrwt>
<totfact> 0.22395646E+03</totfact>
</mgrwt>
</event>
<event>
12    1  0.5759937E-002  0.2102099E+03  0.7546771E-02  0.1141400E+00
          1   -1    0    0  503    0  0.00000000000E+00  0.00000000000E+00  0.12049348934E+04  0.12049348934E+04  0.00000000000E+00 0. -1.
         -1   -1    0    0    0  501 -0.00000000000E+00 -0.00000000000E+00 -0.50615447760E+02  0.50615447760E+02  0.00000000000E+00 0.  1.
          6    2    1    2  503    0  0.11667225428E+03  0.36796875259E+02  0.90270531807E+03  0.92641790839E+03  0.16854324302E+03 0.  0.
         24    2    3    3    0    0  0.34231506447E+02 -0.30215606058E+02  0.55671721721E+03  0.56445519554E+03  0.81183920544E+02 0.  0.
         -6    2    1    2    0  501 -0.11667225428E+03 -0.36796875259E+02  0.25161412755E+03  0.32913243275E+03  0.17335531188E+03 0.  0.
        -24    2    5    5    0    0 -0.78853518233E+02 -0.68133499403E+02  0.11518487578E+03  0.18405565463E+03  0.98736403197E+02 0.  0.
          2    1    4    4  502    0 -0.20577287567E+02 -0.23032539006E+00  0.52611521668E+02  0.56492920138E+02  0.00000000000E+00 0. -1.
         -1    1    4    4    0  502  0.54808794014E+02 -0.29985280667E+02  0.50410569554E+03  0.50796227541E+03  0.00000000000E+00 0.  1.
          5    1    3    3  503    0  0.82440747834E+02  0.67012481316E+02  0.34598810086E+03  0.36196271285E+03  0.47000000000E+01 0. -1.
         11    1    6    6    0    0  0.17975904423E+02 -0.37753668969E+02  0.28662660839E+02  0.50695372440E+02  0.00000000000E+00 0. -1.
        -12    1    6    6    0    0 -0.96829422656E+02 -0.30379830434E+02  0.86522214938E+02  0.13336028219E+03  0.00000000000E+00 0.  1.
         -5    1    5    5    0  501 -0.37818736048E+02  0.31336624144E+02  0.13642925177E+03  0.14507677812E+03  0.47000000000E+01 0.  1.
<mgrwt>
<rscale>  2 0.21020993E+03</rscale>
<asrwt>0</asrwt>
<pdfrwt beam="1">  1        1 0.18537458E+00 0.21020993E+03</pdfrwt>
<pdfrwt beam="2">  1       -1 0.77869929E-02 0.21020993E+03</pdfrwt>
<totfact> 0.10235723E+03</totfact>
</mgrwt>
</event>
<event>
12    1  0.5759937E-002  0.2057821E+03  0.7546771E-02  0.1144950E+00
         -1   -1    0    0    0  501 -0.00000000000E+00  0.00000000000E+00  0.64218865192E+03  0.64218865192E+03  0.00000000000E+00 0. -1.
          1   -1    0    0  503    0  0.00000000000E+00 -0.00000000000E+00 -0.70301408373E+02  0.70301408373E+02  0.00000000000E+00 0.  1.
          6    2    1    2  503    0 -0.86513498694E+01 -0.10738954938E+03  0.37632239254E+03  0.42953327688E+03  0.17684154389E+03 0.  0.
         24    2    3    3    0    0 -0.37499931103E+01 -0.13168086292E+03  0.19978923593E+03  0.25120734888E+03  0.76390321592E+02 0.  0.
         -6    2    1    2    0  501  0.86513498694E+01  0.10738954938E+03  0.19556485100E+03  0.28295678341E+03  0.17381475530E+03 0.  0.
        -24    2    5    5    0    0 -0.44880481389E+02  0.78925892617E+02  0.18580123631E+03  0.22136737778E+03  0.78980139240E+02 0.  0.
          2    1    4    4  502    0  0.34947622059E+00 -0.14147101066E+03  0.18237257405E+03  0.23081144850E+03  0.00000000000E+00 0. -1.
         -1    1    4    4    0  502 -0.40994693309E+01  0.97901477435E+01  0.17416661875E+02  0.20395900385E+02  0.00000000000E+00 0.  1.
          5    1    3    3  503    0 -0.49013567591E+01  0.24291313533E+02  0.17653315662E+03  0.17832592800E+03  0.47000000000E+01 0. -1.
         13    1    6    6    0    0  0.86999812258E+01 -0.50535157461E+01 -0.53422800409E+00  0.10075370677E+02  0.00000000000E+00 0. -1.
        -14    1    6    6    0    0 -0.53580462615E+02  0.83979408363E+02  0.18633546432E+03  0.21129200710E+03  0.00000000000E+00 0.  1.
         -5    1    5    5    0  501  0.53531831258E+02  0.28463656767E+02  0.97636146905E+01  0.61589405633E+02  0.47000000000E+01 0.  1.
<mgrwt>
<rscale>  2 0.20578213E+03</rscale>
<asrwt>0</asrwt>
<pdfrwt beam="2">  1        1 0.10815602E-01 0.20578213E+03</pdfrwt>
<pdfrwt beam="1">  1       -1 0.98798250E-01 0.20578213E+03</pdfrwt>
<totfact> 0.59707711E+02</totfact>
</mgrwt>
</event>
<event>
12    1  0.5759937E-002  0.1858487E+03  0.7546771E-02  0.1162260E+00
          1   -1    0    0  503    0  0.00000000000E+00  0.00000000000E+00  0.16003487700E+04  0.16003487700E+04  0.00000000000E+00 0.  1.
         -1   -1    0    0    0  501 -0.00000000000E+00 -0.00000000000E+00 -0.40047462965E+02  0.40047462965E+02  0.00000000000E+00 0. -1.
          6    2    1    2  503    0 -0.50646385525E+01 -0.66498032813E+02  0.13369134608E+04  0.13497589296E+04  0.17338952588E+03 0.  0.
         24    2    3    3    0    0 -0.12388325264E+02 -0.58171016542E+02  0.37459975721E+03  0.38736985572E+03  0.78696183199E+02 0.  0.
         -6    2    1    2    0  501  0.50646385525E+01  0.66498032813E+02  0.22338784630E+03  0.29063730333E+03  0.17355193253E+03 0.  0.
        -24    2    5    5    0    0  0.15005043648E+02 -0.30265530265E+02  0.93995476402E+02  0.12869140440E+03  0.81149087033E+02 0.  0.
          2    1    4    4  502    0 -0.25684015850E+02 -0.36480775688E+02  0.79402885839E+02  0.91078723885E+02  0.00000000000E+00 0. -1.
         -1    1    4    4    0  502  0.13295690586E+02 -0.21690240854E+02  0.29519687137E+03  0.29629113184E+03  0.00000000000E+00 0.  1.
          5    1    3    3  503    0  0.73236867110E+01 -0.83270162708E+01  0.96231370354E+03  0.96238907393E+03  0.47000000000E+01 0. -1.
         11    1    6    6    0    0 -0.15190262463E+02  0.68917389112E+01 -0.60784605253E+01  0.17753529826E+02  0.00000000000E+00 0. -1.
        -12    1    6    6    0    0  0.30195306111E+02 -0.37157269176E+02  0.10007393693E+03  0.11093787458E+03  0.00000000000E+00 0.  1.
         -5    1    5    5    0  501 -0.99404050957E+01  0.96763563078E+02  0.12939236990E+03  0.16194589893E+03  0.47000000000E+01 0.  1.
<mgrwt>
<rscale>  2 0.18584867E+03</rscale>
<asrwt>0</asrwt>
<pdfrwt beam="1">  1        1 0.24620745E+00 0.18584867E+03</pdfrwt>
<pdfrwt beam="2">  1       -1 0.61611494E-02 0.18584867E+03</pdfrwt>
<totfact> 0.79596364E+02</totfact>
</mgrwt>
</event>
<event>
12    1  0.5759937E-002  0.1736635E+03  0.7546771E-02  0.1174080E+00
         -2   -1    0    0    0  501 -0.00000000000E+00  0.00000000000E+00  0.22976595526E+03  0.22976595526E+03  0.00000000000E+00 0. -1.
          2   -1    0    0  503    0  0.00000000000E+00 -0.00000000000E+00 -0.13350209342E+03  0.13350209342E+03  0.00000000000E+00 0.  1.
          6    2    1    2  503    0  0.10595991276E+02 -0.22083051892E+01  0.71390511820E+02  0.18688322290E+03  0.17237047944E+03 0.  0.
         24    2    3    3    0    0  0.45173977702E+02  0.49318797238E+02  0.22983027831E+02  0.10804126747E+03  0.81680253956E+02 0.  0.
         -6    2    1    2    0  501 -0.10595991276E+02  0.22083051892E+01  0.24873350020E+02  0.17638482579E+03  0.17428646414E+03 0.  0.
        -24    2    5    5    0    0  0.46482384258E+02  0.39515612023E+02  0.15231958103E+02  0.10735713181E+03  0.87014053830E+02 0.  0.
          2    1    4    4  502    0  0.55375253750E+02  0.17349948398E+00  0.12018456982E+02  0.56664734520E+02  0.00000000000E+00 0. -1.
         -1    1    4    4    0  502 -0.10201276048E+02  0.49145297754E+02  0.10964570849E+02  0.51376532953E+02  0.00000000000E+00 0.  1.
          5    1    3    3  503    0 -0.34577986426E+02 -0.51527102428E+02  0.48407483989E+02  0.78841955430E+02  0.47000000000E+01 0. -1.
         13    1    6    6    0    0  0.43181094200E+02 -0.16752620348E+02  0.20690913545E+02  0.50728405141E+02  0.00000000000E+00 0. -1.
        -14    1    6    6    0    0  0.33012900578E+01  0.56268232370E+02 -0.54589554421E+01  0.56628726673E+02  0.00000000000E+00 0.  1.
         -5    1    5    5    0  501 -0.57078375534E+02 -0.37307306833E+02  0.96413919169E+01  0.69027693970E+02  0.47000000000E+01 0.  1.
<mgrwt>
<rscale>  2 0.17366347E+03</rscale>
<asrwt>0</asrwt>
<pdfrwt beam="2">  1        2 0.20538784E-01 0.17366347E+03</pdfrwt>
<pdfrwt beam="1">  1       -2 0.35348609E-01 0.17366347E+03</pdfrwt>
<totfact> 0.19925286E+03</totfact>
</mgrwt>
</event>
<event>
12    1  0.5759937E-002  0.2039913E+03  0.7546771E-02  0.1146415E+00
         -2   -1    0    0    0  501 -0.00000000000E+00  0.00000000000E+00  0.49798318648E+02  0.49798318648E+02  0.00000000000E+00 0.  1.
          2   -1    0    0  503    0  0.00000000000E+00 -0.00000000000E+00 -0.95316632989E+03  0.95316632989E+03  0.00000000000E+00 0. -1.
          6    2    1    2  503    0 -0.10640352900E+03  0.16162373462E+02 -0.62846809224E+03  0.66085368404E+03  0.17370237606E+03 0.  0.
         24    2    3    3    0    0 -0.88063612686E+02 -0.33898181109E+01 -0.20766573901E+03  0.23917210843E+03  0.79445248735E+02 0.  0.
         -6    2    1    2    0  501  0.10640352900E+03 -0.16162373462E+02 -0.27489991900E+03  0.34211096450E+03  0.17287860846E+03 0.  0.
        -24    2    5    5    0    0  0.87968955100E+02  0.10380667396E+02 -0.84746876888E+02  0.14917409410E+03  0.84997540504E+02 0.  0.
          4    1    4    4  502    0 -0.74914766977E+01  0.26533103440E+02 -0.24666789820E+02  0.36994301200E+02  0.00000000000E+00 0. -1.
         -3    1    4    4    0  502 -0.80572135988E+02 -0.29922921551E+02 -0.18299894919E+03  0.20217780723E+03  0.00000000000E+00 0.  1.
          5    1    3    3  503    0 -0.18339916311E+02  0.19552191573E+02 -0.42080235323E+03  0.42168157561E+03  0.47000000000E+01 0. -1.
         13    1    6    6    0    0  0.42316363781E+02 -0.29036843089E+02 -0.70496614145E+02  0.87198540734E+02  0.00000000000E+00 0. -1.
        -14    1    6    6    0    0  0.45652591320E+02  0.39417510485E+02 -0.14250262744E+02  0.61975553368E+02  0.00000000000E+00 0.  1.
         -5    1    5    5    0  501  0.18434573897E+02 -0.26543040858E+02 -0.19015304211E+03  0.19293687040E+03  0.47000000000E+01 0.  1.
<mgrwt>
<rscale>  2 0.20399131E+03</rscale>
<asrwt>0</asrwt>
<pdfrwt beam="2">  1        2 0.14664097E+00 0.20399131E+03</pdfrwt>
<pdfrwt beam="1">  1       -2 0.76612801E-02 0.20399131E+03</pdfrwt>
<totfact> 0.28245899E+03</totfact>
</mgrwt>
</event>
<event>
12    1  0.5759937E-002  0.1976539E+03  0.7546771E-02  0.1151734E+00
         -2   -1    0    0    0  501 -0.00000000000E+00  0.00000000000E+00  0.42357952891E+02  0.42357952891E+02  0.00000000000E+00 0.  1.
          2   -1    0    0  503    0  0.00000000000E+00 -0.00000000000E+00 -0.11424466404E+04  0.11424466404E+04  0.00000000000E+00 0. -1.
          6    2    1    2  503    0 -0.92628837657E+02 -0.13469392783E+02 -0.29286730750E+03  0.35403579076E+03  0.17552366002E+03 0.  0.
         24    2    3    3    0    0 -0.73882994974E+01 -0.67743224962E+01 -0.42362166934E+02  0.89298772640E+02  0.77969476034E+02 0.  0.
         -6    2    1    2    0  501  0.92628837657E+02  0.13469392783E+02 -0.80722137998E+03  0.83076880251E+03  0.17265260151E+03 0.  0.
        -24    2    5    5    0    0  0.42561241128E+02 -0.18960342210E+02 -0.17665364671E+03  0.19736829084E+03  0.74677824754E+02 0.  0.
          4    1    4    4  502    0  0.27619597221E+02  0.15940736661E+02 -0.31665058354E+01  0.32046466188E+02  0.00000000000E+00 0. -1.
         -3    1    4    4    0  502 -0.35007896718E+02 -0.22715059157E+02 -0.39195661098E+02  0.57252306452E+02  0.00000000000E+00 0.  1.
          5    1    3    3  503    0 -0.85240538160E+02 -0.66950702867E+01 -0.25050514057E+03  0.26473701812E+03  0.47000000000E+01 0. -1.
         13    1    6    6    0    0  0.56738782595E+02 -0.20998448748E+00 -0.15627942309E+03  0.16626061357E+03  0.00000000000E+00 0. -1.
        -14    1    6    6    0    0 -0.14177541468E+02 -0.18750357723E+02 -0.20374223615E+02  0.31107677263E+02  0.00000000000E+00 0.  1.
         -5    1    5    5    0  501  0.50067596530E+02  0.32429734993E+02 -0.63056773328E+03  0.63340051167E+03  0.47000000000E+01 0.  1.
<mgrwt>
<rscale>  2 0.19765391E+03</rscale>
<asrwt>0</asrwt>
<pdfrwt beam="2">  1        2 0.17576103E+00 0.19765391E+03</pdfrwt>
<pdfrwt beam="1">  1       -2 0.65166079E-02 0.19765391E+03</pdfrwt>
<totfact> 0.27968665E+03</totfact>
</mgrwt>
</event>
<event>
12    1  0.5759937E-002  0.2501012E+03  0.7546771E-02  0.1113241E+00
         -1   -1    0    0    0  501 -0.00000000000E+00  0.00000000000E+00  0.56720543353E+02  0.56720543353E+02  0.00000000000E+00 0. -1.
          1   -1    0    0  503    0  0.00000000000E+00 -0.00000000000E+00 -0.11863371840E+04  0.11863371840E+04  0.00000000000E+00 0.  1.
          6    2    1    2  503    0 -0.12607494219E+03  0.12822544714E+03 -0.73166232102E+03  0.77352517654E+03  0.17514220052E+03 0.  0.
         24    2    3    3    0    0 -0.44597282789E+02  0.57442356488E+02 -0.56058673292E+03  0.57119425516E+03  0.81956391151E+02 0.  0.
         -6    2    1    2    0  501  0.12607494219E+03 -0.12822544714E+03 -0.39795431965E+03  0.46953255083E+03  0.17250078093E+03 0.  0.
        -24    2    5    5    0    0  0.15386979087E+03 -0.81572576971E+02 -0.27858278120E+03  0.33830489330E+03  0.80695954033E+02 0.  0.
          2    1    4    4  502    0 -0.13529594919E+02  0.63007117976E+02 -0.22270145319E+03  0.23183805578E+03  0.00000000000E+00 0. -1.
         -1    1    4    4    0  502 -0.31067687870E+02 -0.55647614883E+01 -0.33788527973E+03  0.33935619938E+03  0.00000000000E+00 0.  1.
          5    1    3    3  503    0 -0.81477659399E+02  0.70783090654E+02 -0.17107558810E+03  0.20233092138E+03  0.47000000000E+01 0. -1.
         11    1    6    6    0    0  0.46970906557E+02 -0.66510807120E+02 -0.93009744987E+02  0.12361539625E+03  0.00000000000E+00 0. -1.
        -12    1    6    6    0    0  0.10689888431E+03 -0.15061769851E+02 -0.18557303621E+03  0.21468949706E+03  0.00000000000E+00 0.  1.
         -5    1    5    5    0  501 -0.27794848680E+02 -0.46652870171E+02 -0.11937153845E+03  0.13122765753E+03  0.47000000000E+01 0.  1.
<mgrwt>
<rscale>  2 0.25010123E+03</rscale>
<asrwt>0</asrwt>
<pdfrwt beam="2">  1        1 0.18251341E+00 0.25010123E+03</pdfrwt>
<pdfrwt beam="1">  1       -1 0.87262378E-02 0.25010123E+03</pdfrwt>
<totfact> 0.88400834E+02</totfact>
</mgrwt>
</event>
<event>
12    1  0.5759937E-002  0.2415347E+03  0.7546771E-02  0.1118775E+00
         -2   -1    0    0    0  501 -0.00000000000E+00  0.00000000000E+00  0.20107990587E+02  0.20107990587E+02  0.00000000000E+00 0. -1.
          2   -1    0    0  503    0  0.00000000000E+00 -0.00000000000E+00 -0.29319863806E+04  0.29319863806E+04  0.00000000000E+00 0.  1.
          6    2    1    2  503    0 -0.11443430530E+02 -0.16873365410E+03 -0.13017186927E+04  0.13238394549E+04  0.17168968905E+03 0.  0.
         24    2    3    3    0    0 -0.45593128708E+02 -0.50688433304E+02 -0.81068706111E+03  0.81764282388E+03  0.81720412051E+02 0.  0.
         -6    2    1    2    0  501  0.11443430530E+02  0.16873365410E+03 -0.16101596973E+04  0.16282549163E+04  0.17319879734E+03 0.  0.
        -24    2    5    5    0    0 -0.47070563701E+02  0.59018403097E+02 -0.53518745758E+03  0.54610486660E+03  0.78141542723E+02 0.  0.
          4    1    4    4  502    0 -0.20053214136E+02 -0.64152342535E+02 -0.70116653335E+03  0.70438069390E+03  0.00000000000E+00 0. -1.
         -3    1    4    4    0  502 -0.25539914571E+02  0.13463909231E+02 -0.10952052776E+03  0.11326212998E+03  0.00000000000E+00 0.  1.
          5    1    3    3  503    0  0.34149698177E+02 -0.11804522080E+03 -0.49103163159E+03  0.50619663102E+03  0.47000000000E+01 0. -1.
         13    1    6    6    0    0 -0.33386922011E+02  0.56255414827E+02 -0.19596620486E+03  0.20659649490E+03  0.00000000000E+00 0. -1.
        -14    1    6    6    0    0 -0.13683641690E+02  0.27629882705E+01 -0.33922125272E+03  0.33950837170E+03  0.00000000000E+00 0.  1.
         -5    1    5    5    0  501  0.58513994231E+02  0.10971525100E+03 -0.10749722397E+04  0.10821500497E+04  0.47000000000E+01 0.  1.
<mgrwt>
<rscale>  2 0.24153469E+03</rscale>
<asrwt>0</asrwt>
<pdfrwt beam="2">  1        2 0.45107486E+00 0.24153469E+03</pdfrwt>
<pdfrwt beam="1">  1       -2 0.30935368E-02 0.24153469E+03</pdfrwt>
<totfact> 0.92940360E+02</totfact>
</mgrwt>
</event>
<event>
12    1  0.5759937E-002  0.2177238E+03  0.7546771E-02  0.1135591E+00
         -1   -1    0    0    0  501 -0.00000000000E+00  0.00000000000E+00  0.42608858087E+03  0.42608858087E+03  0.00000000000E+00 0.  1.
          1   -1    0    0  503    0  0.00000000000E+00 -0.00000000000E+00 -0.15695705676E+03  0.15695705676E+03  0.00000000000E+00 0. -1.
          6    2    1    2  503    0  0.11439491321E+03 -0.66384312510E+02  0.29206853645E+03  0.36455411167E+03  0.17350100068E+03 0.  0.
         24    2    3    3    0    0 -0.10006297680E+02 -0.12980904763E+02  0.11633971548E+03  0.14267510467E+03  0.80948293446E+02 0.  0.
         -6    2    1    2    0  501 -0.11439491321E+03  0.66384312510E+02 -0.22937012332E+02  0.21849152596E+03  0.17239306038E+03 0.  0.
        -24    2    5    5    0    0 -0.82251641462E+02 -0.22229343483E+02 -0.36455947612E+02  0.12314782371E+03  0.81097929286E+02 0.  0.
          2    1    4    4  502    0  0.32775011999E+02  0.35973184321E+01  0.28531581197E+02  0.43602674655E+02  0.00000000000E+00 0. -1.
         -1    1    4    4    0  502 -0.42781309678E+02 -0.16578223195E+02  0.87808134286E+02  0.99072430014E+02  0.00000000000E+00 0.  1.
          5    1    3    3  503    0  0.12440121089E+03 -0.53403407747E+02  0.17572882096E+03  0.22187900700E+03  0.47000000000E+01 0. -1.
         11    1    6    6    0    0  0.11441883906E+02 -0.90644764890E+01 -0.23480880638E+02  0.27648385068E+02  0.00000000000E+00 0. -1.
        -12    1    6    6    0    0 -0.93693525368E+02 -0.13164866994E+02 -0.12975066974E+02  0.95499438647E+02  0.00000000000E+00 0.  1.
         -5    1    5    5    0  501 -0.32143271746E+02  0.88613655992E+02  0.13518935280E+02  0.95343702246E+02  0.47000000000E+01 0.  1.
<mgrwt>
<rscale>  2 0.21772383E+03</rscale>
<asrwt>0</asrwt>
<pdfrwt beam="2">  1        1 0.24147240E-01 0.21772383E+03</pdfrwt>
<pdfrwt beam="1">  1       -1 0.65552089E-01 0.21772383E+03</pdfrwt>
<totfact> 0.49091618E+02</totfact>
</mgrwt>
</event>
<event>
12    1  0.5759937E-002  0.2479332E+03  0.7546771E-02  0.1114618E+00
          2   -1    0    0  503    0  0.00000000000E+00  0.00000000000E+00  0.21687160519E+04  0.21687160519E+04  0.00000000000E+00 0. -1.
         -2   -1    0    0    0  501 -0.00000000000E+00 -0.00000000000E+00 -0.30900259537E+02  0.30900259537E+02  0.00000000000E+00 0.  1.
          6    2    1    2  503    0  0.13753724923E+03 -0.11354109911E+03  0.74920032016E+03  0.78888791269E+03  0.17098228840E+03 0.  0.
         24    2    3    3    0    0  0.10676504061E+03 -0.81876341147E+02  0.71749001004E+03  0.73432400990E+03  0.79607335477E+02 0.  0.
         -6    2    1    2    0  501 -0.13753724923E+03  0.11354109911E+03  0.13886154722E+04  0.14107283987E+04  0.17347509699E+03 0.  0.
        -24    2    5    5    0    0 -0.97174636393E+02  0.62993738204E+01  0.90175036511E+03  0.91053878403E+03  0.80278043019E+02 0.  0.
          4    1    4    4  502    0  0.11678054068E+03 -0.86056241150E+02  0.67963873201E+03  0.69494760764E+03  0.00000000000E+00 0. -1.
         -3    1    4    4    0  502 -0.10015500065E+02  0.41799000032E+01  0.37851278034E+02  0.39376402253E+02  0.00000000000E+00 0.  1.
          5    1    3    3  503    0  0.30772208623E+02 -0.31664757966E+02  0.31710310121E+02  0.54563902798E+02  0.47000000000E+01 0. -1.
         13    1    6    6    0    0 -0.92435630143E+02 -0.20096081792E+02  0.57902121339E+03  0.58669733575E+03  0.00000000000E+00 0. -1.
        -14    1    6    6    0    0 -0.47390062505E+01  0.26395455613E+02  0.32272915171E+03  0.32384144828E+03  0.00000000000E+00 0.  1.
         -5    1    5    5    0  501 -0.40362612841E+02  0.10724172529E+03  0.48686510709E+03  0.50018961471E+03  0.47000000000E+01 0.  1.
<mgrwt>
<rscale>  2 0.24793316E+03</rscale>
<asrwt>0</asrwt>
<pdfrwt beam="1">  1        2 0.33364851E+00 0.24793316E+03</pdfrwt>
<pdfrwt beam="2">  1       -2 0.47538878E-02 0.24793316E+03</pdfrwt>
<totfact> 0.12826650E+03</totfact>
</mgrwt>
</event>
<event>
12    1  0.5759937E-002  0.2012000E+03  0.7546771E-02  0.1148731E+00
         -1   -1    0    0    0  501 -0.00000000000E+00  0.00000000000E+00  0.55365629457E+03  0.55365629457E+03  0.00000000000E+00 0. -1.
          1   -1    0    0  503    0  0.00000000000E+00 -0.00000000000E+00 -0.80055599966E+02  0.80055599966E+02  0.00000000000E+00 0.  1.
          6    2    1    2  503    0 -0.91135985189E+02 -0.49465547109E+02  0.14491584631E+03  0.24900165814E+03  0.17392128994E+03 0.  0.
         24    2    3    3    0    0 -0.36303769763E+02 -0.73354749847E+02  0.25456972272E+02  0.11532376751E+03  0.77153294753E+02 0.  0.
         -6    2    1    2    0  501  0.91135985189E+02  0.49465547109E+02  0.32868484829E+03  0.38471023640E+03  0.17092579777E+03 0.  0.
        -24    2    5    5    0    0  0.85641176391E+02  0.20135120641E+01  0.11116586682E+03  0.16195816378E+03  0.80833975192E+02 0.  0.
          2    1    4    4  502    0 -0.53097256448E+02 -0.35992974172E+02 -0.49075834295E+01  0.64334261535E+02  0.00000000000E+00 0. -1.
         -1    1    4    4    0  502  0.16793486685E+02 -0.37361775674E+02  0.30364555702E+02  0.50989505975E+02  0.00000000000E+00 0.  1.
          5    1    3    3  503    0 -0.54832215426E+02  0.23889202738E+02  0.11945887404E+03  0.13367789063E+03  0.47000000000E+01 0. -1.
         11    1    6    6    0    0  0.27593337244E+02 -0.31578585743E+02  0.74578984347E+02  0.85560646586E+02  0.00000000000E+00 0. -1.
        -12    1    6    6    0    0  0.58047839146E+02  0.33592097808E+02  0.36586882471E+02  0.76397517195E+02  0.00000000000E+00 0.  1.
         -5    1    5    5    0  501  0.54948087988E+01  0.47452035044E+02  0.21751898147E+03  0.22275207262E+03  0.47000000000E+01 0.  1.
<mgrwt>
<rscale>  2 0.20119999E+03</rscale>
<asrwt>0</asrwt>
<pdfrwt beam="2">  1        1 0.12316246E-01 0.20119999E+03</pdfrwt>
<pdfrwt beam="1">  1       -1 0.85177889E-01 0.20119999E+03</pdfrwt>
<totfact> 0.69146664E+02</totfact>
</mgrwt>
</event>
<event>
12    1  0.5759937E-002  0.2306990E+03  0.7546771E-02  0.1126149E+00
          2   -1    0    0  503    0  0.00000000000E+00  0.00000000000E+00  0.37818987545E+03  0.37818987545E+03  0.00000000000E+00 0.  1.
         -2   -1    0    0    0  501 -0.00000000000E+00 -0.00000000000E+00 -0.14246528214E+03  0.14246528214E+03  0.00000000000E+00 0. -1.
          6    2    1    2  503    0  0.14955113875E+03 -0.36896568711E+02  0.14650539390E+03  0.27311775288E+03  0.17147179539E+03 0.  0.
         24    2    3    3    0    0  0.13878631107E+03 -0.23978361178E+02  0.17575862748E+03  0.23905012491E+03  0.80107834447E+02 0.  0.
         -6    2    1    2    0  501 -0.14955113875E+03  0.36896568711E+02  0.89219199398E+02  0.24753740471E+03  0.17201104995E+03 0.  0.
        -24    2    5    5    0    0 -0.17890423897E+03  0.32070350860E+02  0.65677828943E+02  0.20931198130E+03  0.80390883659E+02 0.  0.
          2    1    4    4  502    0  0.12248135846E+02  0.23233880544E+02  0.37395777207E+02  0.45697638777E+02  0.00000000000E+00 0. -1.
         -1    1    4    4    0  502  0.12653817523E+03 -0.47212241723E+02  0.13836285028E+03  0.19335248614E+03  0.00000000000E+00 0.  1.
          5    1    3    3  503    0  0.10764827673E+02 -0.12918207532E+02 -0.29253233578E+02  0.34067627969E+02  0.47000000000E+01 0. -1.
         11    1    6    6    0    0 -0.95180004427E+02 -0.10730117031E+01  0.71544130228E+02  0.11907538439E+03  0.00000000000E+00 0. -1.
        -12    1    6    6    0    0 -0.83724234544E+02  0.33143362563E+02 -0.58663012843E+01  0.90236596915E+02  0.00000000000E+00 0.  1.
         -5    1    5    5    0  501  0.29353100224E+02  0.48262178511E+01  0.23541370455E+02  0.38225423404E+02  0.47000000000E+01 0.  1.
<mgrwt>
<rscale>  2 0.23069896E+03</rscale>
<asrwt>0</asrwt>
<pdfrwt beam="1">  1        2 0.58183058E-01 0.23069896E+03</pdfrwt>
<pdfrwt beam="2">  1       -2 0.21917736E-01 0.23069896E+03</pdfrwt>
<totfact> 0.15167377E+03</totfact>
</mgrwt>
</event>
<event>
12    1  0.5759937E-002  0.1796953E+03  0.7546771E-02  0.1168098E+00
          1   -1    0    0  503    0  0.00000000000E+00  0.00000000000E+00  0.44972507849E+03  0.44972507849E+03  0.00000000000E+00 0.  1.
         -1   -1    0    0    0  501 -0.00000000000E+00 -0.00000000000E+00 -0.10305535028E+03  0.10305535028E+03  0.00000000000E+00 0. -1.
          6    2    1    2  503    0  0.29920129200E+02 -0.41522629944E+02  0.32501468460E+03  0.37100433524E+03  0.17143607739E+03 0.  0.
         24    2    3    3    0    0  0.56778844775E+02 -0.17127803475E+02  0.10581001111E+03  0.14876735128E+03  0.86132267412E+02 0.  0.
         -6    2    1    2    0  501 -0.29920129200E+02  0.41522629944E+02  0.21655043614E+02  0.18177609354E+03  0.17307300292E+03 0.  0.
        -24    2    5    5    0    0  0.31597958499E+02  0.83981921732E+01 -0.33493633674E+02  0.92640409895E+02  0.79946616162E+02 0.  0.
          2    1    4    4  502    0 -0.94007419962E+01 -0.25477910599E+02  0.45862074560E+01  0.27541444722E+02  0.00000000000E+00 0. -1.
         -1    1    4    4    0  502  0.66179586771E+02  0.83501071234E+01  0.10122380366E+03  0.12122590656E+03  0.00000000000E+00 0.  1.
          5    1    3    3  503    0 -0.26858715575E+02 -0.24394826468E+02  0.21920467348E+03  0.22223698396E+03  0.47000000000E+01 0. -1.
         11    1    6    6    0    0 -0.17013148410E+02 -0.17493019296E+02 -0.28227748944E+02  0.37312983710E+02  0.00000000000E+00 0. -1.
        -12    1    6    6    0    0  0.48611106909E+02  0.25891211469E+02 -0.52658847300E+01  0.55327426185E+02  0.00000000000E+00 0.  1.
         -5    1    5    5    0  501 -0.61518087699E+02  0.33124437770E+02  0.55148677287E+02  0.89135683642E+02  0.47000000000E+01 0.  1.
<mgrwt>
<rscale>  2 0.17969532E+03</rscale>
<asrwt>0</asrwt>
<pdfrwt beam="1">  1        1 0.69188473E-01 0.17969532E+03</pdfrwt>
<pdfrwt beam="2">  1       -1 0.15854669E-01 0.17969532E+03</pdfrwt>
<totfact> 0.15179753E+03</totfact>
</mgrwt>
</event>
<event>
12    1  0.5759937E-002  0.1861065E+03  0.7546771E-02  0.1162021E+00
          2   -1    0    0  503    0  0.00000000000E+00  0.00000000000E+00  0.43228767408E+03  0.43228767408E+03  0.00000000000E+00 0.  1.
         -2   -1    0    0    0  501 -0.00000000000E+00 -0.00000000000E+00 -0.10542404541E+03  0.10542404541E+03  0.00000000000E+00 0. -1.
          6    2    1    2  503    0 -0.61862757653E+02 -0.46100282710E+02  0.29429859068E+02  0.18492634683E+03  0.16546721819E+03 0.  0.
         24    2    3    3    0    0 -0.38454478805E+02  0.29396293433E+02  0.45274656820E+02  0.10417470199E+03  0.80372165434E+02 0.  0.
         -6    2    1    2    0  501  0.61862757653E+02  0.46100282710E+02  0.29743376960E+03  0.35278537266E+03  0.17331599756E+03 0.  0.
        -24    2    5    5    0    0  0.69597318750E+02  0.41286973629E+02  0.91188868083E+02  0.14628587924E+03  0.80843972156E+02 0.  0.
          4    1    4    4  502    0 -0.61539413208E+02  0.89293402250E+01  0.23788936559E+02  0.66578870503E+02  0.00000000000E+00 0. -1.
         -3    1    4    4    0  502  0.23084934403E+02  0.20466953208E+02  0.21485720261E+02  0.37595831486E+02  0.00000000000E+00 0.  1.
          5    1    3    3  503    0 -0.23408278848E+02 -0.75496576143E+02 -0.15844797752E+02  0.80751644837E+02  0.47000000000E+01 0. -1.
         13    1    6    6    0    0  0.57993615193E+02 -0.11255348435E+02  0.59467572218E+02  0.83823233158E+02  0.00000000000E+00 0. -1.
        -14    1    6    6    0    0  0.11603703557E+02  0.52542322064E+02  0.31721295865E+02  0.62462646081E+02  0.00000000000E+00 0.  1.
         -5    1    5    5    0  501 -0.77345610974E+01  0.48133090811E+01  0.20624490152E+03  0.20649949342E+03  0.47000000000E+01 0.  1.
<mgrwt>
<rscale>  2 0.18610655E+03</rscale>
<asrwt>0</asrwt>
<pdfrwt beam="1">  1        2 0.66505795E-01 0.18610655E+03</pdfrwt>
<pdfrwt beam="2">  1       -2 0.16219084E-01 0.18610655E+03</pdfrwt>
<totfact> 0.21745993E+03</totfact>
</mgrwt>
</event>
<event>
12    1  0.5759937E-002  0.1864965E+03  0.7546771E-02  0.1161660E+00
          2   -1    0    0  503    0  0.00000000000E+00  0.00000000000E+00  0.50991476237E+03  0.50991476237E+03  0.00000000000E+00 0. -1.
         -2   -1    0    0    0  501 -0.00000000000E+00 -0.00000000000E+00 -0.10026071764E+03  0.10026071764E+03  0.00000000000E+00 0.  1.
          6    2    1    2  503    0  0.67044720668E+02  0.15063115053E+02  0.32120559405E+02  0.18896618028E+03  0.17307395803E+03 0.  0.
         24    2    3    3    0    0  0.23814647747E+02 -0.55837810229E+02  0.47036488274E+01  0.10139017103E+03  0.81073077961E+02 0.  0.
         -6    2    1    2    0  501 -0.67044720668E+02 -0.15063115053E+02  0.37753348533E+03  0.42120929973E+03  0.17367742982E+03 0.  0.
        -24    2    5    5    0    0  0.13426023348E+01 -0.43903904866E+02  0.10328741170E+03  0.13705860731E+03  0.78660135886E+02 0.  0.
          2    1    4    4  502    0 -0.87700968300E+01 -0.51453283702E+02  0.29731873206E+02  0.60069453855E+02  0.00000000000E+00 0. -1.
         -1    1    4    4    0  502  0.32584744577E+02 -0.43845265273E+01 -0.25028224379E+02  0.41320717172E+02  0.00000000000E+00 0.  1.
          5    1    3    3  503    0  0.43230072921E+02  0.70900925282E+02  0.27416910578E+02  0.87576009251E+02  0.47000000000E+01 0. -1.
         11    1    6    6    0    0 -0.26034471793E+02 -0.39089538583E+02  0.98125775295E+02  0.10878627453E+03  0.00000000000E+00 0. -1.
        -12    1    6    6    0    0  0.27377074128E+02 -0.48143662831E+01  0.51616364073E+01  0.28272332781E+02  0.00000000000E+00 0.  1.
         -5    1    5    5    0  501 -0.68387323003E+02  0.28840789812E+02  0.27424607362E+03  0.28415069242E+03  0.47000000000E+01 0.  1.
<mgrwt>
<rscale>  2 0.18649653E+03</rscale>
<asrwt>0</asrwt>
<pdfrwt beam="1">  1        2 0.78448423E-01 0.18649653E+03</pdfrwt>
<pdfrwt beam="2">  1       -2 0.15424726E-01 0.18649653E+03</pdfrwt>
<totfact> 0.19703959E+03</totfact>
</mgrwt>
</event>
<event>
12    1  0.5759937E-002  0.1921233E+03  0.7546771E-02  0.1156560E+00
          1   -1    0    0  503    0  0.00000000000E+00  0.00000000000E+00  0.75417723725E+02  0.75417723725E+02  0.00000000000E+00 0.  1.
         -1   -1    0    0    0  501 -0.00000000000E+00 -0.00000000000E+00 -0.50084998998E+03  0.50084998998E+03  0.00000000000E+00 0. -1.
          6    2    1    2  503    0  0.97770890830E+01 -0.83740659795E+02 -0.25629428851E+03  0.32034369402E+03  0.17269982745E+03 0.  0.
         24    2    3    3    0    0 -0.25664113189E+02 -0.18667263347E+02 -0.21188647816E+02  0.73792729654E+02  0.63160863887E+02 0.  0.
         -6    2    1    2    0  501 -0.97770890830E+01  0.83740659795E+02 -0.16913797775E+03  0.25592401969E+03  0.17257276367E+03 0.  0.
        -24    2    5    5    0    0  0.45141798023E+02  0.67811348583E+01 -0.11156889930E+03  0.14513078238E+03  0.80818061006E+02 0.  0.
          4    1    4    4  502    0  0.14297767237E+02 -0.26032287801E+02 -0.53400303501E+01  0.30176515376E+02  0.00000000000E+00 0. -1.
         -3    1    4    4    0  502 -0.39961880426E+02  0.73650244536E+01 -0.15848617466E+02  0.43616214278E+02  0.00000000000E+00 0.  1.
          5    1    3    3  503    0  0.35441202272E+02 -0.65073396447E+02 -0.23510564069E+03  0.24655096437E+03  0.47000000000E+01 0. -1.
         11    1    6    6    0    0  0.28687885830E+02 -0.35180562991E+02 -0.39741576581E+02  0.60332907397E+02  0.00000000000E+00 0. -1.
        -12    1    6    6    0    0  0.16453912193E+02  0.41961697849E+02 -0.71827322720E+02  0.84797874985E+02  0.00000000000E+00 0.  1.
         -5    1    5    5    0  501 -0.54918887106E+02  0.76959524937E+02 -0.57569078446E+02  0.11079323731E+03  0.47000000000E+01 0.  1.
<mgrwt>
<rscale>  2 0.19212334E+03</rscale>
<asrwt>0</asrwt>
<pdfrwt beam="1">  1        1 0.11602726E-01 0.19212334E+03</pdfrwt>
<pdfrwt beam="2">  1       -1 0.77053847E-01 0.19212334E+03</pdfrwt>
<totfact> 0.92067505E+02</totfact>
</mgrwt>
</event>
<event>
12    1  0.5759937E-002  0.1816303E+03  0.7546771E-02  0.1166234E+00
         -2   -1    0    0    0  501 -0.00000000000E+00  0.00000000000E+00  0.33647162311E+02  0.33647162311E+02  0.00000000000E+00 0. -1.
          2   -1    0    0  503    0  0.00000000000E+00 -0.00000000000E+00 -0.11591844784E+04  0.11591844784E+04  0.00000000000E+00 0.  1.
          6    2    1    2  503    0  0.15510569065E+02 -0.33748359391E+02 -0.78485310614E+03  0.80461617437E+03  0.17330106845E+03 0.  0.
         24    2    3    3    0    0  0.75868460507E+02 -0.39827837712E+02 -0.51461946627E+03  0.52761735626E+03  0.78769280867E+02 0.  0.
         -6    2    1    2    0  501 -0.15510569065E+02  0.33748359391E+02 -0.34068420990E+03  0.38821546629E+03  0.18238965946E+03 0.  0.
        -24    2    5    5    0    0 -0.24398884491E+02 -0.55043223119E+02 -0.18300430977E+03  0.20697532675E+03  0.75651480577E+02 0.  0.
          2    1    4    4  502    0  0.66159907429E+02 -0.41028536255E+00 -0.41167720267E+03  0.41695973532E+03  0.00000000000E+00 0. -1.
         -1    1    4    4    0  502  0.97085530779E+01 -0.39417552349E+02 -0.10294226360E+03  0.11065762094E+03  0.00000000000E+00 0.  1.
          5    1    3    3  503    0 -0.60357891442E+02  0.60794783206E+01 -0.27023363987E+03  0.27699881811E+03  0.47000000000E+01 0. -1.
         11    1    6    6    0    0  0.22262359363E+02 -0.19146334663E+02 -0.25721945018E+02  0.39036050402E+02  0.00000000000E+00 0. -1.
        -12    1    6    6    0    0 -0.46661243854E+02 -0.35896888456E+02 -0.15728236475E+03  0.16793927635E+03  0.00000000000E+00 0.  1.
         -5    1    5    5    0  501  0.88883154261E+01  0.88791582510E+02 -0.15767990014E+03  0.18124013955E+03  0.47000000000E+01 0.  1.
<mgrwt>
<rscale>  2 0.18163034E+03</rscale>
<asrwt>0</asrwt>
<pdfrwt beam="2">  1        2 0.17833609E+00 0.18163034E+03</pdfrwt>
<pdfrwt beam="1">  1       -2 0.51764859E-02 0.18163034E+03</pdfrwt>
<totfact> 0.38818899E+03</totfact>
</mgrwt>
</event>
<event>
12    1  0.5759937E-002  0.2418795E+03  0.7546771E-02  0.1118547E+00
          4   -1    0    0  503    0  0.00000000000E+00  0.00000000000E+00  0.13783738479E+04  0.13783738479E+04  0.00000000000E+00 0.  1.
         -4   -1    0    0    0  501 -0.00000000000E+00 -0.00000000000E+00 -0.51267810556E+02  0.51267810556E+02  0.00000000000E+00 0. -1.
          6    2    1    2  503    0 -0.11186452627E+03 -0.12957521150E+03  0.35795846252E+03  0.42975758622E+03  0.16508759601E+03 0.  0.
         24    2    3    3    0    0 -0.13545647209E+03 -0.80821708954E+02  0.25314775719E+03  0.31168617618E+03  0.90464805209E+02 0.  0.
         -6    2    1    2    0  501  0.11186452627E+03  0.12957521150E+03  0.96914757484E+03  0.99988407225E+03  0.17668539397E+03 0.  0.
        -24    2    5    5    0    0  0.12617313544E+03  0.62816060970E+02  0.50523282752E+03  0.53094857214E+03  0.82344754746E+02 0.  0.
          4    1    4    4  502    0 -0.68700187521E+02  0.92090969690E+01  0.10742859956E+03  0.12784923635E+03  0.00000000000E+00 0. -1.
         -3    1    4    4    0  502 -0.66756284571E+02 -0.90030805923E+02  0.14571915763E+03  0.18383693983E+03  0.00000000000E+00 0.  1.
          5    1    3    3  503    0  0.23591945826E+02 -0.48753502548E+02  0.10481070533E+03  0.11807141004E+03  0.47000000000E+01 0. -1.
         11    1    6    6    0    0  0.73779230108E+02 -0.15303332468E+01  0.16512708727E+03  0.18086644704E+03  0.00000000000E+00 0. -1.
        -12    1    6    6    0    0  0.52393905334E+02  0.64346394217E+02  0.34010574025E+03  0.35008212510E+03  0.00000000000E+00 0.  1.
         -5    1    5    5    0  501 -0.14308609176E+02  0.66759150532E+02  0.46391474733E+03  0.46893550011E+03  0.47000000000E+01 0.  1.
<mgrwt>
<rscale>  2 0.24187945E+03</rscale>
<asrwt>0</asrwt>
<pdfrwt beam="1">  1        4 0.21205749E+00 0.24187945E+03</pdfrwt>
<pdfrwt beam="2">  1       -4 0.78873565E-02 0.24187945E+03</pdfrwt>
<totfact> 0.24921278E+01</totfact>
</mgrwt>
</event>
<event>
12    1  0.5759937E-002  0.2020988E+03  0.7546771E-02  0.1147980E+00
          2   -1    0    0  503    0  0.00000000000E+00  0.00000000000E+00  0.27705054277E+03  0.27705054277E+03  0.00000000000E+00 0. -1.
         -2   -1    0    0    0  501 -0.00000000000E+00 -0.00000000000E+00 -0.16835590158E+03  0.16835590158E+03  0.00000000000E+00 0.  1.
          6    2    1    2  503    0 -0.13309648371E+02 -0.10011656816E+03 -0.24001315056E+02  0.20425274156E+03  0.17590521695E+03 0.  0.
         24    2    3    3    0    0 -0.55172159314E+02 -0.77266124126E+02 -0.65792599267E+02  0.14066646905E+03  0.80276822913E+02 0.  0.
         -6    2    1    2    0  501  0.13309648371E+02  0.10011656816E+03  0.13269595624E+03  0.24115370279E+03  0.17420223193E+03 0.  0.
        -24    2    5    5    0    0 -0.51075711885E+02  0.28680552181E+02  0.91902935076E+02  0.13658439769E+03  0.82327673350E+02 0.  0.
          2    1    4    4  502    0 -0.48479534362E+02 -0.47523575471E+02  0.29242421988E+00  0.67888445183E+02  0.00000000000E+00 0. -1.
         -1    1    4    4    0  502 -0.66926249522E+01 -0.29742548655E+02 -0.66085023487E+02  0.72778023871E+02  0.00000000000E+00 0.  1.
          5    1    3    3  503    0  0.41862510943E+02 -0.22850444029E+02  0.41791284211E+02  0.63586272503E+02  0.47000000000E+01 0. -1.
         13    1    6    6    0    0  0.19338392945E+02  0.73795402452E+00  0.40935022400E+02  0.45279068859E+02  0.00000000000E+00 0. -1.
        -14    1    6    6    0    0 -0.70414104830E+02  0.27942598156E+02  0.50967912676E+02  0.91305328833E+02  0.00000000000E+00 0.  1.
         -5    1    5    5    0  501  0.64385360256E+02  0.71436015975E+02  0.40793021167E+02  0.10456930510E+03  0.47000000000E+01 0.  1.
<mgrwt>
<rscale>  2 0.20209878E+03</rscale>
<asrwt>0</asrwt>
<pdfrwt beam="1">  1        2 0.42623160E-01 0.20209878E+03</pdfrwt>
<pdfrwt beam="2">  1       -2 0.25900908E-01 0.20209878E+03</pdfrwt>
<totfact> 0.15783412E+03</totfact>
</mgrwt>
</event>
<event>
12    1  0.5759937E-002  0.1736239E+03  0.7546771E-02  0.1174121E+00
          2   -1    0    0  503    0  0.00000000000E+00  0.00000000000E+00  0.25431403776E+04  0.25431403776E+04  0.00000000000E+00 0. -1.
         -2   -1    0    0    0  501 -0.00000000000E+00 -0.00000000000E+00 -0.12576035604E+02  0.12576035604E+02  0.00000000000E+00 0.  1.
          6    2    1    2  503    0 -0.14548666192E+02  0.39869055085E+02  0.15364451921E+04  0.15456983833E+04  0.16345781904E+03 0.  0.
         24    2    3    3    0    0 -0.37188232375E+02  0.82146876109E+01  0.65383507756E+03  0.66221818929E+03  0.97888589031E+02 0.  0.
         -6    2    1    2    0  501  0.14548666192E+02 -0.39869055085E+02  0.99411914990E+03  0.10100180299E+04  0.17338492228E+03 0.  0.
        -24    2    5    5    0    0  0.60417842531E+02 -0.33353292261E+02  0.37079045944E+03  0.38495228707E+03  0.77071010816E+02 0.  0.
          4    1    4    4  502    0  0.18815837170E+02 -0.18395677105E+02  0.64953850939E+02  0.70081662482E+02  0.00000000000E+00 0. -1.
         -3    1    4    4    0  502 -0.56004069544E+02  0.26610364715E+02  0.58888122662E+03  0.59213652681E+03  0.00000000000E+00 0.  1.
          5    1    3    3  503    0  0.22639566183E+02  0.31654367474E+02  0.88261011453E+03  0.88348019401E+03  0.47000000000E+01 0. -1.
         11    1    6    6    0    0 -0.11071423745E+02  0.13400548142E+02  0.80475222843E+02  0.82331115660E+02  0.00000000000E+00 0. -1.
        -12    1    6    6    0    0  0.71489266276E+02 -0.46753840403E+02  0.29031523660E+03  0.30262117141E+03  0.00000000000E+00 0.  1.
         -5    1    5    5    0  501 -0.45869176339E+02 -0.65157628240E+01  0.62332869045E+03  0.62506574282E+03  0.47000000000E+01 0.  1.
<mgrwt>
<rscale>  2 0.17362393E+03</rscale>
<asrwt>0</asrwt>
<pdfrwt beam="1">  1        2 0.39125196E+00 0.17362393E+03</pdfrwt>
<pdfrwt beam="2">  1       -2 0.19347767E-02 0.17362393E+03</pdfrwt>
<totfact> 0.31025981E+03</totfact>
</mgrwt>
</event>
<event>
12    1  0.5759937E-002  0.2029846E+03  0.7546771E-02  0.1147245E+00
          2   -1    0    0  503    0  0.00000000000E+00  0.00000000000E+00  0.10959401192E+04  0.10959401192E+04  0.00000000000E+00 0. -1.
         -2   -1    0    0    0  501 -0.00000000000E+00 -0.00000000000E+00 -0.40737382317E+02  0.40737382317E+02  0.00000000000E+00 0.  1.
          6    2    1    2  503    0 -0.93419167983E+02 -0.62300943748E+02  0.36126957506E+03  0.41261322905E+03  0.16469797323E+03 0.  0.
         24    2    3    3    0    0 -0.38901345264E+02 -0.81168075570E+02  0.31933095647E+03  0.34113526471E+03  0.79368998449E+02 0.  0.
         -6    2    1    2    0  501  0.93419167983E+02  0.62300943748E+02  0.69393316179E+03  0.72406427243E+03  0.17354333476E+03 0.  0.
        -24    2    5    5    0    0  0.53762694777E+02  0.29310182765E+02  0.64537756802E+03  0.65306594947E+03  0.78951978345E+02 0.  0.
          2    1    4    4  502    0 -0.29990458221E+02 -0.93387086251E+02  0.30468124637E+03  0.32008004835E+03  0.00000000000E+00 0. -1.
         -1    1    4    4    0  502 -0.89108870425E+01  0.12219010681E+02  0.14649710093E+02  0.21055216354E+02  0.00000000000E+00 0.  1.
          5    1    3    3  503    0 -0.54517822719E+02  0.18867131822E+02  0.41938618592E+02  0.71477964343E+02  0.47000000000E+01 0. -1.
         13    1    6    6    0    0  0.61097902525E+02  0.23438394029E+02  0.27914311443E+03  0.28671098748E+03  0.00000000000E+00 0. -1.
        -14    1    6    6    0    0 -0.73352077483E+01  0.58717887360E+01  0.36623445359E+03  0.36635496199E+03  0.00000000000E+00 0.  1.
         -5    1    5    5    0  501  0.39656473205E+02  0.32990760983E+02  0.48555593764E+02  0.70998322960E+02  0.47000000000E+01 0.  1.
<mgrwt>
<rscale>  2 0.20298462E+03</rscale>
<asrwt>0</asrwt>
<pdfrwt beam="1">  1        2 0.16860615E+00 0.20298462E+03</pdfrwt>
<pdfrwt beam="2">  1       -2 0.62672904E-02 0.20298462E+03</pdfrwt>
<totfact> 0.31604984E+03</totfact>
</mgrwt>
</event>
<event>
12    1  0.5759937E-002  0.2186500E+03  0.7546771E-02  0.1134894E+00
          1   -1    0    0  503    0  0.00000000000E+00  0.00000000000E+00  0.78361491326E+02  0.78361491326E+02  0.00000000000E+00 0.  1.
         -1   -1    0    0    0  501 -0.00000000000E+00 -0.00000000000E+00 -0.12257251887E+04  0.12257251887E+04  0.00000000000E+00 0. -1.
          6    2    1    2  503    0 -0.11015635581E+03 -0.76245850259E+02 -0.11127865770E+03  0.24513426024E+03  0.17251090828E+03 0.  0.
         24    2    3    3    0    0 -0.13870089034E+03 -0.79478325514E+02 -0.66524134853E+02  0.19174609054E+03  0.82379375525E+02 0.  0.
         -6    2    1    2    0  501  0.11015635581E+03  0.76245850259E+02 -0.10360850397E+04  0.10589524198E+04  0.17309005039E+03 0.  0.
        -24    2    5    5    0    0  0.11329670404E+03  0.93783518425E+02 -0.61418042437E+03  0.63664562846E+03  0.80427427432E+02 0.  0.
          2    1    4    4  502    0 -0.61808119606E-01  0.12668851864E+02 -0.93008825499E+01  0.15716553184E+02  0.00000000000E+00 0. -1.
         -1    1    4    4    0  502 -0.13863908222E+03 -0.92147177378E+02 -0.57223252303E+02  0.17602953736E+03  0.00000000000E+00 0.  1.
          5    1    3    3  503    0  0.28544534530E+02  0.32324752555E+01 -0.44754522851E+02  0.53388169696E+02  0.47000000000E+01 0. -1.
         11    1    6    6    0    0  0.88085848540E+02  0.52876683950E+02 -0.52865947112E+03  0.53854980904E+03  0.00000000000E+00 0. -1.
        -12    1    6    6    0    0  0.25210855500E+02  0.40906834475E+02 -0.85520953253E+02  0.98095819417E+02  0.00000000000E+00 0.  1.
         -5    1    5    5    0  501 -0.31403482293E+01 -0.17537668166E+02 -0.42190461533E+03  0.42230679136E+03  0.47000000000E+01 0.  1.
<mgrwt>
<rscale>  2 0.21865003E+03</rscale>
<asrwt>0</asrwt>
<pdfrwt beam="1">  1        1 0.12055615E-01 0.21865003E+03</pdfrwt>
<pdfrwt beam="2">  1       -1 0.18857309E+00 0.21865003E+03</pdfrwt>
<totfact> 0.10052329E+02</totfact>
</mgrwt>
</event>
<event>
12    1  0.5759937E-002  0.1890291E+03  0.7546771E-02  0.1159340E+00
         -2   -1    0    0    0  501 -0.00000000000E+00  0.00000000000E+00  0.21148760761E+02  0.21148760761E+02  0.00000000000E+00 0.  1.
          2   -1    0    0  503    0  0.00000000000E+00 -0.00000000000E+00 -0.18190366100E+04  0.18190366100E+04  0.00000000000E+00 0. -1.
          6    2    1    2  503    0  0.71200001720E+02  0.28008419490E+02 -0.65257832914E+03  0.67934863010E+03  0.17263306100E+03 0.  0.
         24    2    3    3    0    0  0.82366580869E+02 -0.12768863619E+02 -0.60298598607E+03  0.61401127632E+03  0.80439110706E+02 0.  0.
         -6    2    1    2    0  501 -0.71200001720E+02 -0.28008419490E+02 -0.11453095201E+04  0.11608367406E+04  0.17307261432E+03 0.  0.
        -24    2    5    5    0    0 -0.10040804996E+03 -0.51816312916E+02 -0.10309200197E+04  0.10403088448E+04  0.81729424511E+02 0.  0.
          4    1    4    4  502    0  0.38975301462E+02 -0.26486913673E+02 -0.48916917366E+03  0.49143373020E+03  0.00000000000E+00 0. -1.
         -3    1    4    4    0  502  0.43391279407E+02  0.13718050054E+02 -0.11381681241E+03  0.12257754612E+03  0.00000000000E+00 0.  1.
          5    1    3    3  503    0 -0.11166579149E+02  0.40777283108E+02 -0.49592343063E+02  0.65337353773E+02  0.47000000000E+01 0. -1.
         11    1    6    6    0    0 -0.14510357885E+02 -0.59682592283E+01 -0.51749617119E+03  0.51773396431E+03  0.00000000000E+00 0. -1.
        -12    1    6    6    0    0 -0.85897692073E+02 -0.45848053688E+02 -0.51342384850E+03  0.52257488051E+03  0.00000000000E+00 0.  1.
         -5    1    5    5    0  501  0.29208048238E+02  0.23807893426E+02 -0.11438950036E+03  0.12052789579E+03  0.47000000000E+01 0.  1.
<mgrwt>
<rscale>  2 0.18902905E+03</rscale>
<asrwt>0</asrwt>
<pdfrwt beam="2">  1        2 0.27985195E+00 0.18902905E+03</pdfrwt>
<pdfrwt beam="1">  1       -2 0.32536536E-02 0.18902905E+03</pdfrwt>
<totfact> 0.34653215E+03</totfact>
</mgrwt>
</event>
<event>
12    1  0.5759937E-002  0.2269985E+03  0.7546771E-02  0.1128770E+00
         -2   -1    0    0    0  501 -0.00000000000E+00  0.00000000000E+00  0.28238398588E+02  0.28238398588E+02  0.00000000000E+00 0. -1.
          2   -1    0    0  503    0  0.00000000000E+00 -0.00000000000E+00 -0.25465263995E+04  0.25465263995E+04  0.00000000000E+00 0.  1.
          6    2    1    2  503    0 -0.73744738806E+02 -0.12826546124E+03 -0.19442520424E+04  0.19574507135E+04  0.17206677852E+03 0.  0.
         24    2    3    3    0    0 -0.88962860926E+02 -0.37631152333E+02 -0.84700574914E+03  0.85635231312E+03  0.81179128261E+02 0.  0.
         -6    2    1    2    0  501  0.73744738806E+02  0.12826546124E+03 -0.57403595854E+03  0.61731408463E+03  0.17224715483E+03 0.  0.
        -24    2    5    5    0    0  0.35627151677E+02  0.26164852241E+02 -0.39967495632E+03  0.41164120383E+03  0.88059732843E+02 0.  0.
          4    1    4    4  502    0 -0.64619411685E+02 -0.36454453088E+02 -0.30853060245E+03  0.31732590214E+03  0.00000000000E+00 0. -1.
         -3    1    4    4    0  502 -0.24343449241E+02 -0.11766992449E+01 -0.53847514669E+03  0.53902641099E+03  0.00000000000E+00 0.  1.
          5    1    3    3  503    0  0.15218122120E+02 -0.90634308904E+02 -0.10972462933E+04  0.11010984004E+04  0.47000000000E+01 0. -1.
         11    1    6    6    0    0 -0.26296106415E+01 -0.26858273577E+02 -0.60857284398E+02  0.66572447574E+02  0.00000000000E+00 0. -1.
        -12    1    6    6    0    0  0.38256762318E+02  0.53023125818E+02 -0.33881767192E+03  0.34506875625E+03  0.00000000000E+00 0.  1.
         -5    1    5    5    0  501  0.38117587129E+02  0.10210060900E+03 -0.17436100222E+03  0.20567288081E+03  0.47000000000E+01 0.  1.
<mgrwt>
<rscale>  2 0.22699854E+03</rscale>
<asrwt>0</asrwt>
<pdfrwt beam="2">  1        2 0.39177348E+00 0.22699854E+03</pdfrwt>
<pdfrwt beam="1">  1       -2 0.43443669E-02 0.22699854E+03</pdfrwt>
<totfact> 0.92409623E+02</totfact>
</mgrwt>
</event>
<event>
12    1  0.5759937E-002  0.3774907E+03  0.7546771E-02  0.1051865E+00
         -1   -1    0    0    0  501 -0.00000000000E+00  0.00000000000E+00  0.59572334165E+03  0.59572334165E+03  0.00000000000E+00 0. -1.
          1   -1    0    0  503    0  0.00000000000E+00 -0.00000000000E+00 -0.26334843277E+03  0.26334843277E+03  0.00000000000E+00 0.  1.
          6    2    1    2  503    0  0.41968530339E+01  0.33533222520E+03  0.36121102762E+02  0.37920061891E+03  0.17327163785E+03 0.  0.
         24    2    3    3    0    0 -0.61499183023E+02  0.21746182793E+03  0.78269970903E+00  0.23962880070E+03  0.79684084928E+02 0.  0.
         -6    2    1    2    0  501 -0.41968530339E+01 -0.33533222520E+03  0.29625380612E+03  0.47987115550E+03  0.17333405151E+03 0.  0.
        -24    2    5    5    0    0  0.21208957476E+02 -0.33572745565E+03  0.24892265301E+03  0.42594584169E+03  0.79401690894E+02 0.  0.
          4    1    4    4  502    0 -0.57213703397E+02  0.70036820634E+02  0.14155239579E+02  0.91536522266E+02  0.00000000000E+00 0. -1.
         -3    1    4    4    0  502 -0.42854796256E+01  0.14742500729E+03 -0.13372539870E+02  0.14809227844E+03  0.00000000000E+00 0.  1.
          5    1    3    3  503    0  0.65696036056E+02  0.11787039727E+03  0.35338403053E+02  0.13957181820E+03  0.47000000000E+01 0. -1.
         11    1    6    6    0    0  0.34462586172E+02 -0.16331162632E+03  0.16120321647E+03  0.23204489681E+03  0.00000000000E+00 0. -1.
        -12    1    6    6    0    0 -0.13253628696E+02 -0.17241582933E+03  0.87719436541E+02  0.19390094488E+03  0.00000000000E+00 0.  1.
         -5    1    5    5    0  501 -0.25405810510E+02  0.39523045636E+00  0.47331153112E+02  0.53925313812E+02  0.47000000000E+01 0.  1.
<mgrwt>
<rscale>  2 0.37749065E+03</rscale>
<asrwt>0</asrwt>
<pdfrwt beam="2">  1        1 0.40515144E-01 0.37749065E+03</pdfrwt>
<pdfrwt beam="1">  1       -1 0.91649744E-01 0.37749065E+03</pdfrwt>
<totfact> 0.12581264E+02</totfact>
</mgrwt>
</event>
<event>
12    1  0.5759937E-002  0.1843777E+03  0.7546771E-02  0.1163632E+00
          1   -1    0    0  503    0  0.00000000000E+00  0.00000000000E+00  0.64848822733E+02  0.64848822733E+02  0.00000000000E+00 0. -1.
         -1   -1    0    0    0  501 -0.00000000000E+00 -0.00000000000E+00 -0.71653575207E+03  0.71653575207E+03  0.00000000000E+00 0.  1.
          6    2    1    2  503    0 -0.63041136534E+02 -0.23515097466E+01 -0.52651050804E+03  0.55742390862E+03  0.17183825048E+03 0.  0.
         24    2    3    3    0    0 -0.53431594449E+02 -0.55392043565E+02 -0.45207251996E+03  0.46539812095E+03  0.79389129629E+02 0.  0.
         -6    2    1    2    0  501  0.63041136534E+02  0.23515097466E+01 -0.12517642129E+03  0.22396066618E+03  0.17466977144E+03 0.  0.
        -24    2    5    5    0    0  0.64064829819E+02  0.61618761971E+02 -0.11048901836E+03  0.16271146260E+03  0.79787358880E+02 0.  0.
          4    1    4    4  502    0 -0.43966992053E+02 -0.22082616632E+02 -0.98207462848E+02  0.10984281545E+03  0.00000000000E+00 0. -1.
         -3    1    4    4    0  502 -0.94646023963E+01 -0.33309426932E+02 -0.35386505711E+03  0.35555530550E+03  0.00000000000E+00 0.  1.
          5    1    3    3  503    0 -0.96095420855E+01  0.53040533818E+02 -0.74437988080E+02  0.92025787669E+02  0.47000000000E+01 0. -1.
         13    1    6    6    0    0  0.25120670876E+02  0.22289385218E+02  0.56521788414E+01  0.34056011574E+02  0.00000000000E+00 0. -1.
        -14    1    6    6    0    0  0.38944158943E+02  0.39329376753E+02 -0.11614119720E+03  0.12865545103E+03  0.00000000000E+00 0.  1.
         -5    1    5    5    0  501 -0.10236932842E+01 -0.59267252225E+02 -0.14687402930E+02  0.61249203579E+02  0.47000000000E+01 0.  1.
<mgrwt>
<rscale>  2 0.18437769E+03</rscale>
<asrwt>0</asrwt>
<pdfrwt beam="1">  1        1 0.99767420E-02 0.18437769E+03</pdfrwt>
<pdfrwt beam="2">  1       -1 0.11023627E+00 0.18437769E+03</pdfrwt>
<totfact> 0.51932213E+02</totfact>
</mgrwt>
</event>
<event>
12    1  0.5759937E-002  0.1860124E+03  0.7546771E-02  0.1162108E+00
         -2   -1    0    0    0  501 -0.00000000000E+00  0.00000000000E+00  0.11533454076E+03  0.11533454076E+03  0.00000000000E+00 0. -1.
          2   -1    0    0  503    0  0.00000000000E+00 -0.00000000000E+00 -0.31078321693E+03  0.31078321693E+03  0.00000000000E+00 0.  1.
          6    2    1    2  503    0  0.60070498433E+02 -0.33166337723E+02 -0.57842094750E+02  0.19441840024E+03  0.17246546230E+03 0.  0.
         24    2    3    3    0    0  0.75940663994E+02 -0.36582694782E+02 -0.97275427167E+02  0.15151605350E+03  0.79933270491E+02 0.  0.
         -6    2    1    2    0  501 -0.60070498433E+02  0.33166337723E+02 -0.13760658142E+03  0.23169935746E+03  0.17332209973E+03 0.  0.
        -24    2    5    5    0    0 -0.28232708301E+02 -0.45559461910E+02 -0.97047179203E+02  0.13747329144E+03  0.81289608685E+02 0.  0.
          2    1    4    4  502    0  0.34774562799E+02  0.17244583534E+02 -0.66702080431E+02  0.77173916662E+02  0.00000000000E+00 0. -1.
         -1    1    4    4    0  502  0.41166101194E+02 -0.53827278316E+02 -0.30573346736E+02  0.74342136834E+02  0.00000000000E+00 0.  1.
          5    1    3    3  503    0 -0.15870165561E+02  0.34163570585E+01  0.39433332417E+02  0.42902346742E+02  0.47000000000E+01 0. -1.
         13    1    6    6    0    0  0.17393254662E+02 -0.10427515613E+02  0.44652679286E+01  0.20765283703E+02  0.00000000000E+00 0. -1.
        -14    1    6    6    0    0 -0.45625962963E+02 -0.35131946297E+02 -0.10151244713E+03  0.11670800774E+03  0.00000000000E+00 0.  1.
         -5    1    5    5    0  501 -0.31837790132E+02  0.78725799634E+02 -0.40559402221E+02  0.94226066017E+02  0.47000000000E+01 0.  1.
<mgrwt>
<rscale>  2 0.18601236E+03</rscale>
<asrwt>0</asrwt>
<pdfrwt beam="2">  1        2 0.47812802E-01 0.18601236E+03</pdfrwt>
<pdfrwt beam="1">  1       -2 0.17743776E-01 0.18601236E+03</pdfrwt>
<totfact> 0.26702808E+03</totfact>
</mgrwt>
</event>
<event>
12    1  0.5759937E-002  0.2023858E+03  0.7546771E-02  0.1147742E+00
         -1   -1    0    0    0  501 -0.00000000000E+00  0.00000000000E+00  0.52765999923E+02  0.52765999923E+02  0.00000000000E+00 0. -1.
          1   -1    0    0  503    0  0.00000000000E+00 -0.00000000000E+00 -0.94078594020E+03  0.94078594020E+03  0.00000000000E+00 0.  1.
          6    2    1    2  503    0  0.66504266253E+02 -0.85971524088E+02 -0.65529728231E+03  0.68643012330E+03  0.17308340644E+03 0.  0.
         24    2    3    3    0    0  0.95654971181E+02 -0.20785900388E+02 -0.43201754182E+03  0.45196293658E+03  0.89718517782E+02 0.  0.
         -6    2    1    2    0  501 -0.66504266253E+02  0.85971524088E+02 -0.23272265796E+03  0.30712181682E+03  0.16837474411E+03 0.  0.
        -24    2    5    5    0    0 -0.88226695962E+02  0.91795396753E+02 -0.11964918848E+03  0.19173775837E+03  0.78975280523E+02 0.  0.
          4    1    4    4  502    0  0.92423593659E+02 -0.48845509159E+02 -0.34079854143E+03  0.35647110720E+03  0.00000000000E+00 0. -1.
         -3    1    4    4    0  502  0.32313775218E+01  0.28059608771E+02 -0.91219000393E+02  0.95491829377E+02  0.00000000000E+00 0.  1.
          5    1    3    3  503    0 -0.29150704928E+02 -0.65185623700E+02 -0.22327974049E+03  0.23446718672E+03  0.47000000000E+01 0. -1.
         13    1    6    6    0    0 -0.20931324529E+02  0.78378768915E+02 -0.61705740865E+02  0.10192619987E+03  0.00000000000E+00 0. -1.
        -14    1    6    6    0    0 -0.67295371433E+02  0.13416627838E+02 -0.57943447616E+02  0.89811558502E+02  0.00000000000E+00 0.  1.
         -5    1    5    5    0  501  0.21722429709E+02 -0.58238726651E+01 -0.11307346948E+03  0.11538405846E+03  0.47000000000E+01 0.  1.
<mgrwt>
<rscale>  2 0.20238575E+03</rscale>
<asrwt>0</asrwt>
<pdfrwt beam="2">  1        1 0.14473630E+00 0.20238575E+03</pdfrwt>
<pdfrwt beam="1">  1       -1 0.81178461E-02 0.20238575E+03</pdfrwt>
<totfact> 0.14929243E+03</totfact>
</mgrwt>
</event>
<event>
12    1  0.5759937E-002  0.1742760E+03  0.7546771E-02  0.1173461E+00
          2   -1    0    0  503    0  0.00000000000E+00  0.00000000000E+00  0.94570225963E+03  0.94570225963E+03  0.00000000000E+00 0. -1.
         -2   -1    0    0    0  501 -0.00000000000E+00 -0.00000000000E+00 -0.33352896137E+02  0.33352896137E+02  0.00000000000E+00 0.  1.
          6    2    1    2  503    0  0.16019590753E+02  0.74319142922E+01  0.54689986154E+03  0.57358143411E+03  0.17200099524E+03 0.  0.
         24    2    3    3    0    0  0.12391999708E+02 -0.33022505653E+02  0.16248908719E+03  0.18700226635E+03  0.85575093500E+02 0.  0.
         -6    2    1    2    0  501 -0.16019590753E+02 -0.74319142922E+01  0.36544950195E+03  0.40547372165E+03  0.17476767390E+03 0.  0.
        -24    2    5    5    0    0  0.55873008494E+02  0.10850513890E+01  0.25699564008E+03  0.27499224908E+03  0.80318164935E+02 0.  0.
          2    1    4    4  502    0  0.44925726040E+02 -0.10968474085E+02  0.12246791408E+03  0.13090843465E+03  0.00000000000E+00 0. -1.
         -1    1    4    4    0  502 -0.32533726331E+02 -0.22054031568E+02  0.40021173112E+02  0.56093831699E+02  0.00000000000E+00 0.  1.
          5    1    3    3  503    0  0.36275910446E+01  0.40454419945E+02  0.38441077435E+03  0.38657916776E+03  0.47000000000E+01 0. -1.
         13    1    6    6    0    0  0.11606517663E+02 -0.27120202676E+02  0.17614322004E+03  0.17859633426E+03  0.00000000000E+00 0. -1.
        -14    1    6    6    0    0  0.44266490831E+02  0.28205254065E+02  0.80852420046E+02  0.96395914823E+02  0.00000000000E+00 0.  1.
         -5    1    5    5    0  501 -0.71892599247E+02 -0.85169656811E+01  0.10845386187E+03  0.13048147257E+03  0.47000000000E+01 0.  1.
<mgrwt>
<rscale>  2 0.17427597E+03</rscale>
<asrwt>0</asrwt>
<pdfrwt beam="1">  1        2 0.14549263E+00 0.17427597E+03</pdfrwt>
<pdfrwt beam="2">  1       -2 0.51312155E-02 0.17427597E+03</pdfrwt>
<totfact> 0.52554228E+03</totfact>
</mgrwt>
</event>
<event>
12    1  0.5759937E-002  0.2064871E+03  0.7546771E-02  0.1144378E+00
          1   -1    0    0  503    0  0.00000000000E+00  0.00000000000E+00  0.14403742274E+04  0.14403742274E+04  0.00000000000E+00 0.  1.
         -1   -1    0    0    0  501 -0.00000000000E+00 -0.00000000000E+00 -0.41842953495E+02  0.41842953495E+02  0.00000000000E+00 0. -1.
          6    2    1    2  503    0  0.90250422686E+02 -0.68329654546E+02  0.10998945073E+04  0.11190912650E+04  0.17257824791E+03 0.  0.
         24    2    3    3    0    0  0.75957609364E+02 -0.82605496448E+02  0.10844163619E+04  0.10932117912E+04  0.80993506844E+02 0.  0.
         -6    2    1    2    0  501 -0.90250422686E+02  0.68329654546E+02  0.29863676656E+03  0.36312591588E+03  0.17280749972E+03 0.  0.
        -24    2    5    5    0    0 -0.10336059303E+03  0.29307501506E+02  0.12105773696E+03  0.18077733007E+03  0.80517858602E+02 0.  0.
          4    1    4    4  502    0  0.70677449002E+02 -0.18639593247E+02  0.50765738312E+03  0.51289253735E+03  0.00000000000E+00 0. -1.
         -3    1    4    4    0  502  0.52801603626E+01 -0.63965903201E+02  0.57675897876E+03  0.58031925390E+03  0.00000000000E+00 0.  1.
          5    1    3    3  503    0  0.14292813322E+02  0.14275841901E+02  0.15478145441E+02  0.25879473737E+02  0.47000000000E+01 0. -1.
         11    1    6    6    0    0 -0.32238435203E+01  0.27065034393E+02  0.54163225312E+01  0.27789310958E+02  0.00000000000E+00 0. -1.
        -12    1    6    6    0    0 -0.10013674951E+03  0.22424671123E+01  0.11564141443E+03  0.15298801911E+03  0.00000000000E+00 0.  1.
         -5    1    5    5    0  501  0.13110170343E+02  0.39022153041E+02  0.17757902960E+03  0.18234858581E+03  0.47000000000E+01 0.  1.
<mgrwt>
<rscale>  2 0.20648706E+03</rscale>
<asrwt>0</asrwt>
<pdfrwt beam="1">  1        1 0.22159600E+00 0.20648706E+03</pdfrwt>
<pdfrwt beam="2">  1       -1 0.64373786E-02 0.20648706E+03</pdfrwt>
<totfact> 0.94668386E+02</totfact>
</mgrwt>
</event>
<event>
12    1  0.5759937E-002  0.1890191E+03  0.7546771E-02  0.1159349E+00
          1   -1    0    0  503    0  0.00000000000E+00  0.00000000000E+00  0.29511017752E+03  0.29511017752E+03  0.00000000000E+00 0.  1.
         -1   -1    0    0    0  501 -0.00000000000E+00 -0.00000000000E+00 -0.12222653792E+03  0.12222653792E+03  0.00000000000E+00 0. -1.
          6    2    1    2  503    0 -0.71871657915E+02 -0.50804730295E+01  0.10758781440E+03  0.21934979043E+03  0.17705323023E+03 0.  0.
         24    2    3    3    0    0 -0.11739403035E+03 -0.93913872656E+01  0.94434319690E+02  0.17153792164E+03  0.81473071074E+02 0.  0.
         -6    2    1    2    0  501  0.71871657915E+02  0.50804730295E+01  0.65295825198E+02  0.19798692501E+03  0.17246428984E+03 0.  0.
        -24    2    5    5    0    0  0.35609366366E+02  0.65628971091E+02  0.65790752418E+02  0.12725214319E+03  0.79306342896E+02 0.  0.
          2    1    4    4  502    0 -0.94376982305E+02  0.24678529169E+02  0.45548474227E+02  0.10766015092E+03  0.00000000000E+00 0. -1.
         -1    1    4    4    0  502 -0.23017048045E+02 -0.34069916435E+02  0.48885845463E+02  0.63877770728E+02  0.00000000000E+00 0.  1.
          5    1    3    3  503    0  0.45522372435E+02  0.43109142362E+01  0.13153494708E+02  0.47811868784E+02  0.47000000000E+01 0. -1.
         11    1    6    6    0    0 -0.42051702428E+01  0.75173846169E+01 -0.16691727804E+02  0.18783192097E+02  0.00000000000E+00 0. -1.
        -12    1    6    6    0    0  0.39814536608E+02  0.58111586474E+02  0.82482480223E+02  0.10846895109E+03  0.00000000000E+00 0.  1.
         -5    1    5    5    0  501  0.36262291549E+02 -0.60548498061E+02 -0.49492722000E+00  0.70734781818E+02  0.47000000000E+01 0.  1.
<mgrwt>
<rscale>  2 0.18901914E+03</rscale>
<asrwt>0</asrwt>
<pdfrwt beam="1">  1        1 0.45401565E-01 0.18901914E+03</pdfrwt>
<pdfrwt beam="2">  1       -1 0.18804083E-01 0.18901914E+03</pdfrwt>
<totfact> 0.19727546E+03</totfact>
</mgrwt>
</event>
<event>
12    1  0.5759937E-002  0.2060401E+03  0.7546771E-02  0.1144741E+00
          2   -1    0    0  503    0  0.00000000000E+00  0.00000000000E+00  0.28712344296E+02  0.28712344296E+02  0.00000000000E+00 0. -1.
         -2   -1    0    0    0  501 -0.00000000000E+00 -0.00000000000E+00 -0.16685147473E+04  0.16685147473E+04  0.00000000000E+00 0.  1.
          6    2    1    2  503    0  0.11020735477E+03  0.21632571773E+02 -0.11055727672E+04  0.11245734414E+04  0.17251275986E+03 0.  0.
         24    2    3    3    0    0  0.38266582682E+01 -0.22709169205E+02 -0.43483098885E+03  0.44398570583E+03  0.86688917612E+02 0.  0.
         -6    2    1    2    0  501 -0.11020735477E+03 -0.21632571773E+02 -0.53422963587E+03  0.57265365027E+03  0.17296609527E+03 0.  0.
        -24    2    5    5    0    0 -0.13943724710E+03 -0.47124584647E+02 -0.44838744330E+03  0.47833927516E+03  0.78062093864E+02 0.  0.
          4    1    4    4  502    0 -0.15894084370E+02  0.14533481656E+01 -0.38411941087E+03  0.38445084985E+03  0.00000000000E+00 0. -1.
         -3    1    4    4    0  502  0.19720742638E+02 -0.24162517370E+02 -0.50711577979E+02  0.59534855983E+02  0.00000000000E+00 0.  1.
          5    1    3    3  503    0  0.10638069650E+03  0.44341740977E+02 -0.67074177832E+03  0.68058773554E+03  0.47000000000E+01 0. -1.
         11    1    6    6    0    0 -0.41652424380E+02  0.19733866518E+02 -0.94262636416E+02  0.10492756820E+03  0.00000000000E+00 0. -1.
        -12    1    6    6    0    0 -0.97784822717E+02 -0.66858451164E+02 -0.35412480688E+03  0.37341170696E+03  0.00000000000E+00 0.  1.
         -5    1    5    5    0  501  0.29229892326E+02  0.25492012874E+02 -0.85842192574E+02  0.94314375107E+02  0.47000000000E+01 0.  1.
<mgrwt>
<rscale>  2 0.20604009E+03</rscale>
<asrwt>0</asrwt>
<pdfrwt beam="1">  1        2 0.44172818E-02 0.20604009E+03</pdfrwt>
<pdfrwt beam="2">  1       -2 0.25669469E+00 0.20604009E+03</pdfrwt>
<totfact> 0.12172248E+02</totfact>
</mgrwt>
</event>
<event>
12    1  0.5759937E-002  0.2001414E+03  0.7546771E-02  0.1149620E+00
          2   -1    0    0  503    0  0.00000000000E+00  0.00000000000E+00  0.38873499032E+03  0.38873499032E+03  0.00000000000E+00 0.  1.
         -2   -1    0    0    0  501 -0.00000000000E+00 -0.00000000000E+00 -0.16160146005E+03  0.16160146005E+03  0.00000000000E+00 0. -1.
          6    2    1    2  503    0 -0.93011625296E+02 -0.18642221138E+01 -0.50304463719E+02  0.21088329139E+03  0.18244611739E+03 0.  0.
         24    2    3    3    0    0 -0.12078342056E+03 -0.15292101529E+02 -0.81439081601E+02  0.16680342083E+03  0.79803346663E+02 0.  0.
         -6    2    1    2    0  501  0.93011625296E+02  0.18642221138E+01  0.27743799398E+03  0.33945315899E+03  0.17205222717E+03 0.  0.
        -24    2    5    5    0    0  0.52288719516E+02 -0.32200452759E+02  0.64361152859E+02  0.11981120636E+03  0.80258257054E+02 0.  0.
          2    1    4    4  502    0 -0.20871611524E+02 -0.32418280597E+02 -0.44582347793E+02  0.58941961447E+02  0.00000000000E+00 0. -1.
         -1    1    4    4    0  502 -0.99911809032E+02  0.17126179068E+02 -0.36856733808E+02  0.10786145938E+03  0.00000000000E+00 0.  1.
          5    1    3    3  503    0  0.27771795259E+02  0.13427879415E+02  0.31134617882E+02  0.44079870555E+02  0.47000000000E+01 0. -1.
         13    1    6    6    0    0  0.10282176441E+02 -0.42022223957E+02  0.11435207647E+01  0.43276992715E+02  0.00000000000E+00 0. -1.
        -14    1    6    6    0    0  0.42006543075E+02  0.98217711982E+01  0.63217632094E+02  0.76534213645E+02  0.00000000000E+00 0.  1.
         -5    1    5    5    0  501  0.40722905780E+02  0.34064674873E+02  0.21307684113E+03  0.21964195263E+03  0.47000000000E+01 0.  1.
<mgrwt>
<rscale>  2 0.20014138E+03</rscale>
<asrwt>0</asrwt>
<pdfrwt beam="1">  1        2 0.59805383E-01 0.20014138E+03</pdfrwt>
<pdfrwt beam="2">  1       -2 0.24861763E-01 0.20014138E+03</pdfrwt>
<totfact> 0.11785635E+03</totfact>
</mgrwt>
</event>
<event>
12    1  0.5759937E-002  0.2487052E+03  0.7546771E-02  0.1114126E+00
         -1   -1    0    0    0  501 -0.00000000000E+00  0.00000000000E+00  0.34910136386E+03  0.34910136386E+03  0.00000000000E+00 0.  1.
          1   -1    0    0  503    0  0.00000000000E+00 -0.00000000000E+00 -0.17759277464E+03  0.17759277464E+03  0.00000000000E+00 0. -1.
          6    2    1    2  503    0  0.17684471635E+03 -0.27853141050E+02  0.73459325542E+02  0.26026846268E+03  0.17405042082E+03 0.  0.
         24    2    3    3    0    0  0.85832827469E+02 -0.63458792212E+02  0.77502649041E+02  0.16234316065E+03  0.94627420028E+02 0.  0.
         -6    2    1    2    0  501 -0.17684471635E+03  0.27853141050E+02  0.98049263671E+02  0.26642567582E+03  0.17122830216E+03 0.  0.
        -24    2    5    5    0    0 -0.18886727686E+03  0.57700061642E+02  0.95034518801E+02  0.23376745608E+03  0.81335836968E+02 0.  0.
          2    1    4    4  502    0  0.38590013559E+02 -0.66674744446E+02  0.69186610397E+01  0.77347130289E+02  0.00000000000E+00 0. -1.
         -1    1    4    4    0  502  0.47242813910E+02  0.32159522338E+01  0.70583988002E+02  0.84996030361E+02  0.00000000000E+00 0.  1.
          5    1    3    3  503    0  0.91011888885E+02  0.35605651163E+02 -0.40433234993E+01  0.97925302032E+02  0.47000000000E+01 0. -1.
         13    1    6    6    0    0 -0.35583185042E+01  0.13154574452E+02  0.29037743406E+02  0.32076393215E+02  0.00000000000E+00 0. -1.
        -14    1    6    6    0    0 -0.18530895836E+03  0.44545487190E+02  0.65996775395E+02  0.20169106286E+03  0.00000000000E+00 0.  1.
         -5    1    5    5    0  501  0.12022560508E+02 -0.29846920592E+02  0.30147448706E+01  0.32658219741E+02  0.47000000000E+01 0.  1.
<mgrwt>
<rscale>  2 0.24870519E+03</rscale>
<asrwt>0</asrwt>
<pdfrwt beam="2">  1        1 0.27321965E-01 0.24870519E+03</pdfrwt>
<pdfrwt beam="1">  1       -1 0.53707902E-01 0.24870519E+03</pdfrwt>
<totfact> 0.61489060E+02</totfact>
</mgrwt>
</event>
<event>
12    1  0.5759937E-002  0.1914208E+03  0.7546771E-02  0.1157186E+00
          2   -1    0    0  503    0  0.00000000000E+00  0.00000000000E+00  0.14885586458E+04  0.14885586458E+04  0.00000000000E+00 0. -1.
         -2   -1    0    0    0  501 -0.00000000000E+00 -0.00000000000E+00 -0.29059316441E+02  0.29059316441E+02  0.00000000000E+00 0.  1.
          6    2    1    2  503    0 -0.18553424970E+02 -0.79776645953E+02  0.10254228524E+04  0.10430769610E+04  0.17265276533E+03 0.  0.
         24    2    3    3    0    0  0.30996008072E+02 -0.25916498209E+02  0.82054150350E+03  0.82546602610E+03  0.80457342019E+02 0.  0.
         -6    2    1    2    0  501  0.18553424970E+02  0.79776645953E+02  0.43407647696E+03  0.47454100132E+03  0.17337309844E+03 0.  0.
        -24    2    5    5    0    0  0.62830345395E+02  0.29792275101E+01  0.24790451171E+03  0.26828780787E+03  0.81025754091E+02 0.  0.
          4    1    4    4  502    0 -0.85291715327E+01  0.22072574578E+02  0.35557605504E+03  0.35636256289E+03  0.00000000000E+00 0. -1.
         -3    1    4    4    0  502  0.39525179605E+02 -0.47989072787E+02  0.46496544846E+03  0.46910346321E+03  0.00000000000E+00 0.  1.
          5    1    3    3  503    0 -0.49549433042E+02 -0.53860147744E+02  0.20488134893E+03  0.21761093486E+03  0.47000000000E+01 0. -1.
         11    1    6    6    0    0  0.49843574977E+02 -0.69302785043E+01  0.54443824404E+02  0.74138658893E+02  0.00000000000E+00 0. -1.
        -12    1    6    6    0    0  0.12986770417E+02  0.99095060143E+01  0.19346068731E+03  0.19414914898E+03  0.00000000000E+00 0.  1.
         -5    1    5    5    0  501 -0.44276920425E+02  0.76797418443E+02  0.18617196525E+03  0.20625319345E+03  0.47000000000E+01 0.  1.
<mgrwt>
<rscale>  2 0.19142083E+03</rscale>
<asrwt>0</asrwt>
<pdfrwt beam="1">  1        2 0.22900896E+00 0.19142083E+03</pdfrwt>
<pdfrwt beam="2">  1       -2 0.44706652E-02 0.19142083E+03</pdfrwt>
<totfact> 0.32054910E+03</totfact>
</mgrwt>
</event>
<event>
12    1  0.5759937E-002  0.3178961E+03  0.7546771E-02  0.1076622E+00
          2   -1    0    0  503    0  0.00000000000E+00  0.00000000000E+00  0.88533073889E+03  0.88533073889E+03  0.00000000000E+00 0. -1.
         -2   -1    0    0    0  501 -0.00000000000E+00 -0.00000000000E+00 -0.12440179418E+03  0.12440179418E+03  0.00000000000E+00 0.  1.
          6    2    1    2  503    0 -0.26426007100E+03 -0.41513591335E+02  0.52454962324E+03  0.61295404613E+03  0.17030440990E+03 0.  0.
         24    2    3    3    0    0 -0.27800262166E+03 -0.44427236962E+02  0.52136117972E+03  0.59780138293E+03  0.79308112366E+02 0.  0.
         -6    2    1    2    0  501  0.26426007100E+03  0.41513591335E+02  0.23637932148E+03  0.39677848695E+03  0.17320860456E+03 0.  0.
        -24    2    5    5    0    0  0.25810822629E+03  0.77804878341E+02  0.20303578632E+03  0.34689077260E+03  0.80226068191E+02 0.  0.
          4    1    4    4  502    0 -0.25036577149E+03 -0.64246570780E+02  0.46018008668E+03  0.52780332849E+03  0.00000000000E+00 0. -1.
         -3    1    4    4    0  502 -0.27636850171E+02  0.19819333818E+02  0.61181093038E+02  0.69998054442E+02  0.00000000000E+00 0.  1.
          5    1    3    3  503    0  0.13742550667E+02  0.29136456268E+01  0.31884435230E+01  0.15152663191E+02  0.47000000000E+01 0. -1.
         13    1    6    6    0    0  0.20579833628E+03  0.49699390014E+02  0.19336142501E+03  0.28672569691E+03  0.00000000000E+00 0. -1.
        -14    1    6    6    0    0  0.52309890008E+02  0.28105488327E+02  0.96743613092E+01  0.60165075696E+02  0.00000000000E+00 0.  1.
         -5    1    5    5    0  501  0.61518447043E+01 -0.36291287006E+02  0.33343535159E+02  0.49887714347E+02  0.47000000000E+01 0.  1.
<mgrwt>
<rscale>  2 0.31789611E+03</rscale>
<asrwt>0</asrwt>
<pdfrwt beam="1">  1        2 0.13620472E+00 0.31789611E+03</pdfrwt>
<pdfrwt beam="2">  1       -2 0.19138738E-01 0.31789611E+03</pdfrwt>
<totfact> 0.70516428E+02</totfact>
</mgrwt>
</event>
<event>
12    1  0.5759937E-002  0.1786444E+03  0.7546771E-02  0.1169121E+00
         -3   -1    0    0    0  501 -0.00000000000E+00  0.00000000000E+00  0.76029745558E+03  0.76029745558E+03  0.00000000000E+00 0.  1.
          3   -1    0    0  503    0  0.00000000000E+00 -0.00000000000E+00 -0.45883840400E+02  0.45883840400E+02  0.00000000000E+00 0. -1.
          6    2    1    2  503    0 -0.16326718155E+01  0.44108129176E+02  0.47449238022E+03  0.50693882354E+03  0.17290390179E+03 0.  0.
         24    2    3    3    0    0 -0.53446957762E+02  0.51524771992E+02  0.40753641875E+03  0.42182174186E+03  0.79600690154E+02 0.  0.
         -6    2    1    2    0  501  0.16326718155E+01 -0.44108129176E+02  0.23992123496E+03  0.29924247244E+03  0.17330800803E+03 0.  0.
        -24    2    5    5    0    0 -0.51790052444E+02  0.64334196361E+00  0.82757206244E+02  0.12725612542E+03  0.81625626189E+02 0.  0.
          2    1    4    4  502    0 -0.56109169765E+01  0.58847751784E+02  0.19077276050E+03  0.19972177255E+03  0.00000000000E+00 0. -1.
         -1    1    4    4    0  502 -0.47836040785E+02 -0.73229797914E+01  0.21676365825E+03  0.22209996931E+03  0.00000000000E+00 0.  1.
          5    1    3    3  503    0  0.51814285946E+02 -0.74166428158E+01  0.66955961469E+02  0.85117081688E+02  0.47000000000E+01 0. -1.
         13    1    6    6    0    0 -0.68211076760E+02  0.16779092262E+02  0.75484852638E+02  0.10311281156E+03  0.00000000000E+00 0. -1.
        -14    1    6    6    0    0  0.16421024315E+02 -0.16135750299E+02  0.72723536060E+01  0.24143313862E+02  0.00000000000E+00 0.  1.
         -5    1    5    5    0  501  0.53422724260E+02 -0.44751471140E+02  0.15716402872E+03  0.17198634702E+03  0.47000000000E+01 0.  1.
<mgrwt>
<rscale>  2 0.17864442E+03</rscale>
<asrwt>0</asrwt>
<pdfrwt beam="2">  1        3 0.70590529E-02 0.17864442E+03</pdfrwt>
<pdfrwt beam="1">  1       -3 0.11696883E+00 0.17864442E+03</pdfrwt>
<totfact> 0.19845798E+02</totfact>
</mgrwt>
</event>
<event>
12    1  0.5759937E-002  0.1986597E+03  0.7546771E-02  0.1150875E+00
         -2   -1    0    0    0  501 -0.00000000000E+00  0.00000000000E+00  0.85456308417E+02  0.85456308417E+02  0.00000000000E+00 0.  1.
          2   -1    0    0  503    0  0.00000000000E+00 -0.00000000000E+00 -0.77793054277E+03  0.77793054277E+03  0.00000000000E+00 0. -1.
          6    2    1    2  503    0  0.45771011023E+02 -0.84897896181E+02 -0.71215759241E+02  0.21118625594E+03  0.17385428412E+03 0.  0.
         24    2    3    3    0    0  0.84253186464E+02 -0.14716620045E+02 -0.29178489128E+02  0.12065719196E+03  0.79947454043E+02 0.  0.
         -6    2    1    2    0  501 -0.45771011023E+02  0.84897896181E+02 -0.62125847512E+03  0.65220059525E+03  0.17349606716E+03 0.  0.
        -24    2    5    5    0    0 -0.70204592047E+01  0.91806663621E+02 -0.24284850327E+03  0.27171993461E+03  0.79865993952E+02 0.  0.
          2    1    4    4  502    0  0.81361570888E+02 -0.35215615329E+02 -0.49570651224E+01  0.88794241227E+02  0.00000000000E+00 0. -1.
         -1    1    4    4    0  502  0.28916155754E+01  0.20498995284E+02 -0.24221424006E+02  0.31862950729E+02  0.00000000000E+00 0.  1.
          5    1    3    3  503    0 -0.38482175441E+02 -0.70181276136E+02 -0.42037270113E+02  0.90529063981E+02  0.47000000000E+01 0. -1.
         11    1    6    6    0    0 -0.30392178104E+02  0.65908748814E+01 -0.89317923671E+02  0.94577035323E+02  0.00000000000E+00 0. -1.
        -12    1    6    6    0    0  0.23371718900E+02  0.85215788739E+02 -0.15353057960E+03  0.17714289929E+03  0.00000000000E+00 0.  1.
         -5    1    5    5    0  501 -0.38750551818E+02 -0.69087674400E+01 -0.37840997184E+03  0.38048066064E+03  0.47000000000E+01 0.  1.
<mgrwt>
<rscale>  2 0.19865973E+03</rscale>
<asrwt>0</asrwt>
<pdfrwt beam="2">  1        2 0.11968162E+00 0.19865973E+03</pdfrwt>
<pdfrwt beam="1">  1       -2 0.13147125E-01 0.19865973E+03</pdfrwt>
<totfact> 0.15616536E+03</totfact>
</mgrwt>
</event>
<event>
12    1  0.5759937E-002  0.2479783E+03  0.7546771E-02  0.1114589E+00
         -2   -1    0    0    0  501 -0.00000000000E+00  0.00000000000E+00  0.12686749403E+04  0.12686749403E+04  0.00000000000E+00 0.  1.
          2   -1    0    0  503    0  0.00000000000E+00 -0.00000000000E+00 -0.52030570414E+02  0.52030570414E+02  0.00000000000E+00 0. -1.
          6    2    1    2  503    0  0.17627893222E+03 -0.22666548606E+02  0.78143313810E+03  0.81988593575E+03  0.17316802228E+03 0.  0.
         24    2    3    3    0    0  0.97705024965E+02 -0.51215491239E+02  0.64899726221E+03  0.66320073462E+03  0.80426796573E+02 0.  0.
         -6    2    1    2    0  501 -0.17627893222E+03  0.22666548606E+02  0.43521123173E+03  0.50081957492E+03  0.17269451648E+03 0.  0.
        -24    2    5    5    0    0 -0.91448612197E+02 -0.43730031368E+02  0.30741009253E+03  0.33360740368E+03  0.80732710137E+02 0.  0.
          2    1    4    4  502    0  0.13281116171E+02 -0.35784086309E+02  0.91587886280E+02  0.99223131340E+02  0.00000000000E+00 0. -1.
         -1    1    4    4    0  502  0.84423908794E+02 -0.15431404930E+02  0.55740937593E+03  0.56397760328E+03  0.00000000000E+00 0.  1.
          5    1    3    3  503    0  0.78573907255E+02  0.28548942633E+02  0.13243587590E+03  0.15668520113E+03  0.47000000000E+01 0. -1.
         13    1    6    6    0    0 -0.58568944536E+02  0.16132313684E+02  0.15997322011E+03  0.17111985262E+03  0.00000000000E+00 0. -1.
        -14    1    6    6    0    0 -0.32879667661E+02 -0.59862345052E+02  0.14743687242E+03  0.16248755106E+03  0.00000000000E+00 0.  1.
         -5    1    5    5    0  501 -0.84830320023E+02  0.66396579973E+02  0.12780113920E+03  0.16721217123E+03  0.47000000000E+01 0.  1.
<mgrwt>
<rscale>  2 0.24797835E+03</rscale>
<asrwt>0</asrwt>
<pdfrwt beam="2">  1        2 0.80047041E-02 0.24797835E+03</pdfrwt>
<pdfrwt beam="1">  1       -2 0.19518074E+00 0.24797835E+03</pdfrwt>
<totfact> 0.13155872E+02</totfact>
</mgrwt>
</event>
<event>
12    1  0.5759937E-002  0.2636550E+03  0.7546771E-02  0.1104967E+00
         -2   -1    0    0    0  501 -0.00000000000E+00  0.00000000000E+00  0.60502984169E+03  0.60502984169E+03  0.00000000000E+00 0. -1.
          2   -1    0    0  503    0  0.00000000000E+00 -0.00000000000E+00 -0.12816868694E+03  0.12816868694E+03  0.00000000000E+00 0.  1.
          6    2    1    2  503    0  0.17804440261E+03 -0.89725983879E+02  0.12103642682E+03  0.29076730549E+03  0.17362386886E+03 0.  0.
         24    2    3    3    0    0  0.14267031779E+02 -0.50753288484E+02  0.54986387441E+02  0.10986236944E+03  0.79163078060E+02 0.  0.
         -6    2    1    2    0  501 -0.17804440261E+03  0.89725983879E+02  0.35582472793E+03  0.44243122313E+03  0.17141641903E+03 0.  0.
        -24    2    5    5    0    0 -0.15294473030E+03  0.12476618469E+03  0.33084804379E+03  0.39239389733E+03  0.74524165279E+02 0.  0.
          4    1    4    4  502    0 -0.37651861485E+01 -0.40816268371E+02  0.72201040915E+02  0.83024904093E+02  0.00000000000E+00 0. -1.
         -3    1    4    4    0  502  0.18032217927E+02 -0.99370201132E+01 -0.17214653474E+02  0.26837465349E+02  0.00000000000E+00 0.  1.
          5    1    3    3  503    0  0.16377737084E+03 -0.38972695395E+02  0.66050039381E+02  0.18090493605E+03  0.47000000000E+01 0. -1.
         11    1    6    6    0    0 -0.36429861534E+02 -0.47828974834E+01  0.57525320908E+02  0.68258138455E+02  0.00000000000E+00 0. -1.
        -12    1    6    6    0    0 -0.11651486876E+03  0.12954908217E+03  0.27332272289E+03  0.32413575887E+03  0.00000000000E+00 0.  1.
         -5    1    5    5    0  501 -0.25099672318E+02 -0.35040200812E+02  0.24976684134E+02  0.50037325806E+02  0.47000000000E+01 0.  1.
<mgrwt>
<rscale>  2 0.26365496E+03</rscale>
<asrwt>0</asrwt>
<pdfrwt beam="2">  1        2 0.19718260E-01 0.26365496E+03</pdfrwt>
<pdfrwt beam="1">  1       -2 0.93081512E-01 0.26365496E+03</pdfrwt>
<totfact> 0.28671362E+02</totfact>
</mgrwt>
</event>
<event>
12    1  0.5759937E-002  0.2070480E+03  0.7546771E-02  0.1143925E+00
         -1   -1    0    0    0  501 -0.00000000000E+00  0.00000000000E+00  0.30377611567E+03  0.30377611567E+03  0.00000000000E+00 0.  1.
          1   -1    0    0  503    0  0.00000000000E+00 -0.00000000000E+00 -0.20563052769E+03  0.20563052769E+03  0.00000000000E+00 0. -1.
          6    2    1    2  503    0  0.11786664403E+03 -0.26192900536E+02  0.19223429605E+03  0.28506453873E+03  0.17242143965E+03 0.  0.
         24    2    3    3    0    0  0.10444498713E+03  0.43998813684E+02  0.13115468039E+03  0.19093788433E+03  0.80069185968E+02 0.  0.
         -6    2    1    2    0  501 -0.11786664403E+03  0.26192900536E+02 -0.94088708070E+02  0.22434210462E+03  0.16400634472E+03 0.  0.
        -24    2    5    5    0    0 -0.23578818471E+02 -0.24027086800E+02 -0.76160976763E+02  0.11591823859E+03  0.80642929479E+02 0.  0.
          4    1    4    4  502    0  0.33047790505E+02  0.54975539833E+02  0.79412495271E+02  0.10208237283E+03  0.00000000000E+00 0. -1.
         -3    1    4    4    0  502  0.71397196629E+02 -0.10976726149E+02  0.51742185120E+02  0.88855511502E+02  0.00000000000E+00 0.  1.
          5    1    3    3  503    0  0.13421656896E+02 -0.70191714221E+02  0.61079615664E+02  0.94126654401E+02  0.47000000000E+01 0. -1.
         13    1    6    6    0    0  0.16358881116E+02  0.16931456314E+02 -0.44971572224E+02  0.50761496358E+02  0.00000000000E+00 0. -1.
        -14    1    6    6    0    0 -0.39937699587E+02 -0.40958543114E+02 -0.31189404540E+02  0.65156742229E+02  0.00000000000E+00 0.  1.
         -5    1    5    5    0  501 -0.94287825558E+02  0.50219987336E+02 -0.17927731307E+02  0.10842386604E+03  0.47000000000E+01 0.  1.
<mgrwt>
<rscale>  2 0.20704798E+03</rscale>
<asrwt>0</asrwt>
<pdfrwt beam="2">  1        1 0.31635466E-01 0.20704798E+03</pdfrwt>
<pdfrwt beam="1">  1       -1 0.46734787E-01 0.20704798E+03</pdfrwt>
<totfact> 0.66053017E+02</totfact>
</mgrwt>
</event>
<event>
12    1  0.5759937E-002  0.2383859E+03  0.7546771E-02  0.1120873E+00
         -2   -1    0    0    0  501 -0.00000000000E+00  0.00000000000E+00  0.20484267408E+03  0.20484267408E+03  0.00000000000E+00 0. -1.
          2   -1    0    0  503    0  0.00000000000E+00 -0.00000000000E+00 -0.28059658223E+03  0.28059658223E+03  0.00000000000E+00 0.  1.
          6    2    1    2  503    0 -0.16384689752E+03  0.51367177001E+01 -0.12139749037E+02  0.23917744937E+03  0.17374201301E+03 0.  0.
         24    2    3    3    0    0 -0.50668071434E+02 -0.56325799178E+02 -0.16669417632E+02  0.11022127250E+03  0.78300768264E+02 0.  0.
         -6    2    1    2    0  501  0.16384689752E+03 -0.51367177001E+01 -0.63614159111E+02  0.24626180694E+03  0.17241207795E+03 0.  0.
        -24    2    5    5    0    0  0.42237278448E+02 -0.38125661904E+02  0.11669113900E+02  0.99405308668E+02  0.80670275726E+02 0.  0.
          4    1    4    4  502    0 -0.42417929396E+02 -0.65728448530E+02  0.11811900933E+02  0.79114035948E+02  0.00000000000E+00 0. -1.
         -3    1    4    4    0  502 -0.82501420376E+01  0.94026493514E+01 -0.28481318565E+02  0.31107236548E+02  0.00000000000E+00 0.  1.
          5    1    3    3  503    0 -0.11317882609E+03  0.61462516878E+02  0.45296685950E+01  0.12895617687E+03  0.47000000000E+01 0. -1.
         11    1    6    6    0    0  0.12297117366E+02  0.23780796975E+02  0.14756522452E+02  0.30569598544E+02  0.00000000000E+00 0. -1.
        -12    1    6    6    0    0  0.29940161082E+02 -0.61906458880E+02 -0.30874085518E+01  0.68835710123E+02  0.00000000000E+00 0.  1.
         -5    1    5    5    0  501  0.12160961907E+03  0.32988944204E+02 -0.75283273011E+02  0.14685649828E+03  0.47000000000E+01 0.  1.
<mgrwt>
<rscale>  2 0.23838589E+03</rscale>
<asrwt>0</asrwt>
<pdfrwt beam="2">  1        2 0.43168705E-01 0.23838589E+03</pdfrwt>
<pdfrwt beam="1">  1       -2 0.31514258E-01 0.23838589E+03</pdfrwt>
<totfact> 0.10970349E+03</totfact>
</mgrwt>
</event>
<event>
12    1  0.5759937E-002  0.2079912E+03  0.7546771E-02  0.1143167E+00
          4   -1    0    0  503    0  0.00000000000E+00  0.00000000000E+00  0.29582981749E+03  0.29582981749E+03  0.00000000000E+00 0. -1.
         -4   -1    0    0    0  501 -0.00000000000E+00 -0.00000000000E+00 -0.37301790426E+03  0.37301790426E+03  0.00000000000E+00 0.  1.
          6    2    1    2  503    0 -0.58350339441E+02  0.96231422751E+02 -0.29929253825E+03  0.36401292460E+03  0.17396590753E+03 0.  0.
         24    2    3    3    0    0 -0.67238852117E+02  0.11655431875E+03 -0.30301123936E+03  0.34103588176E+03  0.79897991307E+02 0.  0.
         -6    2    1    2    0  501  0.58350339441E+02 -0.96231422751E+02  0.22210445148E+03  0.30483479716E+03  0.17586533869E+03 0.  0.
        -24    2    5    5    0    0  0.25480387692E+02 -0.66700092413E+00  0.15992125755E+03  0.18608366220E+03  0.91665837003E+02 0.  0.
          4    1    4    4  502    0 -0.18445421820E+02  0.96900601199E+02 -0.23643381469E+03  0.25618530174E+03  0.00000000000E+00 0. -1.
         -3    1    4    4    0  502 -0.48793430297E+02  0.19653717553E+02 -0.66577424670E+02  0.84850580019E+02  0.00000000000E+00 0.  1.
          5    1    3    3  503    0  0.88885126756E+01 -0.20322896002E+02  0.37187011100E+01  0.22977042835E+02  0.47000000000E+01 0. -1.
         13    1    6    6    0    0  0.43549636396E+02  0.13319347421E+02  0.30852186834E+02  0.55007574737E+02  0.00000000000E+00 0. -1.
        -14    1    6    6    0    0 -0.18069248705E+02 -0.13986348345E+02  0.12906907071E+03  0.13107608746E+03  0.00000000000E+00 0.  1.
         -5    1    5    5    0  501  0.32869951750E+02 -0.95564421826E+02  0.62183193931E+02  0.11875113496E+03  0.47000000000E+01 0.  1.
<mgrwt>
<rscale>  2 0.20799123E+03</rscale>
<asrwt>0</asrwt>
<pdfrwt beam="1">  1        4 0.45512280E-01 0.20799123E+03</pdfrwt>
<pdfrwt beam="2">  1       -4 0.57387370E-01 0.20799123E+03</pdfrwt>
<totfact> 0.24396898E+01</totfact>
</mgrwt>
</event>
<event>
12    1  0.5759937E-002  0.2193473E+03  0.7546771E-02  0.1134371E+00
          1   -1    0    0  503    0  0.00000000000E+00  0.00000000000E+00  0.16441171274E+04  0.16441171274E+04  0.00000000000E+00 0.  1.
         -1   -1    0    0    0  501 -0.00000000000E+00 -0.00000000000E+00 -0.35707151190E+02  0.35707151190E+02  0.00000000000E+00 0. -1.
          6    2    1    2  503    0  0.67953460524E+02 -0.11663290786E+03  0.44584231839E+03  0.49664716495E+03  0.17222695956E+03 0.  0.
         24    2    3    3    0    0  0.10456172863E+03 -0.56233677287E+02  0.34019425774E+03  0.36947863479E+03  0.81773754984E+02 0.  0.
         -6    2    1    2    0  501 -0.67953460524E+02  0.11663290786E+03  0.11625676578E+04  0.11831771136E+04  0.17356156033E+03 0.  0.
        -24    2    5    5    0    0 -0.88871494031E+02  0.55667046148E+02  0.99332959594E+03  0.10020196903E+04  0.79641767995E+02 0.  0.
          4    1    4    4  502    0  0.22989107481E+02 -0.11916138653E+02  0.12245179024E+02  0.28643285994E+02  0.00000000000E+00 0. -1.
         -3    1    4    4    0  502  0.81572621153E+02 -0.44317538633E+02  0.32794907872E+03  0.34083534879E+03  0.00000000000E+00 0.  1.
          5    1    3    3  503    0 -0.36608268111E+02 -0.60399230570E+02  0.10564806064E+03  0.12716853017E+03  0.47000000000E+01 0. -1.
         11    1    6    6    0    0 -0.88457803870E+01 -0.10986662274E+02  0.30849711071E+02  0.33921368659E+02  0.00000000000E+00 0. -1.
        -12    1    6    6    0    0 -0.80025713644E+02  0.66653708422E+02  0.96247988486E+03  0.96809832169E+03  0.00000000000E+00 0.  1.
         -5    1    5    5    0  501  0.20918033507E+02  0.60965861709E+02  0.16923806186E+03  0.18115742326E+03  0.47000000000E+01 0.  1.
<mgrwt>
<rscale>  2 0.21934727E+03</rscale>
<asrwt>0</asrwt>
<pdfrwt beam="1">  1        1 0.25294104E+00 0.21934727E+03</pdfrwt>
<pdfrwt beam="2">  1       -1 0.54934092E-02 0.21934727E+03</pdfrwt>
<totfact> 0.88250259E+02</totfact>
</mgrwt>
</event>
<event>
12    1  0.5759937E-002  0.1976611E+03  0.7546771E-02  0.1151727E+00
          2   -1    0    0  503    0  0.00000000000E+00  0.00000000000E+00  0.80164844838E+03  0.80164844838E+03  0.00000000000E+00 0. -1.
         -2   -1    0    0    0  501 -0.00000000000E+00 -0.00000000000E+00 -0.11953039211E+03  0.11953039211E+03  0.00000000000E+00 0.  1.
          6    2    1    2  503    0  0.96501483336E+02  0.77235546416E+01  0.69604677947E+03  0.72377375418E+03  0.17319104611E+03 0.  0.
         24    2    3    3    0    0  0.90990647223E+02  0.48502846594E+02  0.30725430645E+03  0.33278143067E+03  0.75541033614E+02 0.  0.
         -6    2    1    2    0  501 -0.96501483336E+02 -0.77235546416E+01 -0.13928723202E+02  0.19740508631E+03  0.17147177373E+03 0.  0.
        -24    2    5    5    0    0 -0.56832919281E+01  0.35932660420E+02  0.20392702536E+02  0.90850596637E+02  0.80712531249E+02 0.  0.
          2    1    4    4  502    0  0.64327568532E+02  0.51403300626E+02  0.28858591204E+03  0.30010358881E+03  0.00000000000E+00 0. -1.
         -1    1    4    4    0  502  0.26663078690E+02 -0.29004540319E+01  0.18668394402E+02  0.32677841856E+02  0.00000000000E+00 0.  1.
          5    1    3    3  503    0  0.55108361128E+01 -0.40779291953E+02  0.38879247302E+03  0.39099232351E+03  0.47000000000E+01 0. -1.
         13    1    6    6    0    0 -0.15242067825E+02 -0.15131767211E+02  0.31111490415E+02  0.37804971186E+02  0.00000000000E+00 0. -1.
        -14    1    6    6    0    0  0.95587758969E+01  0.51064427632E+02 -0.10718787878E+02  0.53045625452E+02  0.00000000000E+00 0.  1.
         -5    1    5    5    0  501 -0.90818191408E+02 -0.43656215062E+02 -0.34321425738E+02  0.10655448967E+03  0.47000000000E+01 0.  1.
<mgrwt>
<rscale>  2 0.19766112E+03</rscale>
<asrwt>0</asrwt>
<pdfrwt beam="1">  1        2 0.12333053E+00 0.19766112E+03</pdfrwt>
<pdfrwt beam="2">  1       -2 0.18389292E-01 0.19766112E+03</pdfrwt>
<totfact> 0.86289730E+02</totfact>
</mgrwt>
</event>
<event>
12    1  0.5759937E-002  0.2270229E+03  0.7546771E-02  0.1128753E+00
         -2   -1    0    0    0  501 -0.00000000000E+00  0.00000000000E+00  0.28935076295E+02  0.28935076295E+02  0.00000000000E+00 0. -1.
          2   -1    0    0  503    0  0.00000000000E+00 -0.00000000000E+00 -0.19422662094E+04  0.19422662094E+04  0.00000000000E+00 0.  1.
          6    2    1    2  503    0  0.12489426107E+03 -0.65276333889E+02 -0.68708605014E+03  0.72475880969E+03  0.18256099175E+03 0.  0.
         24    2    3    3    0    0  0.10427794975E+03 -0.81984561587E+02 -0.32041704512E+03  0.35710075332E+03  0.85196866606E+02 0.  0.
         -6    2    1    2    0  501 -0.12489426107E+03  0.65276333889E+02 -0.12262450829E+04  0.12464424760E+04  0.17344240047E+03 0.  0.
        -24    2    5    5    0    0 -0.35691501844E+02 -0.22325922744E+02 -0.67934116499E+03  0.68541014795E+03  0.80686568518E+02 0.  0.
          2    1    4    4  502    0  0.11773707116E+03 -0.72726851268E+02 -0.26025931489E+03  0.29476452265E+03  0.00000000000E+00 0. -1.
         -1    1    4    4    0  502 -0.13459121411E+02 -0.92577103198E+01 -0.60157730222E+02  0.62336230677E+02  0.00000000000E+00 0.  1.
          5    1    3    3  503    0  0.20616311321E+02  0.16708227699E+02 -0.36666900503E+03  0.36765805637E+03  0.47000000000E+01 0. -1.
         13    1    6    6    0    0 -0.36984558695E+02  0.17681570641E+02 -0.18680497865E+03  0.19125008645E+03  0.00000000000E+00 0. -1.
        -14    1    6    6    0    0  0.12930568504E+01 -0.40007493385E+02 -0.49253618634E+03  0.49416006150E+03  0.00000000000E+00 0.  1.
         -5    1    5    5    0  501 -0.89202759230E+02  0.87602256633E+02 -0.54690391794E+03  0.56103232801E+03  0.47000000000E+01 0.  1.
<mgrwt>
<rscale>  2 0.22702294E+03</rscale>
<asrwt>0</asrwt>
<pdfrwt beam="2">  1        2 0.29881013E+00 0.22702294E+03</pdfrwt>
<pdfrwt beam="1">  1       -2 0.44515510E-02 0.22702294E+03</pdfrwt>
<totfact> 0.18670988E+03</totfact>
</mgrwt>
</event>
<event>
12    1  0.5759937E-002  0.1837531E+03  0.7546771E-02  0.1164219E+00
          2   -1    0    0  503    0  0.00000000000E+00  0.00000000000E+00  0.32759938723E+03  0.32759938723E+03  0.00000000000E+00 0.  1.
         -2   -1    0    0    0  501 -0.00000000000E+00 -0.00000000000E+00 -0.13776876601E+03  0.13776876601E+03  0.00000000000E+00 0. -1.
          6    2    1    2  503    0  0.61611167535E+02 -0.78214112557E+01  0.21173749001E+03  0.28042999986E+03  0.17306388910E+03 0.  0.
         24    2    3    3    0    0  0.97605858192E+02  0.68235226370E+01  0.99534174889E+02  0.16159496392E+03  0.81439648690E+02 0.  0.
         -6    2    1    2    0  501 -0.61611167535E+02  0.78214112557E+01 -0.21906868787E+02  0.18493815337E+03  0.17281521702E+03 0.  0.
        -24    2    5    5    0    0 -0.57976750829E+02 -0.40774545655E+02  0.30672060451E+02  0.11309520095E+03  0.82618896000E+02 0.  0.
          2    1    4    4  502    0  0.70393681560E+02 -0.74514514201E+01  0.15978645281E+02  0.72567979419E+02  0.00000000000E+00 0. -1.
         -1    1    4    4    0  502  0.27212176632E+02  0.14274974057E+02  0.83555529607E+02  0.89026984501E+02  0.00000000000E+00 0.  1.
          5    1    3    3  503    0 -0.35994690658E+02 -0.14644933893E+02  0.11220331512E+03  0.11883503594E+03  0.47000000000E+01 0. -1.
         11    1    6    6    0    0 -0.16791859266E+02  0.12114348985E+02 -0.20213269991E+02  0.28936141289E+02  0.00000000000E+00 0. -1.
        -12    1    6    6    0    0 -0.41184891562E+02 -0.52888894640E+02  0.50885330442E+02  0.84159059664E+02  0.00000000000E+00 0.  1.
         -5    1    5    5    0  501 -0.36344167059E+01  0.48595956910E+02 -0.52578929238E+02  0.71842952421E+02  0.47000000000E+01 0.  1.
<mgrwt>
<rscale>  2 0.18375306E+03</rscale>
<asrwt>0</asrwt>
<pdfrwt beam="1">  1        2 0.50399905E-01 0.18375306E+03</pdfrwt>
<pdfrwt beam="2">  1       -2 0.21195195E-01 0.18375306E+03</pdfrwt>
<totfact> 0.18658647E+03</totfact>
</mgrwt>
</event>
<event>
12    1  0.5759937E-002  0.1733405E+03  0.7546771E-02  0.1174408E+00
          3   -1    0    0  503    0  0.00000000000E+00  0.00000000000E+00  0.45870777178E+02  0.45870777178E+02  0.00000000000E+00 0.  1.
         -3   -1    0    0    0  501 -0.00000000000E+00 -0.00000000000E+00 -0.80866315610E+03  0.80866315610E+03  0.00000000000E+00 0. -1.
          6    2    1    2  503    0 -0.36704847684E+01 -0.48880735631E+01 -0.56682398114E+03  0.59260539046E+03  0.17278413550E+03 0.  0.
         24    2    3    3    0    0  0.53256259288E+02  0.11435716433E+02 -0.46237586749E+03  0.47244458672E+03  0.80283497199E+02 0.  0.
         -6    2    1    2    0  501  0.36704847684E+01  0.48880735631E+01 -0.19596839778E+03  0.26192854282E+03  0.17368241965E+03 0.  0.
        -24    2    5    5    0    0 -0.12183420831E+02  0.43852518603E+02 -0.44198649374E+02  0.10436674278E+03  0.82869881512E+02 0.  0.
          2    1    4    4  502    0  0.20804365294E+02  0.27409290493E+02 -0.39018392561E+03  0.39169833626E+03  0.00000000000E+00 0. -1.
         -1    1    4    4    0  502  0.32451893994E+02 -0.15973574060E+02 -0.72191941877E+02  0.80746250464E+02  0.00000000000E+00 0.  1.
          5    1    3    3  503    0 -0.56926744056E+02 -0.16323789996E+02 -0.10444811365E+03  0.12016080373E+03  0.47000000000E+01 0. -1.
         11    1    6    6    0    0 -0.14196979339E+02  0.34551669300E+02 -0.68635569388E+02  0.78142264230E+02  0.00000000000E+00 0. -1.
        -12    1    6    6    0    0  0.20135585083E+01  0.93008493032E+01  0.24436920014E+02  0.26224478554E+02  0.00000000000E+00 0.  1.
         -5    1    5    5    0  501  0.15853905599E+02 -0.38964445040E+02 -0.15176974840E+03  0.15756180003E+03  0.47000000000E+01 0.  1.
<mgrwt>
<rscale>  2 0.17334051E+03</rscale>
<asrwt>0</asrwt>
<pdfrwt beam="1">  1        3 0.70570421E-02 0.17334051E+03</pdfrwt>
<pdfrwt beam="2">  1       -3 0.12440973E+00 0.17334051E+03</pdfrwt>
<totfact> 0.17090672E+02</totfact>
</mgrwt>
</event>
<event>
12    1  0.5759937E-002  0.2114312E+03  0.7546771E-02  0.1140438E+00
         -1   -1    0    0    0  501 -0.00000000000E+00  0.00000000000E+00  0.53279110938E+02  0.53279110938E+02  0.00000000000E+00 0. -1.
          1   -1    0    0  503    0  0.00000000000E+00 -0.00000000000E+00 -0.11246251494E+04  0.11246251494E+04  0.00000000000E+00 0.  1.
          6    2    1    2  503    0  0.16930481024E+02  0.12035190351E+03 -0.23871414394E+03  0.31882489836E+03  0.17289780632E+03 0.  0.
         24    2    3    3    0    0 -0.24104467828E+02  0.16760784213E+02 -0.16347858382E+03  0.18429807378E+03  0.79866033935E+02 0.  0.
         -6    2    1    2    0  501 -0.16930481024E+02 -0.12035190351E+03 -0.83263189448E+03  0.85907936193E+03  0.17311919747E+03 0.  0.
        -24    2    5    5    0    0 -0.55096928917E+02 -0.59610969651E+02 -0.68865265938E+03  0.69815003294E+03  0.81128564310E+02 0.  0.
          2    1    4    4  502    0 -0.36090909862E+02  0.43027348209E+02 -0.11119450202E+03  0.12457176144E+03  0.00000000000E+00 0. -1.
         -1    1    4    4    0  502  0.11986442035E+02 -0.26266563996E+02 -0.52284081796E+02  0.59726312343E+02  0.00000000000E+00 0.  1.
          5    1    3    3  503    0  0.41034948851E+02  0.10359111929E+03 -0.75235560123E+02  0.13452682458E+03  0.47000000000E+01 0. -1.
         11    1    6    6    0    0 -0.80123928741E+01 -0.89159498195E+01 -0.90124467369E+01  0.14997226308E+02  0.00000000000E+00 0. -1.
        -12    1    6    6    0    0 -0.47084536043E+02 -0.50695019832E+02 -0.67964021264E+03  0.68315280663E+03  0.00000000000E+00 0.  1.
         -5    1    5    5    0  501  0.38166447894E+02 -0.60740933855E+02 -0.14397923510E+03  0.16092932899E+03  0.47000000000E+01 0.  1.
<mgrwt>
<rscale>  2 0.21143122E+03</rscale>
<asrwt>0</asrwt>
<pdfrwt beam="2">  1        1 0.17301923E+00 0.21143122E+03</pdfrwt>
<pdfrwt beam="1">  1       -1 0.81967873E-02 0.21143122E+03</pdfrwt>
<totfact> 0.10777447E+03</totfact>
</mgrwt>
</event>
<event>
12    1  0.5759937E-002  0.2050472E+03  0.7546771E-02  0.1145549E+00
          1   -1    0    0  503    0  0.00000000000E+00  0.00000000000E+00  0.44699079871E+03  0.44699079871E+03  0.00000000000E+00 0.  1.
         -1   -1    0    0    0  501 -0.00000000000E+00 -0.00000000000E+00 -0.10481196922E+03  0.10481196922E+03  0.00000000000E+00 0. -1.
          6    2    1    2  503    0 -0.98171005436E+02 -0.49874878641E+02  0.82216640020E+02  0.22028042056E+03  0.17215933887E+03 0.  0.
         24    2    3    3    0    0 -0.12544851278E+03 -0.44453147399E+02  0.27030339460E+02  0.15830401097E+03  0.81339467453E+02 0.  0.
         -6    2    1    2    0  501  0.98171005436E+02  0.49874878641E+02  0.25996218947E+03  0.33152234736E+03  0.17378629698E+03 0.  0.
        -24    2    5    5    0    0 -0.92243530412E+01  0.59154313352E+02  0.13096932284E+03  0.16335243158E+03  0.77115056257E+02 0.  0.
          2    1    4    4  502    0 -0.10316001136E+03 -0.23577843971E+02 -0.14442410395E+02  0.10680115115E+03  0.00000000000E+00 0. -1.
         -1    1    4    4    0  502 -0.22288501422E+02 -0.20875303428E+02  0.41472749854E+02  0.51502859817E+02  0.00000000000E+00 0.  1.
          5    1    3    3  503    0  0.27277507344E+02 -0.54217312418E+01  0.55186300560E+02  0.61976409593E+02  0.47000000000E+01 0. -1.
         11    1    6    6    0    0 -0.18289780034E+02 -0.77982665859E+01  0.68526720725E+02  0.71352928944E+02  0.00000000000E+00 0. -1.
        -12    1    6    6    0    0  0.90654269929E+01  0.66952579938E+02  0.62442602113E+02  0.91999502637E+02  0.00000000000E+00 0.  1.
         -5    1    5    5    0  501  0.10739535848E+03 -0.92794347110E+01  0.12899286663E+03  0.16816991578E+03  0.47000000000E+01 0.  1.
<mgrwt>
<rscale>  2 0.20504723E+03</rscale>
<asrwt>0</asrwt>
<pdfrwt beam="1">  1        1 0.68767814E-01 0.20504723E+03</pdfrwt>
<pdfrwt beam="2">  1       -1 0.16124919E-01 0.20504723E+03</pdfrwt>
<totfact> 0.14928981E+03</totfact>
</mgrwt>
</event>
<event>
12    1  0.5759937E-002  0.2692205E+03  0.7546771E-02  0.1101727E+00
          2   -1    0    0  503    0  0.00000000000E+00  0.00000000000E+00  0.12747408114E+04  0.12747408114E+04  0.00000000000E+00 0.  1.
         -2   -1    0    0    0  501 -0.00000000000E+00 -0.00000000000E+00 -0.58666229020E+02  0.58666229020E+02  0.00000000000E+00 0. -1.
          6    2    1    2  503    0 -0.20294307731E+03 -0.42335533101E+02  0.72493356655E+03  0.77328781337E+03  0.17166006063E+03 0.  0.
         24    2    3    3    0    0 -0.14338271397E+03 -0.30694769953E+02  0.29736964869E+03  0.34141290313E+03  0.81445017591E+02 0.  0.
         -6    2    1    2    0  501  0.20294307731E+03  0.42335533101E+02  0.49114101586E+03  0.56011922707E+03  0.17186000433E+03 0.  0.
        -24    2    5    5    0    0  0.22429954104E+03  0.21832576884E+02  0.45064297977E+03  0.50973420267E+03  0.77219923797E+02 0.  0.
          4    1    4    4  502    0 -0.13764227420E+03 -0.27886370509E+02  0.20309729127E+03  0.24692418883E+03  0.00000000000E+00 0. -1.
         -3    1    4    4    0  502 -0.57404397727E+01 -0.28083994442E+01  0.94272357421E+02  0.94488714300E+02  0.00000000000E+00 0.  1.
          5    1    3    3  503    0 -0.59560363334E+02 -0.11640763148E+02  0.42756391786E+03  0.43187491025E+03  0.47000000000E+01 0. -1.
         11    1    6    6    0    0  0.11509291036E+03  0.14317684557E+01  0.30885885140E+03  0.32960918990E+03  0.00000000000E+00 0. -1.
        -12    1    6    6    0    0  0.10920663068E+03  0.20400808429E+02  0.14178412838E+03  0.18012501278E+03  0.00000000000E+00 0.  1.
         -5    1    5    5    0  501 -0.21356463738E+02  0.20502956217E+02  0.40498036085E+02  0.50385024399E+02  0.47000000000E+01 0.  1.
<mgrwt>
<rscale>  2 0.26922054E+03</rscale>
<asrwt>0</asrwt>
<pdfrwt beam="1">  1        2 0.19611395E+00 0.26922054E+03</pdfrwt>
<pdfrwt beam="2">  1       -2 0.90255746E-02 0.26922054E+03</pdfrwt>
<totfact> 0.14176141E+03</totfact>
</mgrwt>
</event>
<event>
12    1  0.5759937E-002  0.1769785E+03  0.7546771E-02  0.1170760E+00
         -1   -1    0    0    0  501 -0.00000000000E+00  0.00000000000E+00  0.32615488752E+03  0.32615488752E+03  0.00000000000E+00 0.  1.
          1   -1    0    0  503    0  0.00000000000E+00 -0.00000000000E+00 -0.13032264021E+03  0.13032264021E+03  0.00000000000E+00 0. -1.
          6    2    1    2  503    0 -0.12030314469E+02 -0.22218000352E+02  0.21439088191E+03  0.27709088718E+03  0.17371684289E+03 0.  0.
         24    2    3    3    0    0 -0.36605193364E+02  0.91915464789E+01  0.21923273118E+03  0.23664317019E+03  0.80700525845E+02 0.  0.
         -6    2    1    2    0  501  0.12030314469E+02  0.22218000352E+02 -0.18558634603E+02  0.17938664056E+03  0.17662609062E+03 0.  0.
        -24    2    5    5    0    0  0.14715420763E+02 -0.11178636509E+02  0.54097462675E+02  0.99239628006E+02  0.81120051630E+02 0.  0.
          2    1    4    4  502    0 -0.57680243667E+02  0.21199232591E+02  0.18298654993E+03  0.19302977860E+03  0.00000000000E+00 0. -1.
         -1    1    4    4    0  502  0.21075050303E+02 -0.12007686112E+02  0.36246181249E+02  0.43613391592E+02  0.00000000000E+00 0.  1.
          5    1    3    3  503    0  0.24574878895E+02 -0.31409546831E+02 -0.48418492686E+01  0.40447716983E+02  0.47000000000E+01 0. -1.
         13    1    6    6    0    0 -0.13947983499E+02  0.14267086137E+02 -0.11672805411E+02  0.23116019914E+02  0.00000000000E+00 0. -1.
        -14    1    6    6    0    0  0.28663404262E+02 -0.25445722646E+02  0.65770268086E+02  0.76123608092E+02  0.00000000000E+00 0.  1.
         -5    1    5    5    0  501 -0.26851062943E+01  0.33396636861E+02 -0.72656097278E+02  0.80147012553E+02  0.47000000000E+01 0.  1.
<mgrwt>
<rscale>  2 0.17697848E+03</rscale>
<asrwt>0</asrwt>
<pdfrwt beam="2">  1        1 0.20049637E-01 0.17697848E+03</pdfrwt>
<pdfrwt beam="1">  1       -1 0.50177675E-01 0.17697848E+03</pdfrwt>
<totfact> 0.10321149E+03</totfact>
</mgrwt>
</event>
<event>
12    1  0.5759937E-002  0.3041194E+03  0.7546771E-02  0.1083199E+00
          2   -1    0    0  503    0  0.00000000000E+00  0.00000000000E+00  0.32270638623E+04  0.32270638623E+04  0.00000000000E+00 0.  1.
         -2   -1    0    0    0  501 -0.00000000000E+00 -0.00000000000E+00 -0.38986798004E+02  0.38986798004E+02  0.00000000000E+00 0. -1.
          6    2    1    2  503    0  0.60925358301E+01  0.25033794821E+03  0.75177694676E+03  0.81078402495E+03  0.17174385034E+03 0.  0.
         24    2    3    3    0    0 -0.56632794771E+02  0.20031199481E+03  0.54714155248E+03  0.59093226193E+03  0.80652904646E+02 0.  0.
         -6    2    1    2    0  501 -0.60925358301E+01 -0.25033794821E+03  0.24363001176E+04  0.24552666354E+04  0.17340640317E+03 0.  0.
        -24    2    5    5    0    0 -0.29903742230E+02 -0.66382669141E+02  0.66564184288E+03  0.67491292503E+03  0.84424527353E+02 0.  0.
          2    1    4    4  502    0 -0.53347341768E+02  0.20639705834E+03  0.50386377046E+03  0.54710545944E+03  0.00000000000E+00 0. -1.
         -1    1    4    4    0  502 -0.32854530027E+01 -0.60850635352E+01  0.43277782020E+02  0.43826802487E+02  0.00000000000E+00 0.  1.
          5    1    3    3  503    0  0.62725330601E+02  0.50025953405E+02  0.20463539428E+03  0.21985176303E+03  0.47000000000E+01 0. -1.
         11    1    6    6    0    0  0.99382712139E+01  0.11377113839E+02  0.23566533917E+03  0.23614902083E+03  0.00000000000E+00 0. -1.
        -12    1    6    6    0    0 -0.39842013444E+02 -0.77759782980E+02  0.42997650371E+03  0.43876390420E+03  0.00000000000E+00 0.  1.
         -5    1    5    5    0  501  0.23811206400E+02 -0.18395527907E+03  0.17706582747E+04  0.17803537103E+04  0.47000000000E+01 0.  1.
<mgrwt>
<rscale>  2 0.30411943E+03</rscale>
<asrwt>0</asrwt>
<pdfrwt beam="1">  1        2 0.49647115E+00 0.30411943E+03</pdfrwt>
<pdfrwt beam="2">  1       -2 0.59979715E-02 0.30411943E+03</pdfrwt>
<totfact> 0.22261936E+02</totfact>
</mgrwt>
</event>
<event>
12    1  0.5759937E-002  0.2040766E+03  0.7546771E-02  0.1146344E+00
          2   -1    0    0  503    0  0.00000000000E+00  0.00000000000E+00  0.92024058280E+02  0.92024058280E+02  0.00000000000E+00 0. -1.
         -2   -1    0    0    0  501 -0.00000000000E+00 -0.00000000000E+00 -0.53121419815E+03  0.53121419815E+03  0.00000000000E+00 0.  1.
          6    2    1    2  503    0 -0.11479493514E+03  0.81142411919E+01 -0.10126264062E+03  0.22933307567E+03  0.17057496641E+03 0.  0.
         24    2    3    3    0    0 -0.10003384821E+02  0.46515727364E+02 -0.32187155273E+02  0.97995891923E+02  0.79393962423E+02 0.  0.
         -6    2    1    2    0  501  0.11479493514E+03 -0.81142411919E+01 -0.33792749926E+03  0.39390518076E+03  0.16650098688E+03 0.  0.
        -24    2    5    5    0    0  0.71940716120E+02 -0.54232449635E+01 -0.33341603563E+03  0.35047513525E+03  0.80384634087E+02 0.  0.
          4    1    4    4  502    0  0.30657399073E+02 -0.37055071320E-01 -0.86282251507E+01  0.31848449888E+02  0.00000000000E+00 0. -1.
         -3    1    4    4    0  502 -0.40660783894E+02  0.46552782435E+02 -0.23558930122E+02  0.66147442036E+02  0.00000000000E+00 0.  1.
          5    1    3    3  503    0 -0.10479155032E+03 -0.38401486172E+02 -0.69075485343E+02  0.13133718375E+03  0.47000000000E+01 0. -1.
         11    1    6    6    0    0  0.32444640319E+02 -0.21853031286E+02 -0.48233438804E+02  0.62102127828E+02  0.00000000000E+00 0. -1.
        -12    1    6    6    0    0  0.39496075800E+02  0.16429786323E+02 -0.28518259682E+03  0.28837300743E+03  0.00000000000E+00 0.  1.
         -5    1    5    5    0  501  0.42854219024E+02 -0.26909962284E+01 -0.45114636308E+01  0.43430045509E+02  0.47000000000E+01 0.  1.
<mgrwt>
<rscale>  2 0.20407660E+03</rscale>
<asrwt>0</asrwt>
<pdfrwt beam="1">  1        2 0.14157547E-01 0.20407660E+03</pdfrwt>
<pdfrwt beam="2">  1       -2 0.81725262E-01 0.20407660E+03</pdfrwt>
<totfact> 0.56541862E+02</totfact>
</mgrwt>
</event>
<event>
12    1  0.5759937E-002  0.2138479E+03  0.7546771E-02  0.1138555E+00
          2   -1    0    0  503    0  0.00000000000E+00  0.00000000000E+00  0.32831787825E+04  0.32831787825E+04  0.00000000000E+00 0. -1.
         -2   -1    0    0    0  501 -0.00000000000E+00 -0.00000000000E+00 -0.14177397398E+02  0.14177397398E+02  0.00000000000E+00 0.  1.
          6    2    1    2  503    0  0.89626047153E+02 -0.89579789991E+02  0.14134920185E+04  0.14295227226E+04  0.17180850077E+03 0.  0.
         24    2    3    3    0    0  0.43779741884E+02 -0.51335194657E+01  0.35741780634E+03  0.36907569992E+03  0.80785921776E+02 0.  0.
         -6    2    1    2    0  501 -0.89626047153E+02  0.89579789991E+02  0.18555093666E+04  0.18678334573E+04  0.17271203661E+03 0.  0.
        -24    2    5    5    0    0  0.31378906967E+01  0.69205260728E+02  0.12545978321E+04  0.12594445752E+04  0.85940113761E+02 0.  0.
          2    1    4    4  502    0  0.49331104366E+02 -0.35042071350E+02  0.26332064012E+03  0.27018375994E+03  0.00000000000E+00 0. -1.
         -1    1    4    4    0  502 -0.55513624823E+01  0.29908551884E+02  0.94097166222E+02  0.98891939976E+02  0.00000000000E+00 0.  1.
          5    1    3    3  503    0  0.45846305269E+02 -0.84446270525E+02  0.10560742121E+04  0.10604470227E+04  0.47000000000E+01 0. -1.
         11    1    6    6    0    0 -0.15319621105E+02  0.71769616056E+02  0.11886844518E+04  0.11909476456E+04  0.00000000000E+00 0. -1.
        -12    1    6    6    0    0  0.18457511802E+02 -0.25643553282E+01  0.65913380312E+02  0.68496929597E+02  0.00000000000E+00 0.  1.
         -5    1    5    5    0  501 -0.92763937849E+02  0.20374529262E+02  0.60091153451E+03  0.60838888214E+03  0.47000000000E+01 0.  1.
<mgrwt>
<rscale>  2 0.21384786E+03</rscale>
<asrwt>0</asrwt>
<pdfrwt beam="1">  1        2 0.50510382E+00 0.21384786E+03</pdfrwt>
<pdfrwt beam="2">  1       -2 0.21811407E-02 0.21384786E+03</pdfrwt>
<totfact> 0.96434340E+02</totfact>
</mgrwt>
</event>
<event>
12    1  0.5759937E-002  0.2178024E+03  0.7546771E-02  0.1135532E+00
          1   -1    0    0  503    0  0.00000000000E+00  0.00000000000E+00  0.52643083255E+03  0.52643083255E+03  0.00000000000E+00 0.  1.
         -1   -1    0    0    0  501 -0.00000000000E+00 -0.00000000000E+00 -0.94822718570E+02  0.94822718570E+02  0.00000000000E+00 0. -1.
          6    2    1    2  503    0 -0.87814039975E+02 -0.98772632580E+02  0.28520919709E+03  0.35897375542E+03  0.17335089389E+03 0.  0.
         24    2    3    3    0    0 -0.67384659746E+02 -0.54879887992E+02  0.28684907573E+03  0.31030434196E+03  0.80336155750E+02 0.  0.
         -6    2    1    2    0  501  0.87814039975E+02  0.98772632580E+02  0.14639891689E+03  0.26227979570E+03  0.17288929927E+03 0.  0.
        -24    2    5    5    0    0  0.28907779693E+02  0.93631607962E+02  0.29895095763E+02  0.13154491906E+03  0.82509461531E+02 0.  0.
          4    1    4    4  502    0 -0.51417365339E+02  0.77922620547E+01  0.10246436067E+03  0.11490609215E+03  0.00000000000E+00 0. -1.
         -3    1    4    4    0  502 -0.15967294407E+02 -0.62672150047E+02  0.18438471506E+03  0.19539824982E+03  0.00000000000E+00 0.  1.
          5    1    3    3  503    0 -0.20429380229E+02 -0.43892744587E+02 -0.16398786386E+01  0.48669413454E+02  0.47000000000E+01 0. -1.
         11    1    6    6    0    0  0.87019408454E+01 -0.55030779196E+01 -0.17123152719E+02  0.19980240242E+02  0.00000000000E+00 0. -1.
        -12    1    6    6    0    0  0.20205838848E+02  0.99134685882E+02  0.47018248482E+02  0.11156467881E+03  0.00000000000E+00 0.  1.
         -5    1    5    5    0  501  0.58906260282E+02  0.51410246175E+01  0.11650382113E+03  0.13073487665E+03  0.47000000000E+01 0.  1.
<mgrwt>
<rscale>  2 0.21780242E+03</rscale>
<asrwt>0</asrwt>
<pdfrwt beam="1">  1        1 0.80989357E-01 0.21780242E+03</pdfrwt>
<pdfrwt beam="2">  1       -1 0.14588111E-01 0.21780242E+03</pdfrwt>
<totfact> 0.14120763E+03</totfact>
</mgrwt>
</event>
<event>
12    1  0.5759937E-002  0.1763788E+03  0.7546771E-02  0.1171354E+00
         -2   -1    0    0    0  501 -0.00000000000E+00  0.00000000000E+00  0.76051166902E+03  0.76051166902E+03  0.00000000000E+00 0. -1.
          2   -1    0    0  503    0  0.00000000000E+00 -0.00000000000E+00 -0.90122569548E+02  0.90122569548E+02  0.00000000000E+00 0.  1.
          6    2    1    2  503    0 -0.15750164677E+02 -0.27236232028E+02  0.20805865130E+02  0.17750576197E+03  0.17345181315E+03 0.  0.
         24    2    3    3    0    0 -0.48256730031E+02  0.22861404719E+02 -0.27679604374E+02  0.10043838397E+03  0.80438502329E+02 0.  0.
         -6    2    1    2    0  501  0.15750164677E+02  0.27236232028E+02  0.64958323434E+03  0.67312847660E+03  0.17364817203E+03 0.  0.
        -24    2    5    5    0    0 -0.18935686675E+02  0.60648384148E+02  0.57824832180E+03  0.58692963705E+03  0.77964674341E+02 0.  0.
          2    1    4    4  502    0  0.16949978548E+02  0.19879460482E+02 -0.23318820860E+02  0.35018025760E+02  0.00000000000E+00 0. -1.
         -1    1    4    4    0  502 -0.65206708580E+02  0.29819442372E+01 -0.43607835133E+01  0.65420358208E+02  0.00000000000E+00 0.  1.
          5    1    3    3  503    0  0.32506565354E+02 -0.50097636747E+02  0.48485469503E+02  0.77067377999E+02  0.47000000000E+01 0. -1.
         13    1    6    6    0    0  0.10003561538E+00 -0.14080132977E+02  0.22124562328E+03  0.22169322492E+03  0.00000000000E+00 0. -1.
        -14    1    6    6    0    0 -0.19035722291E+02  0.74728517126E+02  0.35700269852E+03  0.36523641213E+03  0.00000000000E+00 0.  1.
         -5    1    5    5    0  501  0.34685851353E+02 -0.33412152121E+02  0.71334912539E+02  0.86198839553E+02  0.47000000000E+01 0.  1.
<mgrwt>
<rscale>  2 0.17637877E+03</rscale>
<asrwt>0</asrwt>
<pdfrwt beam="2">  1        2 0.13865011E-01 0.17637877E+03</pdfrwt>
<pdfrwt beam="1">  1       -2 0.11700179E+00 0.17637877E+03</pdfrwt>
<totfact> 0.25317067E+02</totfact>
</mgrwt>
</event>
<event>
12    1  0.5759937E-002  0.1779286E+03  0.7546771E-02  0.1169823E+00
          1   -1    0    0  503    0  0.00000000000E+00  0.00000000000E+00  0.72075047330E+02  0.72075047330E+02  0.00000000000E+00 0.  1.
         -1   -1    0    0    0  501 -0.00000000000E+00 -0.00000000000E+00 -0.44036368953E+03  0.44036368953E+03  0.00000000000E+00 0. -1.
          6    2    1    2  503    0  0.12420560071E+02  0.42518620125E+02 -0.17203823167E+03  0.24803402072E+03  0.17309424863E+03 0.  0.
         24    2    3    3    0    0  0.74222916658E+02  0.37844533060E+02 -0.98825427559E+02  0.15199453376E+03  0.79966387441E+02 0.  0.
         -6    2    1    2    0  501 -0.12420560071E+02 -0.42518620125E+02 -0.19625041053E+03  0.26440471615E+03  0.17156202061E+03 0.  0.
        -24    2    5    5    0    0 -0.13908260791E+02 -0.83198257918E+02 -0.82614201013E+02  0.14360602286E+03  0.81744686400E+02 0.  0.
          4    1    4    4  502    0  0.54031859045E+02 -0.16494595870E+02 -0.38716847633E+02  0.68487281851E+02  0.00000000000E+00 0. -1.
         -3    1    4    4    0  502  0.20191057614E+02  0.54339128929E+02 -0.60108579926E+02  0.83507251907E+02  0.00000000000E+00 0.  1.
          5    1    3    3  503    0 -0.61802356588E+02  0.46740870648E+01 -0.73212804108E+02  0.96039486958E+02  0.47000000000E+01 0. -1.
         13    1    6    6    0    0 -0.23018343448E+02 -0.17179144366E+02 -0.70154680552E+02  0.75806637834E+02  0.00000000000E+00 0. -1.
        -14    1    6    6    0    0  0.91100826566E+01 -0.66019113552E+02 -0.12459520460E+02  0.67799385029E+02  0.00000000000E+00 0.  1.
         -5    1    5    5    0  501  0.14877007209E+01  0.40679637793E+02 -0.11363620952E+03  0.12079869328E+03  0.47000000000E+01 0.  1.
<mgrwt>
<rscale>  2 0.17792857E+03</rscale>
<asrwt>0</asrwt>
<pdfrwt beam="1">  1        1 0.11088469E-01 0.17792857E+03</pdfrwt>
<pdfrwt beam="2">  1       -1 0.67748260E-01 0.17792857E+03</pdfrwt>
<totfact> 0.12634494E+03</totfact>
</mgrwt>
</event>
<event>
12    1  0.5759937E-002  0.2704205E+03  0.7546771E-02  0.1101039E+00
         -1   -1    0    0    0  501 -0.00000000000E+00  0.00000000000E+00  0.33623545965E+03  0.33623545965E+03  0.00000000000E+00 0. -1.
          1   -1    0    0  503    0  0.00000000000E+00 -0.00000000000E+00 -0.23262552494E+03  0.23262552494E+03  0.00000000000E+00 0.  1.
          6    2    1    2  503    0  0.13592672849E+03 -0.15679106848E+03 -0.20762484680E+02  0.27115156058E+03  0.17329908644E+03 0.  0.
         24    2    3    3    0    0  0.13891234316E+03 -0.14538893242E+03  0.27020773005E+02  0.22171218035E+03  0.89395682179E+02 0.  0.
         -6    2    1    2    0  501 -0.13592672849E+03  0.15679106848E+03  0.12437241939E+03  0.29770942401E+03  0.17350183793E+03 0.  0.
        -24    2    5    5    0    0  0.26802736799E+01  0.42083378516E+02  0.47405016315E+02  0.10196513591E+03  0.79821417891E+02 0.  0.
          4    1    4    4  502    0  0.63267001833E+02 -0.74723687008E+02  0.57823087109E+02  0.11370950850E+03  0.00000000000E+00 0. -1.
         -3    1    4    4    0  502  0.75645341323E+02 -0.70665245412E+02 -0.30802314104E+02  0.10800267185E+03  0.00000000000E+00 0.  1.
          5    1    3    3  503    0 -0.29856146651E+01 -0.11402136060E+02 -0.47783257686E+02  0.49439380222E+02  0.47000000000E+01 0. -1.
         11    1    6    6    0    0 -0.60374686595E+01  0.60024283712E+02  0.53990966392E+02  0.80959187958E+02  0.00000000000E+00 0. -1.
        -12    1    6    6    0    0  0.87177423394E+01 -0.17940905196E+02 -0.65859500774E+01  0.21005947947E+02  0.00000000000E+00 0.  1.
         -5    1    5    5    0  501 -0.13860700217E+03  0.11470768996E+03  0.76967403075E+02  0.19574428810E+03  0.47000000000E+01 0.  1.
<mgrwt>
<rscale>  2 0.27042048E+03</rscale>
<asrwt>0</asrwt>
<pdfrwt beam="2">  1        1 0.35788542E-01 0.27042048E+03</pdfrwt>
<pdfrwt beam="1">  1       -1 0.51728533E-01 0.27042048E+03</pdfrwt>
<totfact> 0.46864949E+02</totfact>
</mgrwt>
</event>
<event>
12    1  0.5759937E-002  0.2136745E+03  0.7546771E-02  0.1138689E+00
         -1   -1    0    0    0  501 -0.00000000000E+00  0.00000000000E+00  0.17889295769E+03  0.17889295769E+03  0.00000000000E+00 0. -1.
          1   -1    0    0  503    0  0.00000000000E+00 -0.00000000000E+00 -0.25534661759E+03  0.25534661759E+03  0.00000000000E+00 0.  1.
          6    2    1    2  503    0 -0.86529057074E+02  0.91045268165E+02 -0.33395158157E+02  0.21643092669E+03  0.17306239009E+03 0.  0.
         24    2    3    3    0    0 -0.17787400757E+02  0.50620502378E+02 -0.74483098474E+02  0.12659838335E+03  0.87181373138E+02 0.  0.
         -6    2    1    2    0  501  0.86529057074E+02 -0.91045268165E+02 -0.43058501746E+02  0.21780864859E+03  0.17265588393E+03 0.  0.
        -24    2    5    5    0    0  0.10024669043E+03 -0.81963062705E+02 -0.82506635050E+02  0.17480975160E+03  0.83568904731E+02 0.  0.
          4    1    4    4  502    0 -0.35916671395E+02  0.63363029516E+02 -0.33851352952E+02  0.80316840639E+02  0.00000000000E+00 0. -1.
         -3    1    4    4    0  502  0.18129270639E+02 -0.12742527137E+02 -0.40631745522E+02  0.46281542713E+02  0.00000000000E+00 0.  1.
          5    1    3    3  503    0 -0.68741656317E+02  0.40424765787E+02  0.41087940317E+02  0.89832543333E+02  0.47000000000E+01 0. -1.
         11    1    6    6    0    0  0.48030328546E+02 -0.85137582923E+02 -0.34075905462E+02  0.10352047053E+03  0.00000000000E+00 0. -1.
        -12    1    6    6    0    0  0.52216361886E+02  0.31745202181E+01 -0.48430729589E+02  0.71289281071E+02  0.00000000000E+00 0.  1.
         -5    1    5    5    0  501 -0.13717633357E+02 -0.90822054606E+01  0.39448133305E+02  0.42998896988E+02  0.47000000000E+01 0.  1.
<mgrwt>
<rscale>  2 0.21367449E+03</rscale>
<asrwt>0</asrwt>
<pdfrwt beam="2">  1        1 0.39284095E-01 0.21367449E+03</pdfrwt>
<pdfrwt beam="1">  1       -1 0.27521994E-01 0.21367449E+03</pdfrwt>
<totfact> 0.12679463E+03</totfact>
</mgrwt>
</event>
<event>
12    1  0.5759937E-002  0.2109509E+03  0.7546771E-02  0.1140815E+00
          1   -1    0    0  503    0  0.00000000000E+00  0.00000000000E+00  0.36474283158E+03  0.36474283158E+03  0.00000000000E+00 0. -1.
         -1   -1    0    0    0  501 -0.00000000000E+00 -0.00000000000E+00 -0.12981557836E+03  0.12981557836E+03  0.00000000000E+00 0.  1.
          6    2    1    2  503    0  0.33516804641E+02  0.10687593582E+03  0.17540863227E+03  0.27079165355E+03  0.17324574889E+03 0.  0.
         24    2    3    3    0    0 -0.41424106934E+02  0.62928064641E+02  0.13574132318E+03  0.17517188039E+03  0.81139280905E+02 0.  0.
         -6    2    1    2    0  501 -0.33516804641E+02 -0.10687593582E+03  0.59518620958E+02  0.22376675639E+03  0.18434547235E+03 0.  0.
        -24    2    5    5    0    0 -0.47908766540E+02 -0.75841916703E+02 -0.26308521176E+02  0.13125390736E+03  0.92131447774E+02 0.  0.
          2    1    4    4  502    0 -0.63520984424E+02  0.60807027698E+02  0.11521661146E+03  0.14493887551E+03  0.00000000000E+00 0. -1.
         -1    1    4    4    0  502  0.22096877490E+02  0.21210369430E+01  0.20524711722E+02  0.30233004875E+02  0.00000000000E+00 0.  1.
          5    1    3    3  503    0  0.74940911575E+02  0.43947871175E+02  0.39667309087E+02  0.95619773157E+02  0.47000000000E+01 0. -1.
         11    1    6    6    0    0 -0.64265050818E+02 -0.86708713734E+02 -0.16100523399E+02  0.10912206307E+03  0.00000000000E+00 0. -1.
        -12    1    6    6    0    0  0.16356284277E+02  0.10866797031E+02 -0.10207997777E+02  0.22131844290E+02  0.00000000000E+00 0.  1.
         -5    1    5    5    0  501  0.14391961900E+02 -0.31034019114E+02  0.85827142134E+02  0.92512849035E+02  0.47000000000E+01 0.  1.
<mgrwt>
<rscale>  2 0.21095090E+03</rscale>
<asrwt>0</asrwt>
<pdfrwt beam="1">  1        1 0.56114281E-01 0.21095090E+03</pdfrwt>
<pdfrwt beam="2">  1       -1 0.19971628E-01 0.21095090E+03</pdfrwt>
<totfact> 0.13742032E+03</totfact>
</mgrwt>
</event>
<event>
12    1  0.5759937E-002  0.2861892E+03  0.7546771E-02  0.1092356E+00
         -2   -1    0    0    0  501 -0.00000000000E+00  0.00000000000E+00  0.23239068658E+03  0.23239068658E+03  0.00000000000E+00 0.  1.
          2   -1    0    0  503    0  0.00000000000E+00 -0.00000000000E+00 -0.52269588430E+03  0.52269588430E+03  0.00000000000E+00 0. -1.
          6    2    1    2  503    0  0.48995999315E+02 -0.22256350956E+03 -0.36064341403E+03  0.46043425466E+03  0.17320769915E+03 0.  0.
         24    2    3    3    0    0  0.70907777202E+01 -0.16924853633E+03 -0.15034125859E+03  0.23941927654E+03  0.77612819610E+02 0.  0.
         -6    2    1    2    0  501 -0.48995999315E+02  0.22256350956E+03  0.70338216314E+02  0.29465231623E+03  0.17302427300E+03 0.  0.
        -24    2    5    5    0    0  0.17515706016E+02  0.60386148238E+02 -0.12894691184E+02  0.10055154250E+03  0.77401891333E+02 0.  0.
          2    1    4    4  502    0 -0.25778663304E+02 -0.75347863305E+02 -0.10025683289E+03  0.12803621569E+03  0.00000000000E+00 0. -1.
         -1    1    4    4    0  502  0.32869441024E+02 -0.93900673028E+02 -0.50084425696E+02  0.11138306086E+03  0.00000000000E+00 0.  1.
          5    1    3    3  503    0  0.41905221595E+02 -0.53314973224E+02 -0.21030215544E+03  0.22101497811E+03  0.47000000000E+01 0. -1.
         11    1    6    6    0    0  0.45246400353E+02  0.48517421942E+02  0.30914756104E+01  0.66413358583E+02  0.00000000000E+00 0. -1.
        -12    1    6    6    0    0 -0.27730694337E+02  0.11868726295E+02 -0.15986166794E+02  0.34138183915E+02  0.00000000000E+00 0.  1.
         -5    1    5    5    0  501 -0.66511705332E+02  0.16217736132E+03  0.83232907498E+02  0.19410077373E+03  0.47000000000E+01 0.  1.
<mgrwt>
<rscale>  2 0.28618922E+03</rscale>
<asrwt>0</asrwt>
<pdfrwt beam="2">  1        2 0.80414751E-01 0.28618922E+03</pdfrwt>
<pdfrwt beam="1">  1       -2 0.35752414E-01 0.28618922E+03</pdfrwt>
<totfact> 0.43913071E+02</totfact>
</mgrwt>
</event>
<event>
12    1  0.5759937E-002  0.1962537E+03  0.7546771E-02  0.1152939E+00
          1   -1    0    0  503    0  0.00000000000E+00  0.00000000000E+00  0.12325506540E+04  0.12325506540E+04  0.00000000000E+00 0. -1.
         -1   -1    0    0    0  501 -0.00000000000E+00 -0.00000000000E+00 -0.32571437190E+02  0.32571437190E+02  0.00000000000E+00 0.  1.
          6    2    1    2  503    0 -0.41681307462E+02  0.82419084563E+02  0.72818114670E+03  0.75422770084E+03  0.17343991873E+03 0.  0.
         24    2    3    3    0    0 -0.49483967003E+02  0.66780884249E+02  0.24705567181E+03  0.27276197268E+03  0.80338280254E+02 0.  0.
         -6    2    1    2    0  501  0.41681307462E+02 -0.82419084563E+02  0.47179807012E+03  0.51089439036E+03  0.17288557558E+03 0.  0.
        -24    2    5    5    0    0 -0.13287404535E+02 -0.97877559253E+02  0.39599374148E+03  0.41587381376E+03  0.79896269939E+02 0.  0.
          4    1    4    4  502    0 -0.45509846250E+02  0.84881423777E+02  0.21760009438E+03  0.23796176853E+03  0.00000000000E+00 0. -1.
         -3    1    4    4    0  502 -0.39741207533E+01 -0.18100539528E+02  0.29455577435E+02  0.34800204152E+02  0.00000000000E+00 0.  1.
          5    1    3    3  503    0  0.78026595417E+01  0.15638200314E+02  0.48112547489E+03  0.48146572816E+03  0.47000000000E+01 0. -1.
         11    1    6    6    0    0 -0.13763409234E+01 -0.56630653419E+02  0.34312151608E+03  0.34776615710E+03  0.00000000000E+00 0. -1.
        -12    1    6    6    0    0 -0.11911063612E+02 -0.41246905834E+02  0.52872225399E+02  0.68107656662E+02  0.00000000000E+00 0.  1.
         -5    1    5    5    0  501  0.54968711996E+02  0.15458474690E+02  0.75804328637E+02  0.95020576605E+02  0.47000000000E+01 0.  1.
<mgrwt>
<rscale>  2 0.19625374E+03</rscale>
<asrwt>0</asrwt>
<pdfrwt beam="1">  1        1 0.18962314E+00 0.19625374E+03</pdfrwt>
<pdfrwt beam="2">  1       -1 0.50109913E-02 0.19625374E+03</pdfrwt>
<totfact> 0.19041558E+03</totfact>
</mgrwt>
</event>
<event>
12    1  0.5759937E-002  0.1702003E+03  0.7546771E-02  0.1177639E+00
         -1   -1    0    0    0  501 -0.00000000000E+00  0.00000000000E+00  0.14433955015E+03  0.14433955015E+03  0.00000000000E+00 0. -1.
          1   -1    0    0  503    0  0.00000000000E+00 -0.00000000000E+00 -0.26931540038E+03  0.26931540038E+03  0.00000000000E+00 0.  1.
          6    2    1    2  503    0 -0.26098393666E+02  0.23423093069E+02 -0.16490855716E+03  0.23259896934E+03  0.16024256885E+03 0.  0.
         24    2    3    3    0    0 -0.45525665618E+02  0.57216833341E+01 -0.33791762575E+02  0.98791411165E+02  0.80700283841E+02 0.  0.
         -6    2    1    2    0  501  0.26098393666E+02 -0.23423093069E+02  0.39932706928E+02  0.18105598118E+03  0.17308055870E+03 0.  0.
        -24    2    5    5    0    0 -0.50647387850E+02 -0.28118184081E+02  0.35646909892E+02  0.10390407313E+03  0.78546572530E+02 0.  0.
          4    1    4    4  502    0 -0.48385496447E+02 -0.30018575515E+02 -0.19374330953E+02  0.60146785801E+02  0.00000000000E+00 0. -1.
         -3    1    4    4    0  502  0.28598308287E+01  0.35740258849E+02 -0.14417431622E+02  0.38644625364E+02  0.00000000000E+00 0.  1.
          5    1    3    3  503    0  0.19427271952E+02  0.17701409735E+02 -0.13111679459E+03  0.13380755818E+03  0.47000000000E+01 0. -1.
         11    1    6    6    0    0 -0.16082651884E+02 -0.49473059918E+02  0.35797867968E+01  0.52144512873E+02  0.00000000000E+00 0. -1.
        -12    1    6    6    0    0 -0.34564735966E+02  0.21354875837E+02  0.32067123095E+02  0.51759560257E+02  0.00000000000E+00 0.  1.
         -5    1    5    5    0  501  0.76745781517E+02  0.46950910122E+01  0.42857970354E+01  0.77151908054E+02  0.47000000000E+01 0.  1.
<mgrwt>
<rscale>  2 0.17020029E+03</rscale>
<asrwt>0</asrwt>
<pdfrwt beam="2">  1        1 0.41433138E-01 0.17020029E+03</pdfrwt>
<pdfrwt beam="1">  1       -1 0.22206085E-01 0.17020029E+03</pdfrwt>
<totfact> 0.16839570E+03</totfact>
</mgrwt>
</event>
<event>
12    1  0.5759937E-002  0.2300077E+03  0.7546771E-02  0.1126634E+00
         -1   -1    0    0    0  501 -0.00000000000E+00  0.00000000000E+00  0.55586817678E+02  0.55586817678E+02  0.00000000000E+00 0. -1.
          1   -1    0    0  503    0  0.00000000000E+00 -0.00000000000E+00 -0.22463201916E+04  0.22463201916E+04  0.00000000000E+00 0.  1.
          6    2    1    2  503    0  0.13069672861E+03  0.77068521129E+02 -0.22192478493E+03  0.31972636259E+03  0.17306976902E+03 0.  0.
         24    2    3    3    0    0  0.93027533587E+02  0.10601425720E+03 -0.10511765124E+03  0.19354070425E+03  0.80716410117E+02 0.  0.
         -6    2    1    2    0  501 -0.13069672861E+03 -0.77068521129E+02 -0.19688085890E+04  0.19821806467E+04  0.17266054614E+03 0.  0.
        -24    2    5    5    0    0 -0.10675979597E+03 -0.12430793065E+03 -0.14992504043E+04  0.15096221663E+04  0.66009049324E+02 0.  0.
          4    1    4    4  502    0  0.38768451574E+02  0.27620473128E+02  0.50255708514E+01  0.47865851456E+02  0.00000000000E+00 0. -1.
         -3    1    4    4    0  502  0.54259082013E+02  0.78393784076E+02 -0.11014322209E+03  0.14567485279E+03  0.00000000000E+00 0.  1.
          5    1    3    3  503    0  0.37669195027E+02 -0.28945736074E+02 -0.11680713369E+03  0.12618565834E+03  0.47000000000E+01 0. -1.
         11    1    6    6    0    0 -0.14786694166E+02 -0.17201290647E+00 -0.49463477301E+02  0.51626654932E+02  0.00000000000E+00 0. -1.
        -12    1    6    6    0    0 -0.91973101806E+02 -0.12413591774E+03 -0.14497869270E+04  0.14579955113E+04  0.00000000000E+00 0.  1.
         -5    1    5    5    0  501 -0.23936932643E+02  0.47239409518E+02 -0.46955818474E+03  0.47255848042E+03  0.47000000000E+01 0.  1.
<mgrwt>
<rscale>  2 0.23000772E+03</rscale>
<asrwt>0</asrwt>
<pdfrwt beam="2">  1        1 0.34558775E+00 0.23000772E+03</pdfrwt>
<pdfrwt beam="1">  1       -1 0.85518175E-02 0.23000772E+03</pdfrwt>
<totfact> 0.18331666E+02</totfact>
</mgrwt>
</event>
<event>
12    1  0.5759937E-002  0.3934670E+03  0.7546771E-02  0.1046066E+00
          2   -1    0    0  503    0  0.00000000000E+00  0.00000000000E+00  0.26800038392E+03  0.26800038392E+03  0.00000000000E+00 0.  1.
         -2   -1    0    0    0  501 -0.00000000000E+00 -0.00000000000E+00 -0.58263623127E+03  0.58263623127E+03  0.00000000000E+00 0. -1.
          6    2    1    2  503    0 -0.35326704108E+03  0.45775009763E+01 -0.11797009865E+03  0.41055608204E+03  0.17268698993E+03 0.  0.
         24    2    3    3    0    0 -0.30698532087E+03 -0.49919480477E+02 -0.87151209348E+02  0.33255728364E+03  0.79164839733E+02 0.  0.
         -6    2    1    2    0  501  0.35326704108E+03 -0.45775009763E+01 -0.19666574870E+03  0.44008053315E+03  0.17370924880E+03 0.  0.
        -24    2    5    5    0    0  0.68915776064E+02 -0.17812077303E+02 -0.36314508030E+02  0.11333077215E+03  0.80364582593E+02 0.  0.
          2    1    4    4  502    0 -0.30017792653E+03 -0.39104514332E+02 -0.69201703326E+02  0.31052347152E+03  0.00000000000E+00 0. -1.
         -1    1    4    4    0  502 -0.68073943409E+01 -0.10814966145E+02 -0.17949506022E+02  0.22033812127E+02  0.00000000000E+00 0.  1.
          5    1    3    3  503    0 -0.46281720210E+02  0.54496981453E+02 -0.30818889305E+02  0.77998798395E+02  0.47000000000E+01 0. -1.
         11    1    6    6    0    0 -0.18199304718E+02  0.99228754535E-01 -0.89336966169E+01  0.20274009810E+02  0.00000000000E+00 0. -1.
        -12    1    6    6    0    0  0.87115080782E+02 -0.17911306058E+02 -0.27380811413E+02  0.93056762344E+02  0.00000000000E+00 0.  1.
         -5    1    5    5    0  501  0.28435126502E+03  0.13234576327E+02 -0.16035124067E+03  0.32674976100E+03  0.47000000000E+01 0.  1.
<mgrwt>
<rscale>  2 0.39346703E+03</rscale>
<asrwt>0</asrwt>
<pdfrwt beam="1">  1        2 0.41230828E-01 0.39346703E+03</pdfrwt>
<pdfrwt beam="2">  1       -2 0.89636343E-01 0.39346703E+03</pdfrwt>
<totfact> 0.13630324E+02</totfact>
</mgrwt>
</event>
<event>
12    1  0.5759937E-002  0.2298220E+03  0.7546771E-02  0.1126765E+00
         -2   -1    0    0    0  501 -0.00000000000E+00  0.00000000000E+00  0.26175023042E+02  0.26175023042E+02  0.00000000000E+00 0.  1.
          2   -1    0    0  503    0  0.00000000000E+00 -0.00000000000E+00 -0.20652394651E+04  0.20652394651E+04  0.00000000000E+00 0. -1.
          6    2    1    2  503    0 -0.78650315836E+02 -0.12914547248E+03 -0.11781200157E+04  0.12003376797E+04  0.17314545522E+03 0.  0.
         24    2    3    3    0    0 -0.16234242501E+02 -0.13215171059E+03 -0.98814487966E+03  0.10002940695E+04  0.80189132537E+02 0.  0.
         -6    2    1    2    0  501  0.78650315836E+02  0.12914547248E+03 -0.86094442636E+03  0.89107680845E+03  0.17299753764E+03 0.  0.
        -24    2    5    5    0    0  0.26100198326E+02  0.15082807949E+03 -0.66382801013E+03  0.68587295408E+03  0.79522023343E+02 0.  0.
          4    1    4    4  502    0 -0.20335449427E+02 -0.80861084170E+02 -0.82559802050E+03  0.82979764816E+03  0.00000000000E+00 0. -1.
         -3    1    4    4    0  502  0.41012069262E+01 -0.51290626424E+02 -0.16254685916E+03  0.17049642131E+03  0.00000000000E+00 0.  1.
          5    1    3    3  503    0 -0.62416073335E+02  0.30062381175E+01 -0.18997513599E+03  0.20004361018E+03  0.47000000000E+01 0. -1.
         13    1    6    6    0    0  0.17975142748E+02  0.47995418191E+02 -0.38831541744E+03  0.39168294493E+03  0.00000000000E+00 0. -1.
        -14    1    6    6    0    0  0.81250555787E+01  0.10283266130E+03 -0.27551259269E+03  0.29419000916E+03  0.00000000000E+00 0.  1.
         -5    1    5    5    0  501  0.52550117510E+02 -0.21682607016E+02 -0.19711641624E+03  0.20520385437E+03  0.47000000000E+01 0.  1.
<mgrwt>
<rscale>  2 0.22982203E+03</rscale>
<asrwt>0</asrwt>
<pdfrwt beam="2">  1        2 0.31772920E+00 0.22982203E+03</pdfrwt>
<pdfrwt beam="1">  1       -2 0.40269259E-02 0.22982203E+03</pdfrwt>
<totfact> 0.18724666E+03</totfact>
</mgrwt>
</event>
<event>
12    1  0.5759937E-002  0.1913444E+03  0.7546771E-02  0.1157254E+00
         -2   -1    0    0    0  501 -0.00000000000E+00  0.00000000000E+00  0.15181829437E+02  0.15181829437E+02  0.00000000000E+00 0. -1.
          2   -1    0    0  503    0  0.00000000000E+00 -0.00000000000E+00 -0.25405429485E+04  0.25405429485E+04  0.00000000000E+00 0.  1.
          6    2    1    2  503    0 -0.82810201627E+02  0.17926477713E+02 -0.15469419170E+04  0.15586608091E+04  0.17092493986E+03 0.  0.
         24    2    3    3    0    0 -0.61659032958E+02  0.72215790367E+02 -0.12224539707E+04  0.12289499984E+04  0.83110957588E+02 0.  0.
         -6    2    1    2    0  501  0.82810201627E+02 -0.17926477713E+02 -0.97841920201E+03  0.99706396881E+03  0.17220201783E+03 0.  0.
        -24    2    5    5    0    0  0.24093852320E+02 -0.62300818713E+02 -0.32819364834E+03  0.34266955222E+03  0.72453057074E+02 0.  0.
          2    1    4    4  502    0 -0.35512113431E+02  0.85716857880E+02 -0.77594775956E+03  0.78147515347E+03  0.00000000000E+00 0. -1.
         -1    1    4    4    0  502 -0.26146919527E+02 -0.13501067513E+02 -0.44650621114E+03  0.44747484489E+03  0.00000000000E+00 0.  1.
          5    1    3    3  503    0 -0.21151168669E+02 -0.54289312654E+02 -0.32448794631E+03  0.32971081072E+03  0.47000000000E+01 0. -1.
         11    1    6    6    0    0  0.39911390464E+02 -0.88579642484E+01 -0.10649961618E+03  0.11407695151E+03  0.00000000000E+00 0. -1.
        -12    1    6    6    0    0 -0.15817538144E+02 -0.53442854465E+02 -0.22169403215E+03  0.22859260071E+03  0.00000000000E+00 0.  1.
         -5    1    5    5    0  501  0.58716349307E+02  0.44374341001E+02 -0.65022555367E+03  0.65439441659E+03  0.47000000000E+01 0.  1.
<mgrwt>
<rscale>  2 0.19134437E+03</rscale>
<asrwt>0</asrwt>
<pdfrwt beam="2">  1        2 0.39085286E+00 0.19134437E+03</pdfrwt>
<pdfrwt beam="1">  1       -2 0.23356655E-02 0.19134437E+03</pdfrwt>
<totfact> 0.23584550E+03</totfact>
</mgrwt>
</event>
<event>
12    1  0.5759937E-002  0.2138100E+03  0.7546771E-02  0.1138584E+00
         -1   -1    0    0    0  501 -0.00000000000E+00  0.00000000000E+00  0.98662274264E+03  0.98662274264E+03  0.00000000000E+00 0. -1.
          1   -1    0    0  503    0  0.00000000000E+00 -0.00000000000E+00 -0.46782538408E+02  0.46782538408E+02  0.00000000000E+00 0.  1.
          6    2    1    2  503    0  0.54566663658E+02  0.10681750174E+03  0.42702362872E+03  0.47903159758E+03  0.18092703649E+03 0.  0.
         24    2    3    3    0    0 -0.46786266653E+02  0.45335809950E+02  0.22304670177E+03  0.24306318521E+03  0.71313325703E+02 0.  0.
         -6    2    1    2    0  501 -0.54566663658E+02 -0.10681750174E+03  0.51281657551E+03  0.55437368347E+03  0.17309489115E+03 0.  0.
        -24    2    5    5    0    0  0.75640305680E+01 -0.66782747060E+02  0.43239268845E+03  0.44504346644E+03  0.81136305842E+02 0.  0.
          4    1    4    4  502    0 -0.33396583280E+02 -0.57242233663E+00  0.32486790273E+02  0.46594538139E+02  0.00000000000E+00 0. -1.
         -3    1    4    4    0  502 -0.13389683374E+02  0.45908232286E+02  0.19055991149E+03  0.19646864707E+03  0.00000000000E+00 0.  1.
          5    1    3    3  503    0  0.10135293031E+03  0.61481691789E+02  0.20397692696E+03  0.23596841237E+03  0.47000000000E+01 0. -1.
         13    1    6    6    0    0  0.21824565349E+02  0.97836835214E+01  0.15843916840E+03  0.16023421045E+03  0.00000000000E+00 0. -1.
        -14    1    6    6    0    0 -0.14260534781E+02 -0.76566430581E+02  0.27395352005E+03  0.28480925598E+03  0.00000000000E+00 0.  1.
         -5    1    5    5    0  501 -0.62130694226E+02 -0.40034754679E+02  0.80423887060E+02  0.10933021704E+03  0.47000000000E+01 0.  1.
<mgrwt>
<rscale>  2 0.21380996E+03</rscale>
<asrwt>0</asrwt>
<pdfrwt beam="2">  1        1 0.71973144E-02 0.21380996E+03</pdfrwt>
<pdfrwt beam="1">  1       -1 0.15178810E+00 0.21380996E+03</pdfrwt>
<totfact> 0.36884872E+02</totfact>
</mgrwt>
</event>
<event>
12    1  0.5759937E-002  0.1824331E+03  0.7546771E-02  0.1165469E+00
          2   -1    0    0  503    0  0.00000000000E+00  0.00000000000E+00  0.17916328673E+03  0.17916328673E+03  0.00000000000E+00 0. -1.
         -2   -1    0    0    0  501 -0.00000000000E+00 -0.00000000000E+00 -0.19426806112E+03  0.19426806112E+03  0.00000000000E+00 0.  1.
          6    2    1    2  503    0  0.56289032389E+02  0.15587142121E+02 -0.46508703580E+02  0.18655835157E+03  0.17096650218E+03 0.  0.
         24    2    3    3    0    0  0.33466554809E+01 -0.30531327763E+02 -0.72688523221E+02  0.11147651959E+03  0.78740275177E+02 0.  0.
         -6    2    1    2    0  501 -0.56289032389E+02 -0.15587142121E+02  0.31403929188E+02  0.18687299627E+03  0.17471089205E+03 0.  0.
        -24    2    5    5    0    0 -0.82355493996E+02 -0.59507582909E+02  0.36299664886E+02  0.13535092559E+03  0.81722870556E+02 0.  0.
          2    1    4    4  502    0 -0.25144315468E+02  0.17107057818E+01 -0.62313060078E+02  0.67216668847E+02  0.00000000000E+00 0. -1.
         -1    1    4    4    0  502  0.28490970949E+02 -0.32242033545E+02 -0.10375463143E+02  0.44259850747E+02  0.00000000000E+00 0.  1.
          5    1    3    3  503    0  0.52942376908E+02  0.46118469884E+02  0.26179819641E+02  0.75081831980E+02  0.47000000000E+01 0. -1.
         11    1    6    6    0    0  0.31498427145E+01 -0.42888585943E+02  0.78308231561E+01  0.43711258328E+02  0.00000000000E+00 0. -1.
        -12    1    6    6    0    0 -0.85505336711E+02 -0.16618996965E+02  0.28468841730E+02  0.91639667260E+02  0.00000000000E+00 0.  1.
         -5    1    5    5    0  501  0.26066461608E+02  0.43920440788E+02 -0.48957356987E+01  0.51522070686E+02  0.47000000000E+01 0.  1.
<mgrwt>
<rscale>  2 0.18243312E+03</rscale>
<asrwt>0</asrwt>
<pdfrwt beam="1">  1        2 0.27563583E-01 0.18243312E+03</pdfrwt>
<pdfrwt beam="2">  1       -2 0.29887394E-01 0.18243312E+03</pdfrwt>
<totfact> 0.19543070E+03</totfact>
</mgrwt>
</event>
<event>
12    1  0.5759937E-002  0.1855981E+03  0.7546771E-02  0.1162493E+00
         -2   -1    0    0    0  501 -0.00000000000E+00  0.00000000000E+00  0.35176819884E+02  0.35176819884E+02  0.00000000000E+00 0. -1.
          2   -1    0    0  503    0  0.00000000000E+00 -0.00000000000E+00 -0.10540007465E+04  0.10540007465E+04  0.00000000000E+00 0.  1.
          6    2    1    2  503    0  0.43840909677E+02 -0.53693794262E+02 -0.36054626591E+03  0.40481772855E+03  0.17052487965E+03 0.  0.
         24    2    3    3    0    0  0.73883700787E+02 -0.55084421319E+02 -0.35275135006E+03  0.37339554125E+03  0.80607819370E+02 0.  0.
         -6    2    1    2    0  501 -0.43840909677E+02  0.53693794262E+02 -0.65827766066E+03  0.68435983779E+03  0.17382134552E+03 0.  0.
        -24    2    5    5    0    0 -0.34542588462E+02 -0.26753993553E+02 -0.21690427117E+03  0.23559390293E+03  0.80920069565E+02 0.  0.
          2    1    4    4  502    0  0.33556144378E+02 -0.43182545346E+02 -0.76928070358E+02  0.94385777832E+02  0.00000000000E+00 0. -1.
         -1    1    4    4    0  502  0.40327556409E+02 -0.11901875973E+02 -0.27582327970E+03  0.27900976342E+03  0.00000000000E+00 0.  1.
          5    1    3    3  503    0 -0.30042791110E+02  0.13906270567E+01 -0.77949158517E+01  0.31422187295E+02  0.47000000000E+01 0. -1.
         13    1    6    6    0    0 -0.15168399726E+02  0.17126084030E+02 -0.15791679095E+03  0.15956533448E+03  0.00000000000E+00 0. -1.
        -14    1    6    6    0    0 -0.19374188736E+02 -0.43880077583E+02 -0.58987480220E+02  0.76028568450E+02  0.00000000000E+00 0.  1.
         -5    1    5    5    0  501 -0.92983212154E+01  0.80447787815E+02 -0.44137338949E+03  0.44876593486E+03  0.47000000000E+01 0.  1.
<mgrwt>
<rscale>  2 0.18559814E+03</rscale>
<asrwt>0</asrwt>
<pdfrwt beam="2">  1        2 0.16215397E+00 0.18559814E+03</pdfrwt>
<pdfrwt beam="1">  1       -2 0.54118180E-02 0.18559814E+03</pdfrwt>
<totfact> 0.41769917E+03</totfact>
</mgrwt>
</event>
<event>
12    1  0.5759937E-002  0.2912890E+03  0.7546771E-02  0.1089678E+00
         -4   -1    0    0    0  501 -0.00000000000E+00  0.00000000000E+00  0.20715860814E+04  0.20715860814E+04  0.00000000000E+00 0.  1.
          4   -1    0    0  503    0  0.00000000000E+00 -0.00000000000E+00 -0.44913825684E+02  0.44913825684E+02  0.00000000000E+00 0. -1.
          6    2    1    2  503    0 -0.18783735805E+03  0.13834159052E+03  0.70131909872E+03  0.75965008282E+03  0.17549501802E+03 0.  0.
         24    2    3    3    0    0 -0.16903039354E+03  0.42739138835E+02  0.51109107199E+03  0.54586906673E+03  0.79756167317E+02 0.  0.
         -6    2    1    2    0  501  0.18783735805E+03 -0.13834159052E+03  0.13253531570E+04  0.13568498243E+04  0.17337585214E+03 0.  0.
        -24    2    5    5    0    0  0.10023575709E+03 -0.66603472369E+01  0.48256300441E+03  0.49933520537E+03  0.79856288874E+02 0.  0.
          2    1    4    4  502    0 -0.13251264421E+02 -0.15172575220E+02  0.10796619811E+03  0.10982942676E+03  0.00000000000E+00 0. -1.
         -1    1    4    4    0  502 -0.15577912912E+03  0.57911714054E+02  0.40312487388E+03  0.43603963998E+03  0.00000000000E+00 0.  1.
          5    1    3    3  503    0 -0.18806964509E+02  0.95602451687E+02  0.19022802673E+03  0.21378101608E+03  0.47000000000E+01 0. -1.
         11    1    6    6    0    0  0.37329159140E+02 -0.97190829403E+01  0.55116465280E+02  0.67273705415E+02  0.00000000000E+00 0. -1.
        -12    1    6    6    0    0  0.62906597953E+02  0.30587357034E+01  0.42744653913E+03  0.43206149996E+03  0.00000000000E+00 0.  1.
         -5    1    5    5    0  501  0.87601600952E+02 -0.13168124329E+03  0.84279015260E+03  0.85751461891E+03  0.47000000000E+01 0.  1.
<mgrwt>
<rscale>  2 0.29128904E+03</rscale>
<asrwt>0</asrwt>
<pdfrwt beam="2">  1        4 0.69098209E-02 0.29128904E+03</pdfrwt>
<pdfrwt beam="1">  1       -4 0.31870548E+00 0.29128904E+03</pdfrwt>
<totfact> 0.72482523E+00</totfact>
</mgrwt>
</event>
<event>
12    1  0.5759937E-002  0.2221588E+03  0.7546771E-02  0.1132284E+00
          1   -1    0    0  503    0  0.00000000000E+00  0.00000000000E+00  0.13539962663E+03  0.13539962663E+03  0.00000000000E+00 0. -1.
         -1   -1    0    0    0  501 -0.00000000000E+00 -0.00000000000E+00 -0.44845420551E+03  0.44845420551E+03  0.00000000000E+00 0.  1.
          6    2    1    2  503    0 -0.43831855124E+02 -0.13260240432E+03 -0.28310765250E+03  0.36016959244E+03  0.17340000939E+03 0.  0.
         24    2    3    3    0    0 -0.76434299479E+02 -0.13199517799E+03 -0.16383010964E+03  0.23642586397E+03  0.76104895927E+02 0.  0.
         -6    2    1    2    0  501  0.43831855124E+02  0.13260240432E+03 -0.29946926378E+02  0.22368423970E+03  0.17214293926E+03 0.  0.
        -24    2    5    5    0    0  0.19967481336E+02  0.49877975731E+02 -0.77646301684E+02  0.12514409648E+03  0.82131503976E+02 0.  0.
          4    1    4    4  502    0 -0.41253092692E+02 -0.86311426841E+01 -0.42504861556E+02  0.59857978053E+02  0.00000000000E+00 0. -1.
         -3    1    4    4    0  502 -0.35181206787E+02 -0.12336403530E+03 -0.12132524808E+03  0.17656788592E+03  0.00000000000E+00 0.  1.
          5    1    3    3  503    0  0.32602444355E+02 -0.60722632983E+00 -0.11927754286E+03  0.12374372846E+03  0.47000000000E+01 0. -1.
         11    1    6    6    0    0  0.89672304526E+01  0.62549296484E+02 -0.21819399157E+02  0.66849920660E+02  0.00000000000E+00 0. -1.
        -12    1    6    6    0    0  0.11000250883E+02 -0.12671320753E+02 -0.55826902527E+02  0.58294175823E+02  0.00000000000E+00 0.  1.
         -5    1    5    5    0  501  0.23864373788E+02  0.82724428585E+02  0.47699375306E+02  0.98540143219E+02  0.47000000000E+01 0.  1.
<mgrwt>
<rscale>  2 0.22215879E+03</rscale>
<asrwt>0</asrwt>
<pdfrwt beam="1">  1        1 0.20830712E-01 0.22215879E+03</pdfrwt>
<pdfrwt beam="2">  1       -1 0.68992955E-01 0.22215879E+03</pdfrwt>
<totfact> 0.53608115E+02</totfact>
</mgrwt>
</event>
<event>
12    1  0.5759937E-002  0.1800913E+03  0.7546771E-02  0.1167715E+00
         -2   -1    0    0    0  501 -0.00000000000E+00  0.00000000000E+00  0.21442197929E+02  0.21442197929E+02  0.00000000000E+00 0.  1.
          2   -1    0    0  503    0  0.00000000000E+00 -0.00000000000E+00 -0.15134349628E+04  0.15134349628E+04  0.00000000000E+00 0. -1.
          6    2    1    2  503    0  0.17735850539E+02  0.49717365612E+02 -0.76365511010E+03  0.78456683681E+03  0.17201632888E+03 0.  0.
         24    2    3    3    0    0  0.48023227863E+02  0.86734412158E+02 -0.62527243747E+03  0.63807642400E+03  0.79666888605E+02 0.  0.
         -6    2    1    2    0  501 -0.17735850539E+02 -0.49717365612E+02 -0.72833765482E+03  0.75031032397E+03  0.17234693496E+03 0.  0.
        -24    2    5    5    0    0  0.24066685521E+02 -0.85661763981E+02 -0.57416871950E+03  0.58651288073E+03  0.80065583407E+02 0.  0.
          4    1    4    4  502    0 -0.12451452972E+02  0.29702087114E+02 -0.32237372709E+03  0.32397850635E+03  0.00000000000E+00 0. -1.
         -3    1    4    4    0  502  0.60474680835E+02  0.57032325044E+02 -0.30289871038E+03  0.31409791765E+03  0.00000000000E+00 0.  1.
          5    1    3    3  503    0 -0.30287377324E+02 -0.37017046546E+02 -0.13838267263E+03  0.14649041281E+03  0.47000000000E+01 0. -1.
         11    1    6    6    0    0 -0.40137128808E+01 -0.72146405767E+02 -0.23357460397E+03  0.24449603141E+03  0.00000000000E+00 0. -1.
        -12    1    6    6    0    0  0.28080398402E+02 -0.13515358213E+02 -0.34059411553E+03  0.34201684932E+03  0.00000000000E+00 0.  1.
         -5    1    5    5    0  501 -0.41802536060E+02  0.35944398369E+02 -0.15416893532E+03  0.16379744324E+03  0.47000000000E+01 0.  1.
<mgrwt>
<rscale>  2 0.18009128E+03</rscale>
<asrwt>0</asrwt>
<pdfrwt beam="2">  1        2 0.23283620E+00 0.18009128E+03</pdfrwt>
<pdfrwt beam="1">  1       -2 0.32987990E-02 0.18009128E+03</pdfrwt>
<totfact> 0.48952913E+03</totfact>
</mgrwt>
</event>
<event>
12    1  0.5759937E-002  0.2232272E+03  0.7546771E-02  0.1131500E+00
         -2   -1    0    0    0  501 -0.00000000000E+00  0.00000000000E+00  0.72728840708E+02  0.72728840708E+02  0.00000000000E+00 0.  1.
          2   -1    0    0  503    0  0.00000000000E+00 -0.00000000000E+00 -0.80482605538E+03  0.80482605538E+03  0.00000000000E+00 0. -1.
          6    2    1    2  503    0  0.29788263905E+02  0.13786175184E+03 -0.19710414413E+03  0.29792777035E+03  0.17325619592E+03 0.  0.
         24    2    3    3    0    0  0.22214084897E+02  0.91375985446E+02 -0.21396503800E+03  0.24768163212E+03  0.81988518230E+02 0.  0.
         -6    2    1    2    0  501 -0.29788263905E+02 -0.13786175184E+03 -0.53499307054E+03  0.57962712574E+03  0.17279125001E+03 0.  0.
        -24    2    5    5    0    0  0.10872568242E+01 -0.12154440894E+03 -0.22483573909E+03  0.26747457695E+03  0.78849947828E+02 0.  0.
          4    1    4    4  502    0  0.22745498460E+01  0.70257583126E+02 -0.20585535295E+03  0.21752638438E+03  0.00000000000E+00 0. -1.
         -3    1    4    4    0  502  0.19939535051E+02  0.21118402320E+02 -0.81096850429E+01  0.30155247737E+02  0.00000000000E+00 0.  1.
          5    1    3    3  503    0  0.75741790084E+01  0.46485766397E+02  0.16860893863E+02  0.50246138230E+02  0.47000000000E+01 0. -1.
         13    1    6    6    0    0 -0.59937168941E+01 -0.79947783575E+02 -0.20640757784E+03  0.22143093941E+03  0.00000000000E+00 0. -1.
        -14    1    6    6    0    0  0.70809737183E+01 -0.41596625368E+02 -0.18428161249E+02  0.46043637539E+02  0.00000000000E+00 0.  1.
         -5    1    5    5    0  501 -0.30875520729E+02 -0.16317342900E+02 -0.31015733145E+03  0.31215254878E+03  0.47000000000E+01 0.  1.
<mgrwt>
<rscale>  2 0.22322724E+03</rscale>
<asrwt>0</asrwt>
<pdfrwt beam="2">  1        2 0.12381939E+00 0.22322724E+03</pdfrwt>
<pdfrwt beam="1">  1       -2 0.11189052E-01 0.22322724E+03</pdfrwt>
<totfact> 0.19436058E+03</totfact>
</mgrwt>
</event>
<event>
12    1  0.5759937E-002  0.1767420E+03  0.7546771E-02  0.1170994E+00
         -3   -1    0    0    0  501 -0.00000000000E+00  0.00000000000E+00  0.13834467162E+03  0.13834467162E+03  0.00000000000E+00 0. -1.
          3   -1    0    0  503    0  0.00000000000E+00 -0.00000000000E+00 -0.22622295788E+03  0.22622295788E+03  0.00000000000E+00 0.  1.
          6    2    1    2  503    0  0.17959378323E+02 -0.32578979943E+02 -0.51747799625E+02  0.18379191428E+03  0.17238823564E+03 0.  0.
         24    2    3    3    0    0  0.57049770146E+02 -0.63699747292E+02 -0.61154255894E+02  0.13273182896E+03  0.81028151448E+02 0.  0.
         -6    2    1    2    0  501 -0.17959378323E+02  0.32578979943E+02 -0.36130486630E+02  0.18077571522E+03  0.17317770626E+03 0.  0.
        -24    2    5    5    0    0 -0.56749031935E+02 -0.20520164361E+02 -0.52400286249E+02  0.11287171878E+03  0.79703858943E+02 0.  0.
          4    1    4    4  502    0  0.24953782693E+02  0.81209605736E+01 -0.45497113775E+02  0.52522648764E+02  0.00000000000E+00 0. -1.
         -3    1    4    4    0  502  0.32095987453E+02 -0.71820707865E+02 -0.15657142119E+02  0.80209180199E+02  0.00000000000E+00 0.  1.
          5    1    3    3  503    0 -0.39090391823E+02  0.31120767349E+02  0.94064562686E+01  0.51060085319E+02  0.47000000000E+01 0. -1.
         13    1    6    6    0    0 -0.35745926234E+02  0.27497151596E+02 -0.11914592814E+02  0.46645708378E+02  0.00000000000E+00 0. -1.
        -14    1    6    6    0    0 -0.21003105701E+02 -0.48017315957E+02 -0.40485693435E+02  0.66226010402E+02  0.00000000000E+00 0.  1.
         -5    1    5    5    0  501  0.38789653612E+02  0.53099144304E+02  0.16269799619E+02  0.67903996442E+02  0.47000000000E+01 0.  1.
<mgrwt>
<rscale>  2 0.17674202E+03</rscale>
<asrwt>0</asrwt>
<pdfrwt beam="2">  1        3 0.34803532E-01 0.17674202E+03</pdfrwt>
<pdfrwt beam="1">  1       -3 0.21283796E-01 0.17674202E+03</pdfrwt>
<totfact> 0.39220832E+02</totfact>
</mgrwt>
</event>
<event>
12    1  0.5759937E-002  0.1820437E+03  0.7546771E-02  0.1165840E+00
         -1   -1    0    0    0  501 -0.00000000000E+00  0.00000000000E+00  0.70008997835E+03  0.70008997835E+03  0.00000000000E+00 0.  1.
          1   -1    0    0  503    0  0.00000000000E+00 -0.00000000000E+00 -0.48214202285E+02  0.48214202285E+02  0.00000000000E+00 0. -1.
          6    2    1    2  503    0 -0.18418984938E+02 -0.57818425881E+02  0.37810596398E+03  0.42007679148E+03  0.17267935999E+03 0.  0.
         24    2    3    3    0    0  0.51440689745E+02 -0.54205634938E+02  0.18642046559E+03  0.21597180209E+03  0.79415577085E+02 0.  0.
         -6    2    1    2    0  501  0.18418984938E+02  0.57818425881E+02  0.27376981209E+03  0.32822738915E+03  0.17059038544E+03 0.  0.
        -24    2    5    5    0    0  0.67056109352E+02  0.65617110281E+02  0.23477541151E+03  0.26522705085E+03  0.80148410408E+02 0.  0.
          4    1    4    4  502    0  0.32562999584E+02 -0.12086730224E+02  0.15798857642E+03  0.16176164029E+03  0.00000000000E+00 0. -1.
         -3    1    4    4    0  502  0.18877690160E+02 -0.42118904714E+02  0.28431889171E+02  0.54210161796E+02  0.00000000000E+00 0.  1.
          5    1    3    3  503    0 -0.69859674683E+02 -0.36127909425E+01  0.19168549838E+03  0.20410498940E+03  0.47000000000E+01 0. -1.
         11    1    6    6    0    0  0.11130056136E+02  0.64402356712E+02  0.10192138779E+03  0.12107646753E+03  0.00000000000E+00 0. -1.
        -12    1    6    6    0    0  0.55926053216E+02  0.12147535693E+01  0.13285402372E+03  0.14415058333E+03  0.00000000000E+00 0.  1.
         -5    1    5    5    0  501 -0.48637124414E+02 -0.77986844005E+01  0.38994400576E+02  0.63000338300E+02  0.47000000000E+01 0.  1.
<mgrwt>
<rscale>  2 0.18204370E+03</rscale>
<asrwt>0</asrwt>
<pdfrwt beam="2">  1        1 0.74175701E-02 0.18204370E+03</pdfrwt>
<pdfrwt beam="1">  1       -1 0.10770614E+00 0.18204370E+03</pdfrwt>
<totfact> 0.81625043E+02</totfact>
</mgrwt>
</event>
<event>
12    1  0.5759937E-002  0.1928252E+03  0.7546771E-02  0.1155938E+00
         -2   -1    0    0    0  501 -0.00000000000E+00  0.00000000000E+00  0.88726630301E+02  0.88726630301E+02  0.00000000000E+00 0.  1.
          2   -1    0    0  503    0  0.00000000000E+00 -0.00000000000E+00 -0.58299582663E+03  0.58299582663E+03  0.00000000000E+00 0. -1.
          6    2    1    2  503    0 -0.13233475814E+02 -0.86685960632E+02 -0.42406527439E+03  0.46532906222E+03  0.17032380499E+03 0.  0.
         24    2    3    3    0    0  0.36006790017E+02 -0.10502104728E+03 -0.32613988159E+03  0.35409843812E+03  0.81808142736E+02 0.  0.
         -6    2    1    2    0  501  0.13233475814E+02  0.86685960632E+02 -0.70203921933E+02  0.20639339471E+03  0.17314751535E+03 0.  0.
        -24    2    5    5    0    0  0.49446937999E+02  0.21190188189E+02  0.94270143470E+01  0.97012011174E+02  0.80177540244E+02 0.  0.
          2    1    4    4  502    0 -0.72822353419E+01 -0.86167626843E+02 -0.16642510094E+03  0.18755054010E+03  0.00000000000E+00 0. -1.
         -1    1    4    4    0  502  0.43289025359E+02 -0.18853420434E+02 -0.15971478065E+03  0.16654789803E+03  0.00000000000E+00 0.  1.
          5    1    3    3  503    0 -0.49240265831E+02  0.18335086645E+02 -0.97925392801E+02  0.11123062410E+03  0.47000000000E+01 0. -1.
         11    1    6    6    0    0  0.37107811966E+01 -0.19925173541E+02 -0.20316090670E+02  0.28697142329E+02  0.00000000000E+00 0. -1.
        -12    1    6    6    0    0  0.45736156803E+02  0.41115361731E+02  0.29743105017E+02  0.68314868845E+02  0.00000000000E+00 0.  1.
         -5    1    5    5    0  501 -0.36213462185E+02  0.65495772442E+02 -0.79630936280E+02  0.10938138354E+03  0.47000000000E+01 0.  1.
<mgrwt>
<rscale>  2 0.19282518E+03</rscale>
<asrwt>0</asrwt>
<pdfrwt beam="2">  1        2 0.89691668E-01 0.19282518E+03</pdfrwt>
<pdfrwt beam="1">  1       -2 0.13650251E-01 0.19282518E+03</pdfrwt>
<totfact> 0.20715338E+03</totfact>
</mgrwt>
</event>
<event>
12    1  0.5759937E-002  0.4176269E+03  0.7546771E-02  0.1037841E+00
          1   -1    0    0  503    0  0.00000000000E+00  0.00000000000E+00  0.66900248429E+03  0.66900248429E+03  0.00000000000E+00 0.  1.
         -1   -1    0    0    0  501 -0.00000000000E+00 -0.00000000000E+00 -0.42796832835E+03  0.42796832835E+03  0.00000000000E+00 0. -1.
          6    2    1    2  503    0 -0.37979120319E+03 -0.32230977735E+01  0.46342640221E+03  0.62389871639E+03  0.17387878441E+03 0.  0.
         24    2    3    3    0    0 -0.24356356440E+03 -0.40167003879E+02  0.37923971414E+03  0.45948366168E+03  0.79786442856E+02 0.  0.
         -6    2    1    2    0  501  0.37979120319E+03  0.32230977735E+01 -0.22239224627E+03  0.47307209625E+03  0.17345648063E+03 0.  0.
        -24    2    5    5    0    0  0.33090986821E+03  0.53664736550E+02 -0.20298858139E+03  0.40004925022E+03  0.80335506455E+02 0.  0.
          4    1    4    4  502    0 -0.11025261858E+03 -0.58563023204E+02  0.18029678856E+03  0.21929933780E+03  0.00000000000E+00 0. -1.
         -3    1    4    4    0  502 -0.13331094582E+03  0.18396019326E+02  0.19894292558E+03  0.24018432388E+03  0.00000000000E+00 0.  1.
          5    1    3    3  503    0 -0.13622763879E+03  0.36943906105E+02  0.84186688073E+02  0.16441505471E+03  0.47000000000E+01 0. -1.
         13    1    6    6    0    0  0.14718700659E+03 -0.23130040059E+01 -0.12364822265E+03  0.19224528047E+03  0.00000000000E+00 0. -1.
        -14    1    6    6    0    0  0.18372286163E+03  0.55977740556E+02 -0.79340358739E+02  0.20780396976E+03  0.00000000000E+00 0.  1.
         -5    1    5    5    0  501  0.48881334972E+02 -0.50441638777E+02 -0.19403664881E+02  0.73022846027E+02  0.47000000000E+01 0.  1.
<mgrwt>
<rscale>  2 0.41762689E+03</rscale>
<asrwt>0</asrwt>
<pdfrwt beam="1">  1        1 0.10292346E+00 0.41762689E+03</pdfrwt>
<pdfrwt beam="2">  1       -1 0.65841281E-01 0.41762689E+03</pdfrwt>
<totfact> 0.72111119E+01</totfact>
</mgrwt>
</event>
<event>
12    1  0.5759937E-002  0.1937173E+03  0.7546771E-02  0.1155151E+00
         -2   -1    0    0    0  501 -0.00000000000E+00  0.00000000000E+00  0.15425081520E+02  0.15425081520E+02  0.00000000000E+00 0. -1.
          2   -1    0    0  503    0  0.00000000000E+00 -0.00000000000E+00 -0.30786718512E+04  0.30786718512E+04  0.00000000000E+00 0.  1.
          6    2    1    2  503    0  0.62539187833E+02 -0.60114341788E+02 -0.22410142961E+04  0.22493825203E+04  0.17335444457E+03 0.  0.
         24    2    3    3    0    0  0.57965475316E+02 -0.87792206006E+02 -0.10814177610E+04  0.10894371780E+04  0.79633681682E+02 0.  0.
         -6    2    1    2    0  501 -0.62539187833E+02  0.60114341788E+02 -0.82223247364E+03  0.84471441242E+03  0.17306447858E+03 0.  0.
        -24    2    5    5    0    0  0.93275543306E+00  0.86751762467E+02 -0.40370845422E+03  0.42054147058E+03  0.79673547329E+02 0.  0.
          2    1    4    4  502    0  0.29095859506E+02 -0.96233597443E+02 -0.76134189234E+03  0.76795113865E+03  0.00000000000E+00 0. -1.
         -1    1    4    4    0  502  0.28869615810E+02  0.84413914370E+01 -0.32007586862E+03  0.32148603932E+03  0.00000000000E+00 0.  1.
          5    1    3    3  503    0  0.45737125170E+01  0.27677864219E+02 -0.11595965351E+04  0.11599453424E+04  0.47000000000E+01 0. -1.
         11    1    6    6    0    0 -0.33899970681E+02  0.28878960678E+02 -0.10089804495E+03  0.11028879297E+03  0.00000000000E+00 0. -1.
        -12    1    6    6    0    0  0.34832726114E+02  0.57872801789E+02 -0.30281040927E+03  0.31025267760E+03  0.00000000000E+00 0.  1.
         -5    1    5    5    0  501 -0.63471943266E+02 -0.26637420679E+02 -0.41852401942E+03  0.42417294185E+03  0.47000000000E+01 0.  1.
<mgrwt>
<rscale>  2 0.19371729E+03</rscale>
<asrwt>0</asrwt>
<pdfrwt beam="2">  1        2 0.47364145E+00 0.19371729E+03</pdfrwt>
<pdfrwt beam="1">  1       -2 0.23730913E-02 0.19371729E+03</pdfrwt>
<totfact> 0.11402074E+03</totfact>
</mgrwt>
</event>
<event>
12    1  0.5759937E-002  0.2293533E+03  0.7546771E-02  0.1127096E+00
          1   -1    0    0  503    0  0.00000000000E+00  0.00000000000E+00  0.47518996686E+02  0.47518996686E+02  0.00000000000E+00 0.  1.
         -1   -1    0    0    0  501 -0.00000000000E+00 -0.00000000000E+00 -0.17909015894E+04  0.17909015894E+04  0.00000000000E+00 0. -1.
          6    2    1    2  503    0 -0.98472864705E+02  0.11662822933E+03 -0.14374452086E+04  0.14554755716E+04  0.16988632285E+03 0.  0.
         24    2    3    3    0    0 -0.11913914489E+03  0.83456147810E+02 -0.80234081320E+03  0.81915241058E+03  0.78107789502E+02 0.  0.
         -6    2    1    2    0  501  0.98472864705E+02 -0.11662822933E+03 -0.30593738411E+03  0.38294501453E+03  0.17248232431E+03 0.  0.
        -24    2    5    5    0    0  0.47193909664E+01 -0.35437293106E+02 -0.20722331261E+03  0.22436304874E+03  0.78225328103E+02 0.  0.
          4    1    4    4  502    0 -0.59142683217E+01 -0.12767126356E+02 -0.11988677489E+03  0.12070963872E+03  0.00000000000E+00 0. -1.
         -3    1    4    4    0  502 -0.11322487657E+03  0.96223274166E+02 -0.68245403831E+03  0.69844277186E+03  0.00000000000E+00 0.  1.
          5    1    3    3  503    0  0.20666280188E+02  0.33172081521E+02 -0.63510439542E+03  0.63632316099E+03  0.47000000000E+01 0. -1.
         11    1    6    6    0    0  0.39007190475E+02 -0.21412484870E+02 -0.14766242172E+03  0.15422141941E+03  0.00000000000E+00 0. -1.
        -12    1    6    6    0    0 -0.34287799508E+02 -0.14024808237E+02 -0.59560890890E+02  0.70141629328E+02  0.00000000000E+00 0.  1.
         -5    1    5    5    0  501  0.93753473739E+02 -0.81190936225E+02 -0.98714071503E+02  0.15858196580E+03  0.47000000000E+01 0.  1.
<mgrwt>
<rscale>  2 0.22935328E+03</rscale>
<asrwt>0</asrwt>
<pdfrwt beam="1">  1        1 0.73106150E-02 0.22935328E+03</pdfrwt>
<pdfrwt beam="2">  1       -1 0.27552332E+00 0.22935328E+03</pdfrwt>
<totfact> 0.54494484E+01</totfact>
</mgrwt>
</event>
<event>
12    1  0.5759937E-002  0.1906469E+03  0.7546771E-02  0.1157879E+00
         -1   -1    0    0    0  501 -0.00000000000E+00  0.00000000000E+00  0.35834006210E+02  0.35834006210E+02  0.00000000000E+00 0. -1.
          1   -1    0    0  503    0  0.00000000000E+00 -0.00000000000E+00 -0.18672780591E+04  0.18672780591E+04  0.00000000000E+00 0.  1.
          6    2    1    2  503    0  0.57343418883E+02  0.54269944796E+02 -0.15586722862E+04  0.15702799042E+04  0.17345370292E+03 0.  0.
         24    2    3    3    0    0  0.51051464099E+02  0.61437720284E+02 -0.15549121292E+04  0.15590018511E+04  0.79713215438E+02 0.  0.
         -6    2    1    2    0  501 -0.57343418883E+02 -0.54269944796E+02 -0.27277176673E+03  0.33283216119E+03  0.17360678615E+03 0.  0.
        -24    2    5    5    0    0 -0.10058929651E+03 -0.39780510111E+02 -0.15021746336E+03  0.20198187680E+03  0.80812726111E+02 0.  0.
          4    1    4    4  502    0  0.36386753619E+02  0.31479723537E+02 -0.13856231566E+04  0.13864582579E+04  0.00000000000E+00 0. -1.
         -3    1    4    4    0  502  0.14664710480E+02  0.29957996747E+02 -0.16928897257E+03  0.17254359315E+03  0.00000000000E+00 0.  1.
          5    1    3    3  503    0  0.62919547837E+01 -0.71677754874E+01 -0.37601570009E+01  0.11278053073E+02  0.47000000000E+01 0. -1.
         13    1    6    6    0    0 -0.43379294229E+01 -0.12197517068E+02  0.76519804564E+01  0.15038279796E+02  0.00000000000E+00 0. -1.
        -14    1    6    6    0    0 -0.96251367083E+02 -0.27582993042E+02 -0.15786944381E+03  0.18694359700E+03  0.00000000000E+00 0.  1.
         -5    1    5    5    0  501  0.43245877623E+02 -0.14489434686E+02 -0.12255430338E+03  0.13085028439E+03  0.47000000000E+01 0.  1.
<mgrwt>
<rscale>  2 0.19064689E+03</rscale>
<asrwt>0</asrwt>
<pdfrwt beam="2">  1        1 0.28727363E+00 0.19064689E+03</pdfrwt>
<pdfrwt beam="1">  1       -1 0.55129224E-02 0.19064689E+03</pdfrwt>
<totfact> 0.63215221E+02</totfact>
</mgrwt>
</event>
<event>
12    1  0.5759937E-002  0.2025131E+03  0.7546771E-02  0.1147636E+00
          2   -1    0    0  503    0  0.00000000000E+00  0.00000000000E+00  0.13566578842E+04  0.13566578842E+04  0.00000000000E+00 0. -1.
         -2   -1    0    0    0  501 -0.00000000000E+00 -0.00000000000E+00 -0.31957195089E+02  0.31957195089E+02  0.00000000000E+00 0.  1.
          6    2    1    2  503    0 -0.75214275082E+02  0.74811998976E+02  0.82555462135E+03  0.85016932505E+03  0.17318610237E+03 0.  0.
         24    2    3    3    0    0  0.20954796136E+02  0.62488132331E+02  0.49185207336E+03  0.50263537206E+03  0.79874808349E+02 0.  0.
         -6    2    1    2    0  501  0.75214275082E+02 -0.74811998976E+02  0.49914606780E+03  0.53844575428E+03  0.17182261474E+03 0.  0.
        -24    2    5    5    0    0  0.10645713536E+03 -0.50090025610E+02  0.46068503874E+03  0.48287028270E+03  0.84207319485E+02 0.  0.
          4    1    4    4  502    0 -0.10244799517E+02 -0.15956287376E+02  0.10197730204E+03  0.10372525804E+03  0.00000000000E+00 0. -1.
         -3    1    4    4    0  502  0.31199595653E+02  0.78444419707E+02  0.38987477132E+03  0.39891011402E+03  0.00000000000E+00 0.  1.
          5    1    3    3  503    0 -0.96169071218E+02  0.12323866646E+02  0.33370254799E+03  0.34753395299E+03  0.47000000000E+01 0. -1.
         13    1    6    6    0    0  0.62982240284E+02  0.10509498057E+02  0.28399141777E+03  0.29108132456E+03  0.00000000000E+00 0. -1.
        -14    1    6    6    0    0  0.43474895079E+02 -0.60599523666E+02  0.17669362097E+03  0.19178895814E+03  0.00000000000E+00 0.  1.
         -5    1    5    5    0  501 -0.31242860282E+02 -0.24721973367E+02  0.38461029061E+02  0.55575471588E+02  0.47000000000E+01 0.  1.
<mgrwt>
<rscale>  2 0.20251313E+03</rscale>
<asrwt>0</asrwt>
<pdfrwt beam="1">  1        2 0.20871655E+00 0.20251313E+03</pdfrwt>
<pdfrwt beam="2">  1       -2 0.49164926E-02 0.20251313E+03</pdfrwt>
<totfact> 0.32688766E+03</totfact>
</mgrwt>
</event>
<event>
12    1  0.5759937E-002  0.2363210E+03  0.7546771E-02  0.1122268E+00
         -2   -1    0    0    0  501 -0.00000000000E+00  0.00000000000E+00  0.70417021682E+02  0.70417021682E+02  0.00000000000E+00 0.  1.
          2   -1    0    0  503    0  0.00000000000E+00 -0.00000000000E+00 -0.92556557645E+03  0.92556557645E+03  0.00000000000E+00 0. -1.
          6    2    1    2  503    0 -0.16090820678E+03 -0.94298013749E+01 -0.23873139184E+03  0.33571420531E+03  0.17242673237E+03 0.  0.
         24    2    3    3    0    0 -0.16636821403E+03 -0.40917546498E+02 -0.14822370736E+03  0.23961519011E+03  0.78054747831E+02 0.  0.
         -6    2    1    2    0  501  0.16090820678E+03  0.94298013749E+01 -0.61641716293E+03  0.66026839282E+03  0.17321622222E+03 0.  0.
        -24    2    5    5    0    0  0.21916888409E+02  0.18844232966E+02 -0.34587557136E+03  0.35592966562E+03  0.78870532473E+02 0.  0.
          4    1    4    4  502    0 -0.13942506297E+02  0.12999836394E+02  0.16769914988E+01  0.19136392779E+02  0.00000000000E+00 0. -1.
         -3    1    4    4    0  502 -0.15242570773E+03 -0.53917382892E+02 -0.14990069886E+03  0.22047879733E+03  0.00000000000E+00 0.  1.
          5    1    3    3  503    0  0.54600072523E+01  0.31487745123E+02 -0.90507684480E+02  0.96099015198E+02  0.47000000000E+01 0. -1.
         13    1    6    6    0    0  0.27573840243E+02 -0.24007535768E+02 -0.21540539148E+03  0.21848606618E+03  0.00000000000E+00 0. -1.
        -14    1    6    6    0    0 -0.56569518338E+01  0.42851768733E+02 -0.13047017988E+03  0.13744359943E+03  0.00000000000E+00 0.  1.
         -5    1    5    5    0  501  0.13899131837E+03 -0.94144315911E+01 -0.27054159157E+03  0.30433872720E+03  0.47000000000E+01 0.  1.
<mgrwt>
<rscale>  2 0.23632102E+03</rscale>
<asrwt>0</asrwt>
<pdfrwt beam="2">  1        2 0.14239471E+00 0.23632102E+03</pdfrwt>
<pdfrwt beam="1">  1       -2 0.10833387E-01 0.23632102E+03</pdfrwt>
<totfact> 0.17048624E+03</totfact>
</mgrwt>
</event>
<event>
12    1  0.5759937E-002  0.2786153E+03  0.7546771E-02  0.1096448E+00
         -2   -1    0    0    0  501 -0.00000000000E+00  0.00000000000E+00  0.11308396812E+03  0.11308396812E+03  0.00000000000E+00 0.  1.
          2   -1    0    0  503    0  0.00000000000E+00 -0.00000000000E+00 -0.69159228561E+03  0.69159228561E+03  0.00000000000E+00 0. -1.
          6    2    1    2  503    0  0.20615846227E+03  0.77308702938E+02 -0.25479035919E+03  0.37771451808E+03  0.17109115384E+03 0.  0.
         24    2    3    3    0    0  0.67944690466E+02 -0.39388366431E+02 -0.94243230614E+02  0.13580808326E+03  0.58259115939E+02 0.  0.
         -6    2    1    2    0  501 -0.20615846227E+03 -0.77308702938E+02 -0.32371795831E+03  0.42696173564E+03  0.17036742664E+03 0.  0.
        -24    2    5    5    0    0 -0.16158944981E+03  0.86417519205E+01 -0.22640566678E+03  0.28960945265E+03  0.80176548608E+02 0.  0.
          2    1    4    4  502    0  0.49734362867E+02  0.48261303704E+01 -0.48165186236E+02  0.69402331008E+02  0.00000000000E+00 0. -1.
         -1    1    4    4    0  502  0.18210327599E+02 -0.44214496802E+02 -0.46078044377E+02  0.66405752254E+02  0.00000000000E+00 0.  1.
          5    1    3    3  503    0  0.13821377180E+03  0.11669706937E+03 -0.16054712857E+03  0.24190643482E+03  0.47000000000E+01 0. -1.
         11    1    6    6    0    0 -0.77705396220E+02  0.16082829993E+02 -0.17180290760E+03  0.18924329601E+03  0.00000000000E+00 0. -1.
        -12    1    6    6    0    0 -0.83884053586E+02 -0.74410780725E+01 -0.54602759178E+02  0.10036615664E+03  0.00000000000E+00 0.  1.
         -5    1    5    5    0  501 -0.44569012460E+02 -0.85950454859E+02 -0.97312291528E+02  0.13735228300E+03  0.47000000000E+01 0.  1.
<mgrwt>
<rscale>  2 0.27861527E+03</rscale>
<asrwt>0</asrwt>
<pdfrwt beam="2">  1        2 0.10639881E+00 0.27861527E+03</pdfrwt>
<pdfrwt beam="1">  1       -2 0.17397533E-01 0.27861527E+03</pdfrwt>
<totfact> 0.11372586E+03</totfact>
</mgrwt>
</event>
<event>
12    1  0.5759937E-002  0.2105601E+03  0.7546771E-02  0.1141123E+00
          1   -1    0    0  503    0  0.00000000000E+00  0.00000000000E+00  0.53954561620E+03  0.53954561620E+03  0.00000000000E+00 0. -1.
         -1   -1    0    0    0  501 -0.00000000000E+00 -0.00000000000E+00 -0.82959959711E+02  0.82959959711E+02  0.00000000000E+00 0.  1.
          6    2    1    2  503    0  0.93546509368E+02  0.84883242377E+02  0.26215834003E+03  0.33864134218E+03  0.17319021085E+03 0.  0.
         24    2    3    3    0    0  0.40800711019E+02  0.72472733846E+02  0.26028084760E+03  0.28421933428E+03  0.78214545837E+02 0.  0.
         -6    2    1    2    0  501 -0.93546509368E+02 -0.84883242377E+02  0.19442731646E+03  0.28386423374E+03  0.16377059430E+03 0.  0.
        -24    2    5    5    0    0 -0.33705355997E+02  0.17831055065E+02  0.90771004413E+02  0.12607351296E+03  0.78747430940E+02 0.  0.
          4    1    4    4  502    0 -0.78028927156E+01  0.43935919983E+02  0.18424638386E+03  0.18957315254E+03  0.00000000000E+00 0. -1.
         -3    1    4    4    0  502  0.48603603734E+02  0.28536813863E+02  0.76034463747E+02  0.94646181744E+02  0.00000000000E+00 0.  1.
          5    1    3    3  503    0  0.52745798350E+02  0.12410508531E+02  0.18774924256E+01  0.54422007895E+02  0.47000000000E+01 0. -1.
         11    1    6    6    0    0 -0.86715558286E+01 -0.10156198875E+02  0.87353749943E+02  0.88368670270E+02  0.00000000000E+00 0. -1.
        -12    1    6    6    0    0 -0.25033800168E+02  0.27987253941E+02  0.34172544702E+01  0.37704842688E+02  0.00000000000E+00 0.  1.
         -5    1    5    5    0  501 -0.59841153371E+02 -0.10271429744E+03  0.10365631205E+03  0.15779072078E+03  0.47000000000E+01 0.  1.
<mgrwt>
<rscale>  2 0.21056008E+03</rscale>
<asrwt>0</asrwt>
<pdfrwt beam="1">  1        1 0.83007016E-01 0.21056008E+03</pdfrwt>
<pdfrwt beam="2">  1       -1 0.12763071E-01 0.21056008E+03</pdfrwt>
<totfact> 0.16852108E+03</totfact>
</mgrwt>
</event>
<event>
12    1  0.5759937E-002  0.2534715E+03  0.7546771E-02  0.1111130E+00
         -2   -1    0    0    0  501 -0.00000000000E+00  0.00000000000E+00  0.14099100786E+03  0.14099100786E+03  0.00000000000E+00 0. -1.
          2   -1    0    0  503    0  0.00000000000E+00 -0.00000000000E+00 -0.45792410137E+03  0.45792410137E+03  0.00000000000E+00 0.  1.
          6    2    1    2  503    0  0.18012254194E+03  0.60164232471E+02 -0.13576170103E+03  0.28445657902E+03  0.16254365845E+03 0.  0.
         24    2    3    3    0    0  0.98862699114E+02  0.77749463786E+02 -0.34287504121E+02  0.15318775160E+03  0.80449001894E+02 0.  0.
         -6    2    1    2    0  501 -0.18012254194E+03 -0.60164232471E+02 -0.18117139248E+03  0.31445853021E+03  0.17319708076E+03 0.  0.
        -24    2    5    5    0    0 -0.96117797326E+02 -0.38434661782E+02 -0.21682736034E+02  0.13283338631E+03  0.80366120276E+02 0.  0.
          2    1    4    4  502    0  0.31946617512E+02  0.62560581830E+02  0.10816092855E+02  0.71073206162E+02  0.00000000000E+00 0. -1.
         -1    1    4    4    0  502  0.66916081602E+02  0.15188881955E+02 -0.45103596977E+02  0.82114545436E+02  0.00000000000E+00 0.  1.
          5    1    3    3  503    0  0.81259842823E+02 -0.17585231315E+02 -0.10147419691E+03  0.13126882743E+03  0.47000000000E+01 0. -1.
         13    1    6    6    0    0 -0.74092651664E+02 -0.41483362797E+02 -0.48663582867E+02  0.97871010605E+02  0.00000000000E+00 0. -1.
        -14    1    6    6    0    0 -0.22025145662E+02  0.30487010146E+01  0.26980846832E+02  0.34962375707E+02  0.00000000000E+00 0.  1.
         -5    1    5    5    0  501 -0.84004744611E+02 -0.21729570689E+02 -0.15948865645E+03  0.18162514390E+03  0.47000000000E+01 0.  1.
<mgrwt>
<rscale>  2 0.25347152E+03</rscale>
<asrwt>0</asrwt>
<pdfrwt beam="2">  1        2 0.70449861E-01 0.25347152E+03</pdfrwt>
<pdfrwt beam="1">  1       -2 0.21690924E-01 0.25347152E+03</pdfrwt>
<totfact> 0.12542819E+03</totfact>
</mgrwt>
</event>
<event>
12    1  0.5759937E-002  0.1984261E+03  0.7546771E-02  0.1151074E+00
          2   -1    0    0  503    0  0.00000000000E+00  0.00000000000E+00  0.94687441203E+03  0.94687441203E+03  0.00000000000E+00 0.  1.
         -2   -1    0    0    0  501 -0.00000000000E+00 -0.00000000000E+00 -0.42424584209E+02  0.42424584209E+02  0.00000000000E+00 0. -1.
          6    2    1    2  503    0  0.73597670474E+02 -0.65620373762E+02  0.51960549010E+03  0.55584085650E+03  0.17101620352E+03 0.  0.
         24    2    3    3    0    0  0.22688587135E+01 -0.58068284724E+02  0.42850023510E+03  0.43979306064E+03  0.80177373986E+02 0.  0.
         -6    2    1    2    0  501 -0.73597670474E+02  0.65620373762E+02  0.38484433772E+03  0.43345813974E+03  0.17337284699E+03 0.  0.
        -24    2    5    5    0    0 -0.11362275275E+03  0.47196621041E+02  0.23470964434E+03  0.27692073835E+03  0.80366828985E+02 0.  0.
          2    1    4    4  502    0  0.30243853824E+02 -0.25959275756E+01  0.22448348414E+03  0.22652651983E+03  0.00000000000E+00 0. -1.
         -1    1    4    4    0  502 -0.27974995111E+02 -0.55472357149E+02  0.20401675096E+03  0.21326654081E+03  0.00000000000E+00 0.  1.
          5    1    3    3  503    0  0.71328811760E+02 -0.75520890373E+01  0.91105255002E+02  0.11604779586E+03  0.47000000000E+01 0. -1.
         11    1    6    6    0    0 -0.42476088123E+02  0.46761679657E+00  0.22054833853E+02  0.47862850145E+02  0.00000000000E+00 0. -1.
        -12    1    6    6    0    0 -0.71146664627E+02  0.46729004245E+02  0.21265481049E+03  0.22905788820E+03  0.00000000000E+00 0.  1.
         -5    1    5    5    0  501  0.40025082275E+02  0.18423752720E+02  0.15013469338E+03  0.15653740139E+03  0.47000000000E+01 0.  1.
<mgrwt>
<rscale>  2 0.19842606E+03</rscale>
<asrwt>0</asrwt>
<pdfrwt beam="1">  1        2 0.14567297E+00 0.19842606E+03</pdfrwt>
<pdfrwt beam="2">  1       -2 0.65268598E-02 0.19842606E+03</pdfrwt>
<totfact> 0.36495422E+03</totfact>
</mgrwt>
</event>
<event>
12    1  0.5759937E-002  0.1788638E+03  0.7546771E-02  0.1168907E+00
          1   -1    0    0  503    0  0.00000000000E+00  0.00000000000E+00  0.20673392910E+03  0.20673392910E+03  0.00000000000E+00 0. -1.
         -1   -1    0    0    0  501 -0.00000000000E+00 -0.00000000000E+00 -0.17577705445E+03  0.17577705445E+03  0.00000000000E+00 0.  1.
          6    2    1    2  503    0 -0.35071607038E+02 -0.31680295278E+02  0.81552993774E+02  0.19578696605E+03  0.17160415657E+03 0.  0.
         24    2    3    3    0    0 -0.82112251996E+02 -0.20501701027E+02  0.27566137875E+02  0.12316153071E+03  0.85124197604E+02 0.  0.
         -6    2    1    2    0  501  0.35071607038E+02  0.31680295278E+02 -0.50596119124E+02  0.18672401751E+03  0.17341347328E+03 0.  0.
        -24    2    5    5    0    0 -0.36398995356E+02  0.20783502123E+02 -0.65402781371E+02  0.11277731809E+03  0.81757928307E+02 0.  0.
          2    1    4    4  502    0 -0.92716811707E+02  0.37178537113E+01  0.27288323547E+02  0.96720640049E+02  0.00000000000E+00 0. -1.
         -1    1    4    4    0  502  0.10604559711E+02 -0.24219554738E+02  0.27781432750E+00  0.26440890665E+02  0.00000000000E+00 0.  1.
          5    1    3    3  503    0  0.47040644958E+02 -0.11178594252E+02  0.53986855899E+02  0.72625435334E+02  0.47000000000E+01 0. -1.
         13    1    6    6    0    0 -0.22882377285E+02 -0.21825430834E+02  0.22370036204E+01  0.31701053712E+02  0.00000000000E+00 0. -1.
        -14    1    6    6    0    0 -0.13516618072E+02  0.42608932956E+02 -0.67639784992E+02  0.81076264378E+02  0.00000000000E+00 0.  1.
         -5    1    5    5    0  501  0.71470602394E+02  0.10896793156E+02  0.14806662248E+02  0.73946699416E+02  0.47000000000E+01 0.  1.
<mgrwt>
<rscale>  2 0.17886376E+03</rscale>
<asrwt>0</asrwt>
<pdfrwt beam="1">  1        1 0.31805220E-01 0.17886376E+03</pdfrwt>
<pdfrwt beam="2">  1       -1 0.27042624E-01 0.17886376E+03</pdfrwt>
<totfact> 0.16943126E+03</totfact>
</mgrwt>
</event>
<event>
12    1  0.5759937E-002  0.1994207E+03  0.7546771E-02  0.1150229E+00
          2   -1    0    0  503    0  0.00000000000E+00  0.00000000000E+00  0.40969784521E+03  0.40969784521E+03  0.00000000000E+00 0. -1.
         -2   -1    0    0    0  501 -0.00000000000E+00 -0.00000000000E+00 -0.19960976263E+03  0.19960976263E+03  0.00000000000E+00 0.  1.
          6    2    1    2  503    0  0.78833162985E+02  0.52276454066E+02  0.32374907665E+03  0.38097343037E+03  0.17714342997E+03 0.  0.
         24    2    3    3    0    0 -0.70101730018E+01  0.34090975670E+02  0.71165502777E+02  0.11354055702E+03  0.81336290522E+02 0.  0.
         -6    2    1    2    0  501 -0.78833162985E+02 -0.52276454066E+02 -0.11366099408E+03  0.22833417747E+03  0.17398327445E+03 0.  0.
        -24    2    5    5    0    0 -0.82196626284E+02 -0.45621792380E+01 -0.12230196204E+02  0.11609219929E+03  0.80936531832E+02 0.  0.
          4    1    4    4  502    0 -0.44123403436E+02  0.22740373438E+02  0.38706690657E+02  0.62946065933E+02  0.00000000000E+00 0. -1.
         -3    1    4    4    0  502  0.37113230435E+02  0.11350602233E+02  0.32458812120E+02  0.50594491089E+02  0.00000000000E+00 0.  1.
          5    1    3    3  503    0  0.85843335987E+02  0.18185478396E+02  0.25258357387E+03  0.26743287335E+03  0.47000000000E+01 0. -1.
         13    1    6    6    0    0 -0.42741716762E+02  0.31413723387E+02 -0.28576275244E+02  0.60251803920E+02  0.00000000000E+00 0. -1.
        -14    1    6    6    0    0 -0.39454909523E+02 -0.35975902625E+02  0.16346079040E+02  0.55840395370E+02  0.00000000000E+00 0.  1.
         -5    1    5    5    0  501  0.33634632989E+01 -0.47714274828E+02 -0.10143079787E+03  0.11224197818E+03  0.47000000000E+01 0.  1.
<mgrwt>
<rscale>  2 0.19942069E+03</rscale>
<asrwt>0</asrwt>
<pdfrwt beam="1">  1        2 0.63030438E-01 0.19942069E+03</pdfrwt>
<pdfrwt beam="2">  1       -2 0.30709194E-01 0.19942069E+03</pdfrwt>
<totfact> 0.76302915E+02</totfact>
</mgrwt>
</event>
<event>
12    1  0.5759937E-002  0.2166116E+03  0.7546771E-02  0.1136435E+00
          2   -1    0    0  503    0  0.00000000000E+00  0.00000000000E+00  0.19136360241E+04  0.19136360241E+04  0.00000000000E+00 0.  1.
         -2   -1    0    0    0  501 -0.00000000000E+00 -0.00000000000E+00 -0.32459632467E+02  0.32459632467E+02  0.00000000000E+00 0. -1.
          6    2    1    2  503    0  0.12393834289E+03 -0.38622081202E+02  0.45793443045E+03  0.50640056866E+03  0.17287340846E+03 0.  0.
         24    2    3    3    0    0 -0.51337799818E+01 -0.27530705085E+02  0.21486939710E+03  0.23092764447E+03  0.79839988410E+02 0.  0.
         -6    2    1    2    0  501 -0.12393834289E+03  0.38622081202E+02  0.14232419611E+04  0.14396950879E+04  0.17393069907E+03 0.  0.
        -24    2    5    5    0    0 -0.12925030111E+03  0.58290913703E+02  0.81974404197E+03  0.83583508065E+03  0.80848727516E+02 0.  0.
          2    1    4    4  502    0  0.16918266535E+02 -0.23054148861E+02  0.20317523191E+02  0.35078815129E+02  0.00000000000E+00 0. -1.
         -1    1    4    4    0  502 -0.22052046517E+02 -0.44765562240E+01  0.19455187391E+03  0.19584882934E+03  0.00000000000E+00 0.  1.
          5    1    3    3  503    0  0.12907212287E+03 -0.11091376117E+02  0.24306503334E+03  0.27547292419E+03  0.47000000000E+01 0. -1.
         13    1    6    6    0    0  0.63019307860E+01  0.15943150789E+02  0.44440967931E+02  0.47632950983E+02  0.00000000000E+00 0. -1.
        -14    1    6    6    0    0 -0.13555223190E+03  0.42347762914E+02  0.77530307404E+03  0.78820212967E+03  0.00000000000E+00 0.  1.
         -5    1    5    5    0  501  0.53119582263E+01 -0.19668832501E+02  0.60349791917E+03  0.60386000721E+03  0.47000000000E+01 0.  1.
<mgrwt>
<rscale>  2 0.21661157E+03</rscale>
<asrwt>0</asrwt>
<pdfrwt beam="1">  1        2 0.29440545E+00 0.21661157E+03</pdfrwt>
<pdfrwt beam="2">  1       -2 0.49937911E-02 0.21661157E+03</pdfrwt>
<totfact> 0.16248640E+03</totfact>
</mgrwt>
</event>
<event>
12    1  0.5759937E-002  0.2272066E+03  0.7546771E-02  0.1128621E+00
          2   -1    0    0  503    0  0.00000000000E+00  0.00000000000E+00  0.53807722303E+03  0.53807722303E+03  0.00000000000E+00 0.  1.
         -2   -1    0    0    0  501 -0.00000000000E+00 -0.00000000000E+00 -0.95953978486E+02  0.95953978486E+02  0.00000000000E+00 0. -1.
          6    2    1    2  503    0  0.54112163418E+02 -0.13744471759E+03  0.21712463915E+03  0.31424558771E+03  0.17259201559E+03 0.  0.
         24    2    3    3    0    0  0.83080144997E+02 -0.13187155145E+03  0.22314750656E+03  0.28377315641E+03  0.80249473775E+02 0.  0.
         -6    2    1    2    0  501 -0.54112163418E+02  0.13744471759E+03  0.22499860540E+03  0.31978561381E+03  0.17268262722E+03 0.  0.
        -24    2    5    5    0    0  0.15192412496E+01  0.13553536443E+02  0.14542750783E+03  0.16231330666E+03  0.70784483042E+02 0.  0.
          4    1    4    4  502    0  0.23916184127E+02 -0.49227191261E+02  0.23136523863E+02  0.59418843468E+02  0.00000000000E+00 0. -1.
         -3    1    4    4    0  502  0.59163960870E+02 -0.82644360185E+02  0.20001098269E+03  0.22435431294E+03  0.00000000000E+00 0.  1.
          5    1    3    3  503    0 -0.28967981579E+02 -0.55731661484E+01 -0.60228674092E+01  0.30472431303E+02  0.47000000000E+01 0. -1.
         13    1    6    6    0    0  0.29385079042E+02  0.16855512102E+02  0.36366645468E+02  0.49700342666E+02  0.00000000000E+00 0. -1.
        -14    1    6    6    0    0 -0.27865837793E+02 -0.33019756588E+01  0.10906086236E+03  0.11261296399E+03  0.00000000000E+00 0.  1.
         -5    1    5    5    0  501 -0.55631404667E+02  0.12389118115E+03  0.79571097569E+02  0.15747230715E+03  0.47000000000E+01 0.  1.
<mgrwt>
<rscale>  2 0.22720656E+03</rscale>
<asrwt>0</asrwt>
<pdfrwt beam="1">  1        2 0.82781110E-01 0.22720656E+03</pdfrwt>
<pdfrwt beam="2">  1       -2 0.14762151E-01 0.22720656E+03</pdfrwt>
<totfact> 0.20028604E+03</totfact>
</mgrwt>
</event>
<event>
12    1  0.5759937E-002  0.1751680E+03  0.7546771E-02  0.1172563E+00
          1   -1    0    0  503    0  0.00000000000E+00  0.00000000000E+00  0.61707677034E+02  0.61707677034E+02  0.00000000000E+00 0.  1.
         -1   -1    0    0    0  501 -0.00000000000E+00 -0.00000000000E+00 -0.51720956637E+03  0.51720956637E+03  0.00000000000E+00 0. -1.
          6    2    1    2  503    0  0.26597814969E+02  0.14457181115E+02 -0.16911517643E+03  0.24244368688E+03  0.17106298419E+03 0.  0.
         24    2    3    3    0    0  0.69674777590E+02 -0.30410420511E+02 -0.10217604390E+03  0.15094688995E+03  0.81028706822E+02 0.  0.
         -6    2    1    2    0  501 -0.26597814969E+02 -0.14457181115E+02 -0.28638671291E+03  0.33647355653E+03  0.17401336463E+03 0.  0.
        -24    2    5    5    0    0 -0.34089904638E+02 -0.61682439252E+02 -0.26551643324E+03  0.28409021007E+03  0.72397694877E+02 0.  0.
          2    1    4    4  502    0  0.90522991785E+01 -0.42667288329E+02 -0.66553454167E+02  0.79572632704E+02  0.00000000000E+00 0. -1.
         -1    1    4    4    0  502  0.60622478412E+02  0.12256867819E+02 -0.35622589733E+02  0.71374257242E+02  0.00000000000E+00 0.  1.
          5    1    3    3  503    0 -0.43076962621E+02  0.44867601625E+02 -0.66939132533E+02  0.91496796930E+02  0.47000000000E+01 0. -1.
         13    1    6    6    0    0  0.21352544406E+02 -0.26468157941E+02 -0.11365896473E+03  0.11863749323E+03  0.00000000000E+00 0. -1.
        -14    1    6    6    0    0 -0.55442449043E+02 -0.35214281311E+02 -0.15185746851E+03  0.16545271683E+03  0.00000000000E+00 0.  1.
         -5    1    5    5    0  501  0.74920896688E+01  0.47225258137E+02 -0.20870279667E+02  0.52383346467E+02  0.47000000000E+01 0.  1.
<mgrwt>
<rscale>  2 0.17516800E+03</rscale>
<asrwt>0</asrwt>
<pdfrwt beam="1">  1        1 0.94934886E-02 0.17516800E+03</pdfrwt>
<pdfrwt beam="2">  1       -1 0.79570704E-01 0.17516800E+03</pdfrwt>
<totfact> 0.11241961E+03</totfact>
</mgrwt>
</event>
<event>
12    1  0.5759937E-002  0.1753268E+03  0.7546771E-02  0.1172404E+00
          1   -1    0    0  503    0  0.00000000000E+00  0.00000000000E+00  0.12546908356E+04  0.12546908356E+04  0.00000000000E+00 0. -1.
         -1   -1    0    0    0  501 -0.00000000000E+00 -0.00000000000E+00 -0.26665818886E+02  0.26665818886E+02  0.00000000000E+00 0.  1.
          6    2    1    2  503    0 -0.28855377262E+02  0.15768853719E+02  0.79441683271E+03  0.81338841529E+03  0.17152644257E+03 0.  0.
         24    2    3    3    0    0 -0.41306798583E+02  0.13014947350E+02  0.21550140322E+03  0.23431347508E+03  0.81156080160E+02 0.  0.
         -6    2    1    2    0  501  0.28855377262E+02 -0.15768853719E+02  0.43360818401E+03  0.46796823919E+03  0.17290727605E+03 0.  0.
        -24    2    5    5    0    0  0.63116282498E+02  0.40409174979E+01  0.15236660898E+03  0.18391692308E+03  0.81301026636E+02 0.  0.
          2    1    4    4  502    0 -0.25760827809E+02 -0.33314939202E+02  0.11716781829E+03  0.12450623706E+03  0.00000000000E+00 0. -1.
         -1    1    4    4    0  502 -0.15545970774E+02  0.46329886552E+02  0.98333584931E+02  0.10980723802E+03  0.00000000000E+00 0.  1.
          5    1    3    3  503    0  0.12451421320E+02  0.27539063688E+01  0.57891542948E+03  0.57907494022E+03  0.47000000000E+01 0. -1.
         13    1    6    6    0    0  0.22194085772E+02 -0.24567618455E+02  0.11983261105E+03  0.12432216211E+03  0.00000000000E+00 0. -1.
        -14    1    6    6    0    0  0.40922196726E+02  0.28608535953E+02  0.32533997935E+02  0.59594760977E+02  0.00000000000E+00 0.  1.
         -5    1    5    5    0  501 -0.34260905236E+02 -0.19809771217E+02  0.28124157502E+03  0.28405131611E+03  0.47000000000E+01 0.  1.
<mgrwt>
<rscale>  2 0.17532682E+03</rscale>
<asrwt>0</asrwt>
<pdfrwt beam="1">  1        1 0.19302931E+00 0.17532682E+03</pdfrwt>
<pdfrwt beam="2">  1       -1 0.41024346E-02 0.17532682E+03</pdfrwt>
<totfact> 0.24730789E+03</totfact>
</mgrwt>
</event>
<event>
12    1  0.5759937E-002  0.1989281E+03  0.7546771E-02  0.1150647E+00
          1   -1    0    0  503    0  0.00000000000E+00  0.00000000000E+00  0.23086747794E+03  0.23086747794E+03  0.00000000000E+00 0.  1.
         -1   -1    0    0    0  501 -0.00000000000E+00 -0.00000000000E+00 -0.17341987827E+03  0.17341987827E+03  0.00000000000E+00 0. -1.
          6    2    1    2  503    0  0.71159457830E+02  0.70253748146E+02  0.70821471003E+01  0.19988120971E+03  0.17292508095E+03 0.  0.
         24    2    3    3    0    0  0.20476675902E+02  0.56896840435E+02  0.52955678659E+02  0.13006987635E+03  0.10226105869E+03 0.  0.
         -6    2    1    2    0  501 -0.71159457830E+02 -0.70253748146E+02  0.50365452572E+02  0.20440614650E+03  0.17101443315E+03 0.  0.
        -24    2    5    5    0    0 -0.96843821547E+01 -0.40824320969E+02 -0.32879828061E+02  0.96716115106E+02  0.80700132513E+02 0.  0.
          2    1    4    4  502    0  0.21226714905E+02  0.86107678523E+02  0.32729712703E+02  0.94532215778E+02  0.00000000000E+00 0. -1.
         -1    1    4    4    0  502 -0.75003900356E+00 -0.29210838088E+02  0.20225965956E+02  0.35537660575E+02  0.00000000000E+00 0.  1.
          5    1    3    3  503    0  0.50682781928E+02  0.13356907711E+02 -0.45873531558E+02  0.69811333358E+02  0.47000000000E+01 0.  1.
         13    1    6    6    0    0  0.32653954030E+02 -0.63408023981E+01 -0.24857080650E+02  0.41525425312E+02  0.00000000000E+00 0. -1.
        -14    1    6    6    0    0 -0.42338336185E+02 -0.34483518571E+02 -0.80227474113E+01  0.55190689794E+02  0.00000000000E+00 0.  1.
         -5    1    5    5    0  501 -0.61475075675E+02 -0.29429427177E+02  0.83245280633E+02  0.10769003139E+03  0.47000000000E+01 0.  1.
<mgrwt>
<rscale>  2 0.19892814E+03</rscale>
<asrwt>0</asrwt>
<pdfrwt beam="1">  1        1 0.35518073E-01 0.19892814E+03</pdfrwt>
<pdfrwt beam="2">  1       -1 0.26679981E-01 0.19892814E+03</pdfrwt>
<totfact> 0.15133463E+03</totfact>
</mgrwt>
</event>
<event>
12    1  0.5759937E-002  0.2219641E+03  0.7546771E-02  0.1132427E+00
         -2   -1    0    0    0  501 -0.00000000000E+00  0.00000000000E+00  0.58225044385E+02  0.58225044385E+02  0.00000000000E+00 0. -1.
          2   -1    0    0  503    0  0.00000000000E+00 -0.00000000000E+00 -0.85325338373E+03  0.85325338373E+03  0.00000000000E+00 0.  1.
          6    2    1    2  503    0 -0.56476358448E+02  0.12568791091E+03 -0.44215936001E+03  0.49558117744E+03  0.17637679491E+03 0.  0.
         24    2    3    3    0    0 -0.30923041412E+02 -0.19861142884E+02 -0.13974728418E+03  0.15896172958E+03  0.66248234313E+02 0.  0.
         -6    2    1    2    0  501  0.56476358448E+02 -0.12568791091E+03 -0.35286897933E+03  0.41589725067E+03  0.17165947840E+03 0.  0.
        -24    2    5    5    0    0  0.18730961863E+02 -0.71598645285E+02 -0.32760310597E+03  0.34511011924E+03  0.79372441187E+02 0.  0.
          2    1    4    4  502    0 -0.13904878638E+02  0.80882941459E+01 -0.68447051805E+00  0.16100765573E+02  0.00000000000E+00 0. -1.
         -1    1    4    4    0  502 -0.17018162774E+02 -0.27949437030E+02 -0.13906281366E+03  0.14286096401E+03  0.00000000000E+00 0.  1.
          5    1    3    3  503    0 -0.25553317036E+02  0.14554905379E+03 -0.30241207583E+03  0.33661944786E+03  0.47000000000E+01 0. -1.
         13    1    6    6    0    0 -0.23451615912E+02 -0.20801185664E+02 -0.44651758484E+02  0.54556824960E+02  0.00000000000E+00 0. -1.
        -14    1    6    6    0    0  0.42182577776E+02 -0.50797459621E+02 -0.28295134749E+03  0.29055329428E+03  0.00000000000E+00 0.  1.
         -5    1    5    5    0  501  0.37745396585E+02 -0.54089265624E+02 -0.25265873362E+02  0.70787131428E+02  0.47000000000E+01 0.  1.
<mgrwt>
<rscale>  2 0.22196411E+03</rscale>
<asrwt>0</asrwt>
<pdfrwt beam="2">  1        2 0.13126977E+00 0.22196411E+03</pdfrwt>
<pdfrwt beam="1">  1       -2 0.89576981E-02 0.22196411E+03</pdfrwt>
<totfact> 0.25673231E+03</totfact>
</mgrwt>
</event>
<event>
12    1  0.5759937E-002  0.2247805E+03  0.7546771E-02  0.1130368E+00
          1   -1    0    0  503    0  0.00000000000E+00  0.00000000000E+00  0.11175753448E+03  0.11175753448E+03  0.00000000000E+00 0. -1.
         -1   -1    0    0    0  501 -0.00000000000E+00 -0.00000000000E+00 -0.46428321316E+03  0.46428321316E+03  0.00000000000E+00 0.  1.
          6    2    1    2  503    0  0.15918028532E+02 -0.14391974264E+03 -0.12877683243E+03  0.25807675982E+03  0.17045194465E+03 0.  0.
         24    2    3    3    0    0  0.36745843405E+02 -0.59813114746E+02 -0.13410694397E+03  0.17113871972E+03  0.79849378596E+02 0.  0.
         -6    2    1    2    0  501 -0.15918028532E+02  0.14391974264E+03 -0.22374884625E+03  0.31796398783E+03  0.17341071306E+03 0.  0.
        -24    2    5    5    0    0  0.41517675563E+01  0.12085700273E+02 -0.30141813718E+02  0.82828315315E+02  0.76083503855E+02 0.  0.
          4    1    4    4  502    0  0.30242123606E+02 -0.78746285298E+02 -0.93909391199E+02  0.12623207692E+03  0.00000000000E+00 0. -1.
         -3    1    4    4    0  502  0.65037197989E+01  0.18933170552E+02 -0.40197552770E+02  0.44906642795E+02  0.00000000000E+00 0.  1.
          5    1    3    3  503    0 -0.20827814873E+02 -0.84106627892E+02  0.53301115405E+01  0.86938040102E+02  0.47000000000E+01 0. -1.
         11    1    6    6    0    0  0.17339378358E+02  0.22749984932E+02  0.16622482318E+02  0.33083572580E+02  0.00000000000E+00 0. -1.
        -12    1    6    6    0    0 -0.13187610802E+02 -0.10664284659E+02 -0.46764296037E+02  0.49744742735E+02  0.00000000000E+00 0.  1.
         -5    1    5    5    0  501 -0.20069796089E+02  0.13183404236E+03 -0.19360703254E+03  0.23513567251E+03  0.47000000000E+01 0.  1.
<mgrwt>
<rscale>  2 0.22478053E+03</rscale>
<asrwt>0</asrwt>
<pdfrwt beam="1">  1        1 0.17193467E-01 0.22478053E+03</pdfrwt>
<pdfrwt beam="2">  1       -1 0.71428187E-01 0.22478053E+03</pdfrwt>
<totfact> 0.64112377E+02</totfact>
</mgrwt>
</event>
<event>
12    1  0.5759937E-002  0.2737325E+03  0.7546771E-02  0.1099162E+00
         -1   -1    0    0    0  501 -0.00000000000E+00  0.00000000000E+00  0.11382706070E+03  0.11382706070E+03  0.00000000000E+00 0. -1.
          1   -1    0    0  503    0  0.00000000000E+00 -0.00000000000E+00 -0.79012473819E+03  0.79012473819E+03  0.00000000000E+00 0.  1.
          6    2    1    2  503    0  0.20893365681E+03  0.67270108106E+01 -0.52544671455E+03  0.59370221751E+03  0.18080251000E+03 0.  0.
         24    2    3    3    0    0  0.16626045990E+03 -0.54770544842E+02 -0.44110882049E+03  0.48083981695E+03  0.77379486571E+02 0.  0.
         -6    2    1    2    0  501 -0.20893365681E+03 -0.67270108106E+01 -0.15085096293E+03  0.31024958138E+03  0.17262752998E+03 0.  0.
        -24    2    5    5    0    0 -0.22333359089E+03  0.52075724135E+01 -0.16051450128E+03  0.28867954773E+03  0.87555493981E+02 0.  0.
          4    1    4    4  502    0  0.98280035881E+02 -0.27637841347E+02 -0.15563555544E+03  0.18613232348E+03  0.00000000000E+00 0. -1.
         -3    1    4    4    0  502  0.67980424022E+02 -0.27132703494E+02 -0.28547326505E+03  0.29470749347E+03  0.00000000000E+00 0.  1.
          5    1    3    3  503    0  0.42673196905E+02  0.61497555652E+02 -0.84337894060E+02  0.11286240056E+03  0.47000000000E+01 0. -1.
         13    1    6    6    0    0 -0.31511632382E+01 -0.33688231674E+01  0.93705464849E+01  0.10444421512E+02  0.00000000000E+00 0. -1.
        -14    1    6    6    0    0 -0.22018242765E+03  0.85763955809E+01 -0.16988504776E+03  0.27823512622E+03  0.00000000000E+00 0.  1.
         -5    1    5    5    0  501  0.14399934082E+02 -0.11934583224E+02  0.96635383466E+01  0.21570033650E+02  0.47000000000E+01 0.  1.
<mgrwt>
<rscale>  2 0.27373255E+03</rscale>
<asrwt>0</asrwt>
<pdfrwt beam="2">  1        1 0.12155766E+00 0.27373255E+03</pdfrwt>
<pdfrwt beam="1">  1       -1 0.17511855E-01 0.27373255E+03</pdfrwt>
<totfact> 0.59075138E+02</totfact>
</mgrwt>
</event>
<event>
12    1  0.5759937E-002  0.2040953E+03  0.7546771E-02  0.1146329E+00
          2   -1    0    0  503    0  0.00000000000E+00  0.00000000000E+00  0.22915123477E+04  0.22915123477E+04  0.00000000000E+00 0.  1.
         -2   -1    0    0    0  501 -0.00000000000E+00 -0.00000000000E+00 -0.18283016613E+02  0.18283016613E+02  0.00000000000E+00 0. -1.
          6    2    1    2  503    0  0.10692363934E+03 -0.49180092326E+01  0.10431173031E+04  0.10626839221E+04  0.17247190703E+03 0.  0.
         24    2    3    3    0    0  0.50957974051E+02  0.33981421577E+01  0.93970397369E+03  0.94471053199E+03  0.82620630557E+02 0.  0.
         -6    2    1    2    0  501 -0.10692363934E+03  0.49180092326E+01  0.12301120280E+04  0.12471114423E+04  0.17508425553E+03 0.  0.
        -24    2    5    5    0    0 -0.22008884788E+02 -0.62724834453E+01  0.96307024881E+03  0.96663123886E+03  0.79673789602E+02 0.  0.
          2    1    4    4  502    0  0.67650667513E+01  0.24061385105E+02  0.84571775205E+02  0.88187876393E+02  0.00000000000E+00 0. -1.
         -1    1    4    4    0  502  0.44192907300E+02 -0.20663242948E+02  0.85513219849E+03  0.85652265560E+03  0.00000000000E+00 0.  1.
          5    1    3    3  503    0  0.55965665289E+02 -0.83161513903E+01  0.10341332941E+03  0.11797339007E+03  0.47000000000E+01 0. -1.
         13    1    6    6    0    0 -0.21803531751E+00 -0.23908190183E+02  0.90323431565E+02  0.93434315896E+02  0.00000000000E+00 0. -1.
        -14    1    6    6    0    0 -0.21790849471E+02  0.17635706737E+02  0.87274681724E+03  0.87319692297E+03  0.00000000000E+00 0.  1.
         -5    1    5    5    0  501 -0.84914754552E+02  0.11190492678E+02  0.26704177921E+03  0.28048020342E+03  0.47000000000E+01 0.  1.
<mgrwt>
<rscale>  2 0.20409533E+03</rscale>
<asrwt>0</asrwt>
<pdfrwt beam="1">  1        2 0.35254013E+00 0.20409533E+03</pdfrwt>
<pdfrwt beam="2">  1       -2 0.28127736E-02 0.20409533E+03</pdfrwt>
<totfact> 0.24360708E+03</totfact>
</mgrwt>
</event>
<event>
12    1  0.5759937E-002  0.2904734E+03  0.7546771E-02  0.1090102E+00
          1   -1    0    0  503    0  0.00000000000E+00  0.00000000000E+00  0.78864801426E+03  0.78864801426E+03  0.00000000000E+00 0. -1.
         -1   -1    0    0    0  501 -0.00000000000E+00 -0.00000000000E+00 -0.13994996820E+03  0.13994996820E+03  0.00000000000E+00 0.  1.
          6    2    1    2  503    0 -0.84816923274E+02 -0.21863116028E+03  0.54934852129E+03  0.62123396078E+03  0.17074642447E+03 0.  0.
         24    2    3    3    0    0 -0.46224872528E+02 -0.65032768095E+02  0.34365869387E+03  0.36159535124E+03  0.79271056506E+02 0.  0.
         -6    2    1    2    0  501  0.84816923274E+02  0.21863116028E+03  0.99349524768E+02  0.30736402168E+03  0.17207213322E+03 0.  0.
        -24    2    5    5    0    0 -0.15820021899E+02  0.14130073767E+03  0.67021101208E+02  0.17631057470E+03  0.79858745205E+02 0.  0.
          4    1    4    4  502    0 -0.45117447140E+02 -0.81142711945E+02  0.31802084727E+03  0.33129591461E+03  0.00000000000E+00 0. -1.
         -3    1    4    4    0  502 -0.11074253878E+01  0.16109943850E+02  0.25637846596E+02  0.30299436627E+02  0.00000000000E+00 0.  1.
          5    1    3    3  503    0 -0.38592050746E+02 -0.15359839218E+03  0.20568982742E+03  0.25963860954E+03  0.47000000000E+01 0. -1.
         11    1    6    6    0    0  0.68481591048E+01  0.13734703144E+03  0.67724070861E+02  0.15328944551E+03  0.00000000000E+00 0. -1.
        -12    1    6    6    0    0 -0.22668181004E+02  0.39537062202E+01 -0.70296965287E+00  0.23021129191E+02  0.00000000000E+00 0.  1.
         -5    1    5    5    0  501  0.10063694517E+03  0.77330422614E+02  0.32328423561E+02  0.13105344698E+03  0.47000000000E+01 0.  1.
<mgrwt>
<rscale>  2 0.29047335E+03</rscale>
<asrwt>0</asrwt>
<pdfrwt beam="1">  1        1 0.12133046E+00 0.29047335E+03</pdfrwt>
<pdfrwt beam="2">  1       -1 0.21530765E-01 0.29047335E+03</pdfrwt>
<totfact> 0.42258377E+02</totfact>
</mgrwt>
</event>
<event>
12    1  0.5759937E-002  0.1868356E+03  0.7546771E-02  0.1161347E+00
          2   -1    0    0  503    0  0.00000000000E+00  0.00000000000E+00  0.57327454141E+03  0.57327454141E+03  0.00000000000E+00 0.  1.
         -2   -1    0    0    0  501 -0.00000000000E+00 -0.00000000000E+00 -0.14010514030E+03  0.14010514030E+03  0.00000000000E+00 0. -1.
          6    2    1    2  503    0 -0.15145906248E+02  0.64666512727E+02  0.48383516998E+03  0.51799256586E+03  0.17265187584E+03 0.  0.
         24    2    3    3    0    0  0.92958382862E+01 -0.11653538165E+02  0.36869702150E+03  0.37763220009E+03  0.80289272759E+02 0.  0.
         -6    2    1    2    0  501  0.15145906248E+02 -0.64666512727E+02 -0.50665768868E+02  0.19538711585E+03  0.17662941024E+03 0.  0.
        -24    2    5    5    0    0 -0.17630262987E+02 -0.62538708184E+02 -0.97074884382E+02  0.13833713053E+03  0.74106088224E+02 0.  0.
          4    1    4    4  502    0  0.33542687944E+02 -0.14806672951E+02  0.81164421935E+02  0.89061848546E+02  0.00000000000E+00 0. -1.
         -3    1    4    4    0  502 -0.24246849658E+02  0.31531347858E+01  0.28753259956E+03  0.28857035154E+03  0.00000000000E+00 0.  1.
          5    1    3    3  503    0 -0.24441744535E+02  0.76320050892E+02  0.11513814848E+03  0.14036036577E+03  0.47000000000E+01 0. -1.
         11    1    6    6    0    0 -0.21792078404E+02 -0.74382593868E+02 -0.56641208106E+02  0.95999434412E+02  0.00000000000E+00 0. -1.
        -12    1    6    6    0    0  0.41618154176E+01  0.11843885683E+02 -0.40433676276E+02  0.42337696121E+02  0.00000000000E+00 0.  1.
         -5    1    5    5    0  501  0.32776169235E+02 -0.21278045429E+01  0.46409115514E+02  0.57049985317E+02  0.47000000000E+01 0.  1.
<mgrwt>
<rscale>  2 0.18683564E+03</rscale>
<asrwt>0</asrwt>
<pdfrwt beam="1">  1        2 0.88196082E-01 0.18683564E+03</pdfrwt>
<pdfrwt beam="2">  1       -2 0.21554637E-01 0.18683564E+03</pdfrwt>
<totfact> 0.98275067E+02</totfact>
</mgrwt>
</event>
<event>
12    1  0.5759937E-002  0.2287767E+03  0.7546771E-02  0.1127504E+00
          2   -1    0    0  503    0  0.00000000000E+00  0.00000000000E+00  0.46100746237E+03  0.46100746237E+03  0.00000000000E+00 0.  1.
         -2   -1    0    0    0  501 -0.00000000000E+00 -0.00000000000E+00 -0.12593018347E+03  0.12593018347E+03  0.00000000000E+00 0. -1.
          6    2    1    2  503    0  0.90628224071E+02  0.10977799630E+03  0.72687496449E+02  0.23584522729E+03  0.17342092038E+03 0.  0.
         24    2    3    3    0    0 -0.18859507277E+02  0.31287005936E+02  0.41273444181E+02  0.97435214778E+02  0.80346537755E+02 0.  0.
         -6    2    1    2    0  501 -0.90628224071E+02 -0.10977799630E+03  0.26238978245E+03  0.35109241854E+03  0.18480477524E+03 0.  0.
        -24    2    5    5    0    0 -0.66057782047E+02 -0.15154644970E+03  0.19829542126E+03  0.27060336675E+03  0.81087304924E+02 0.  0.
          4    1    4    4  502    0 -0.22911246176E+02  0.38571136416E+02 -0.96043274892E+01  0.45879198688E+02  0.00000000000E+00 0. -1.
         -3    1    4    4    0  502  0.40517388985E+01 -0.72841304804E+01  0.50877771670E+02  0.51556016090E+02  0.00000000000E+00 0.  1.
          5    1    3    3  503    0  0.10948773135E+03  0.78490990366E+02  0.31414052268E+02  0.13841001251E+03  0.47000000000E+01 0. -1.
         13    1    6    6    0    0  0.11071978453E+02  0.27879366221E+01  0.95716477104E+01  0.14898917322E+02  0.00000000000E+00 0. -1.
        -14    1    6    6    0    0 -0.77129760500E+02 -0.15433438632E+03  0.18872377355E+03  0.25570444943E+03  0.00000000000E+00 0.  1.
         -5    1    5    5    0  501 -0.24570442024E+02  0.41768453401E+02  0.64094361191E+02  0.80489051786E+02  0.47000000000E+01 0.  1.
<mgrwt>
<rscale>  2 0.22877673E+03</rscale>
<asrwt>0</asrwt>
<pdfrwt beam="1">  1        2 0.70924224E-01 0.22877673E+03</pdfrwt>
<pdfrwt beam="2">  1       -2 0.19373875E-01 0.22877673E+03</pdfrwt>
<totfact> 0.15097870E+03</totfact>
</mgrwt>
</event>
<event>
12    1  0.5759937E-002  0.1870895E+03  0.7546771E-02  0.1161113E+00
          1   -1    0    0  503    0  0.00000000000E+00  0.00000000000E+00  0.19633732072E+02  0.19633732072E+02  0.00000000000E+00 0. -1.
         -1   -1    0    0    0  501 -0.00000000000E+00 -0.00000000000E+00 -0.20338530083E+04  0.20338530083E+04  0.00000000000E+00 0.  1.
          6    2    1    2  503    0  0.64810426981E+02 -0.28616927741E+02 -0.13652845414E+04  0.13779701037E+04  0.17257000778E+03 0.  0.
         24    2    3    3    0    0 -0.17134019198E+02  0.25630973921E+02 -0.53514725512E+03  0.54202289769E+03  0.80347467395E+02 0.  0.
         -6    2    1    2    0  501 -0.64810426981E+02  0.28616927741E+02 -0.64893473481E+03  0.67551663670E+03  0.17374439966E+03 0.  0.
        -24    2    5    5    0    0  0.79183483701E+01  0.70052631810E+02 -0.43965401352E+03  0.45006841062E+03  0.65542743111E+02 0.  0.
          2    1    4    4  502    0  0.57043467025E+01  0.34109515812E+02 -0.93277691131E+02  0.99482291404E+02  0.00000000000E+00 0. -1.
         -1    1    4    4    0  502 -0.22838365900E+02 -0.84785418918E+01 -0.44186956399E+03  0.44254060629E+03  0.00000000000E+00 0.  1.
          5    1    3    3  503    0  0.81944446179E+02 -0.54247901662E+02 -0.83013728629E+03  0.83594720598E+03  0.47000000000E+01 0. -1.
         11    1    6    6    0    0  0.23715571330E+01  0.50395692419E+02 -0.12564399231E+03  0.13539484075E+03  0.00000000000E+00 0. -1.
        -12    1    6    6    0    0  0.55467912370E+01  0.19656939391E+02 -0.31401002121E+03  0.31467356987E+03  0.00000000000E+00 0.  1.
         -5    1    5    5    0  501 -0.72728775351E+02 -0.41435704069E+02 -0.20928072129E+03  0.22544822607E+03  0.47000000000E+01 0.  1.
<mgrwt>
<rscale>  2 0.18708953E+03</rscale>
<asrwt>0</asrwt>
<pdfrwt beam="1">  1        1 0.30205748E-02 0.18708953E+03</pdfrwt>
<pdfrwt beam="2">  1       -1 0.31290039E+00 0.18708953E+03</pdfrwt>
<totfact> 0.10941116E+02</totfact>
</mgrwt>
</event>
<event>
12    1  0.5759937E-002  0.1822873E+03  0.7546771E-02  0.1165608E+00
          2   -1    0    0  503    0  0.00000000000E+00  0.00000000000E+00  0.21569860714E+04  0.21569860714E+04  0.00000000000E+00 0. -1.
         -2   -1    0    0    0  501 -0.00000000000E+00 -0.00000000000E+00 -0.18428956303E+02  0.18428956303E+02  0.00000000000E+00 0.  1.
          6    2    1    2  503    0  0.47512259414E+02 -0.31096986103E+02  0.63042302324E+03  0.65634677195E+03  0.17358991756E+03 0.  0.
         24    2    3    3    0    0 -0.35188319097E+02 -0.30324221564E+02  0.41363628861E+03  0.42427229864E+03  0.82184109918E+02 0.  0.
         -6    2    1    2    0  501 -0.47512259414E+02  0.31096986103E+02  0.15081340919E+04  0.15190682557E+04  0.17284527554E+03 0.  0.
        -24    2    5    5    0    0 -0.11458605863E+02 -0.31044124758E+02  0.41194848674E+03  0.42052087195E+03  0.77725225560E+02 0.  0.
          4    1    4    4  502    0 -0.19176040579E+02  0.13343241582E+02  0.30757694031E+03  0.30846286136E+03  0.00000000000E+00 0. -1.
         -3    1    4    4    0  502 -0.16012278518E+02 -0.43667463146E+02  0.10605934830E+03  0.11580943728E+03  0.00000000000E+00 0.  1.
          5    1    3    3  503    0  0.82700578511E+02 -0.77276453857E+00  0.21678673463E+03  0.23207447331E+03  0.47000000000E+01 0. -1.
         11    1    6    6    0    0 -0.41462384009E+02 -0.11225049080E+02  0.14713010917E+03  0.15327230683E+03  0.00000000000E+00 0. -1.
        -12    1    6    6    0    0  0.30003778146E+02 -0.19819075678E+02  0.26481837756E+03  0.26724856512E+03  0.00000000000E+00 0.  1.
         -5    1    5    5    0  501 -0.36053653551E+02  0.62141110861E+02  0.10961856051E+04  0.10985473838E+04  0.47000000000E+01 0.  1.
<mgrwt>
<rscale>  2 0.18228730E+03</rscale>
<asrwt>0</asrwt>
<pdfrwt beam="1">  1        2 0.33184381E+00 0.18228730E+03</pdfrwt>
<pdfrwt beam="2">  1       -2 0.28352257E-02 0.18228730E+03</pdfrwt>
<totfact> 0.28376522E+03</totfact>
</mgrwt>
</event>
<event>
12    1  0.5759937E-002  0.2908986E+03  0.7546771E-02  0.1089881E+00
         -1   -1    0    0    0  501 -0.00000000000E+00  0.00000000000E+00  0.60612079390E+03  0.60612079390E+03  0.00000000000E+00 0. -1.
          1   -1    0    0  503    0  0.00000000000E+00 -0.00000000000E+00 -0.31566965276E+03  0.31566965276E+03  0.00000000000E+00 0.  1.
          6    2    1    2  503    0  0.20591524467E+03 -0.11158407344E+03  0.48933096351E+03  0.56904765172E+03  0.17180903540E+03 0.  0.
         24    2    3    3    0    0  0.43581157041E+02 -0.67500508897E+02  0.14010027947E+03  0.18138816539E+03  0.82570831919E+02 0.  0.
         -6    2    1    2    0  501 -0.20591524467E+03  0.11158407344E+03 -0.19887982236E+03  0.35274279494E+03  0.17326916115E+03 0.  0.
        -24    2    5    5    0    0 -0.11240446627E+03  0.14007120049E+02 -0.40917207492E+02  0.14480096364E+03  0.80387422840E+02 0.  0.
          4    1    4    4  502    0  0.53592533430E+02 -0.26214140486E+02  0.37824598106E+02  0.70640222414E+02  0.00000000000E+00 0. -1.
         -3    1    4    4    0  502 -0.10011376389E+02 -0.41286368411E+02  0.10227568137E+03  0.11074794297E+03  0.00000000000E+00 0.  1.
          5    1    3    3  503    0  0.16233408763E+03 -0.44083564539E+02  0.34923068404E+03  0.38765948633E+03  0.47000000000E+01 0. -1.
         13    1    6    6    0    0 -0.54546391835E+01  0.14065191251E+02  0.17364079287E+02  0.23002042149E+02  0.00000000000E+00 0. -1.
        -14    1    6    6    0    0 -0.10694982709E+03 -0.58071202280E-01 -0.58281286778E+02  0.12179892149E+03  0.00000000000E+00 0.  1.
         -5    1    5    5    0  501 -0.93510778401E+02  0.97576953388E+02 -0.15796261487E+03  0.20794183131E+03  0.47000000000E+01 0.  1.
<mgrwt>
<rscale>  2 0.29089859E+03</rscale>
<asrwt>0</asrwt>
<pdfrwt beam="2">  1        1 0.48564562E-01 0.29089859E+03</pdfrwt>
<pdfrwt beam="1">  1       -1 0.93249353E-01 0.29089859E+03</pdfrwt>
<totfact> 0.97298141E+01</totfact>
</mgrwt>
</event>
<event>
12    1  0.5759937E-002  0.3039705E+03  0.7546771E-02  0.1083272E+00
          2   -1    0    0  503    0  0.00000000000E+00  0.00000000000E+00  0.67128231504E+03  0.67128231504E+03  0.00000000000E+00 0.  1.
         -2   -1    0    0    0  501 -0.00000000000E+00 -0.00000000000E+00 -0.18323675945E+03  0.18323675945E+03  0.00000000000E+00 0. -1.
          6    2    1    2  503    0  0.18024689495E+03 -0.17299974666E+03  0.30961408177E+02  0.30564677760E+03  0.17333057543E+03 0.  0.
         24    2    3    3    0    0  0.14139516028E+03 -0.81138689811E+02  0.79742567853E+02  0.19451801179E+03  0.70016436970E+02 0.  0.
         -6    2    1    2    0  501 -0.18024689495E+03  0.17299974666E+03  0.45708414741E+03  0.54887229688E+03  0.17296538667E+03 0.  0.
        -24    2    5    5    0    0 -0.72359262265E+02  0.12127181401E+03  0.15780998289E+03  0.22653297900E+03  0.80439319771E+02 0.  0.
          2    1    4    4  502    0  0.33923815827E+02 -0.30746254415E+02 -0.85585593007E+01  0.46576886737E+02  0.00000000000E+00 0. -1.
         -1    1    4    4    0  502  0.10747134445E+03 -0.50392435396E+02  0.88301127154E+02  0.14794112505E+03  0.00000000000E+00 0.  1.
          5    1    3    3  503    0  0.38851734674E+02 -0.91861056849E+02 -0.48781159677E+02  0.11112876582E+03  0.47000000000E+01 0. -1.
         13    1    6    6    0    0 -0.79094517696E+02  0.12957837656E+03  0.14660778770E+03  0.21104582871E+03  0.00000000000E+00 0. -1.
        -14    1    6    6    0    0  0.67352554304E+01 -0.83065625467E+01  0.11202195187E+02  0.15487150289E+02  0.00000000000E+00 0.  1.
         -5    1    5    5    0  501 -0.10788763269E+03  0.51727932650E+02  0.29927416452E+03  0.32233931788E+03  0.47000000000E+01 0.  1.
<mgrwt>
<rscale>  2 0.30397054E+03</rscale>
<asrwt>0</asrwt>
<pdfrwt beam="1">  1        2 0.10327420E+00 0.30397054E+03</pdfrwt>
<pdfrwt beam="2">  1       -2 0.28190271E-01 0.30397054E+03</pdfrwt>
<totfact> 0.50753959E+02</totfact>
</mgrwt>
</event>
<event>
12    1  0.5759937E-002  0.2008356E+03  0.7546771E-02  0.1149036E+00
         -1   -1    0    0    0  501 -0.00000000000E+00  0.00000000000E+00  0.34642173204E+02  0.34642173204E+02  0.00000000000E+00 0.  1.
          1   -1    0    0  503    0  0.00000000000E+00 -0.00000000000E+00 -0.15859244053E+04  0.15859244053E+04  0.00000000000E+00 0. -1.
          6    2    1    2  503    0 -0.99610606223E+01  0.10146050972E+03 -0.11914866892E+04  0.12081821886E+04  0.17225043504E+03 0.  0.
         24    2    3    3    0    0 -0.10579921911E+00  0.62663616311E+00 -0.19720788009E+03  0.20874382800E+03  0.68429773453E+02 0.  0.
         -6    2    1    2    0  501  0.99610606223E+01 -0.10146050972E+03 -0.35979554289E+03  0.41238438998E+03  0.17382345828E+03 0.  0.
        -24    2    5    5    0    0  0.51401976049E+02 -0.39774934041E+01 -0.16174609337E+03  0.18773808487E+03  0.80161126447E+02 0.  0.
          2    1    4    4  502    0  0.29523355114E+02 -0.14576406221E+02 -0.71797883357E+02  0.78987569719E+02  0.00000000000E+00 0. -1.
         -1    1    4    4    0  502 -0.29629154334E+02  0.15203042384E+02 -0.12540999673E+03  0.12975625829E+03  0.00000000000E+00 0.  1.
          5    1    3    3  503    0 -0.98552614032E+01  0.10083387356E+03 -0.99427880916E+03  0.99943836057E+03  0.47000000000E+01 0. -1.
         11    1    6    6    0    0  0.44338925242E+02 -0.37785918270E+02 -0.79719134045E+02  0.98736296487E+02  0.00000000000E+00 0. -1.
        -12    1    6    6    0    0  0.70630508078E+01  0.33808424866E+02 -0.82026959328E+02  0.89001788382E+02  0.00000000000E+00 0.  1.
         -5    1    5    5    0  501 -0.41440915427E+02 -0.97483016321E+02 -0.19804944952E+03  0.22464630511E+03  0.47000000000E+01 0.  1.
<mgrwt>
<rscale>  2 0.20083561E+03</rscale>
<asrwt>0</asrwt>
<pdfrwt beam="2">  1        1 0.24398835E+00 0.20083561E+03</pdfrwt>
<pdfrwt beam="1">  1       -1 0.53295655E-02 0.20083561E+03</pdfrwt>
<totfact> 0.10094329E+03</totfact>
</mgrwt>
</event>
<event>
12    1  0.5759937E-002  0.1876750E+03  0.7546771E-02  0.1160575E+00
          2   -1    0    0  503    0  0.00000000000E+00  0.00000000000E+00  0.15994266567E+03  0.15994266567E+03  0.00000000000E+00 0. -1.
         -2   -1    0    0    0  501 -0.00000000000E+00 -0.00000000000E+00 -0.23518005112E+03  0.23518005112E+03  0.00000000000E+00 0.  1.
          6    2    1    2  503    0  0.22262472996E+02 -0.68280791478E+02 -0.87168554970E+02  0.20566598829E+03  0.17187861291E+03 0.  0.
         24    2    3    3    0    0 -0.44532605835E+02 -0.72686235546E+02 -0.69589272492E+02  0.13629660264E+03  0.80421733529E+02 0.  0.
         -6    2    1    2    0  501 -0.22262472996E+02  0.68280791478E+02  0.11931169526E+02  0.18945672850E+03  0.17491030553E+03 0.  0.
        -24    2    5    5    0    0 -0.70867073143E+02  0.72622221629E+02  0.35692499104E+02  0.13497787064E+03  0.81541044504E+02 0.  0.
          4    1    4    4  502    0 -0.18626465852E+02 -0.83313722149E+02 -0.66322351822E+02  0.10810539246E+03  0.00000000000E+00 0. -1.
         -3    1    4    4    0  502 -0.25906139983E+02  0.10627486603E+02 -0.32669206697E+01  0.28191210173E+02  0.00000000000E+00 0.  1.
          5    1    3    3  503    0  0.66795078832E+02  0.44054440676E+01 -0.17579282478E+02  0.69369385654E+02  0.47000000000E+01 0. -1.
         11    1    6    6    0    0 -0.28712384760E+02 -0.15066376893E+02  0.13861173810E+02  0.35263705005E+02  0.00000000000E+00 0. -1.
        -12    1    6    6    0    0 -0.42154688383E+02  0.87688598521E+02  0.21831325294E+02  0.99714165631E+02  0.00000000000E+00 0.  1.
         -5    1    5    5    0  501  0.48604600147E+02 -0.43414301506E+01 -0.23761329578E+02  0.54478857867E+02  0.47000000000E+01 0.  1.
<mgrwt>
<rscale>  2 0.18767498E+03</rscale>
<asrwt>0</asrwt>
<pdfrwt beam="1">  1        2 0.24606564E-01 0.18767498E+03</pdfrwt>
<pdfrwt beam="2">  1       -2 0.36181546E-01 0.18767498E+03</pdfrwt>
<totfact> 0.15612413E+03</totfact>
</mgrwt>
</event>
<event>
12    1  0.5759937E-002  0.1958587E+03  0.7546771E-02  0.1153281E+00
          1   -1    0    0  503    0  0.00000000000E+00  0.00000000000E+00  0.23160494641E+02  0.23160494641E+02  0.00000000000E+00 0. -1.
         -1   -1    0    0    0  501 -0.00000000000E+00 -0.00000000000E+00 -0.20735093321E+04  0.20735093321E+04  0.00000000000E+00 0.  1.
          6    2    1    2  503    0 -0.93350045749E+02 -0.72847685961E+01 -0.55878674091E+03  0.59242231900E+03  0.17307305780E+03 0.  0.
         24    2    3    3    0    0 -0.13176522303E+03 -0.20252346415E+02 -0.46363014796E+03  0.48888125902E+03  0.79244809200E+02 0.  0.
         -6    2    1    2    0  501  0.93350045749E+02  0.72847685961E+01 -0.14915620966E+04  0.15042475077E+04  0.17098472971E+03 0.  0.
        -24    2    5    5    0    0  0.61686046985E+02  0.67989112230E+02 -0.10956002327E+04  0.11023824635E+04  0.80495578668E+02 0.  0.
          4    1    4    4  502    0 -0.29572130339E+02  0.51640967167E+01 -0.23800864425E+03  0.23989433826E+03  0.00000000000E+00 0. -1.
         -3    1    4    4    0  502 -0.10219309269E+03 -0.25416443132E+02 -0.22562150370E+03  0.24898692076E+03  0.00000000000E+00 0.  1.
          5    1    3    3  503    0  0.38415177283E+02  0.12967577819E+02 -0.95156592957E+02  0.10354105999E+03  0.47000000000E+01 0. -1.
         11    1    6    6    0    0 -0.18817393144E+02  0.23450529498E+02 -0.27968874317E+03  0.28130022161E+03  0.00000000000E+00 0. -1.
        -12    1    6    6    0    0  0.80503440129E+02  0.44538582733E+02 -0.81591148956E+03  0.82108224193E+03  0.00000000000E+00 0.  1.
         -5    1    5    5    0  501  0.31663998764E+02 -0.60704343634E+02 -0.39596186382E+03  0.40186504421E+03  0.47000000000E+01 0.  1.
<mgrwt>
<rscale>  2 0.19585874E+03</rscale>
<asrwt>0</asrwt>
<pdfrwt beam="1">  1        1 0.35631545E-02 0.19585874E+03</pdfrwt>
<pdfrwt beam="2">  1       -1 0.31900130E+00 0.19585874E+03</pdfrwt>
<totfact> 0.79477791E+01</totfact>
</mgrwt>
</event>
<event>
12    1  0.5759937E-002  0.2243086E+03  0.7546771E-02  0.1130711E+00
          1   -1    0    0  503    0  0.00000000000E+00  0.00000000000E+00  0.27834635692E+04  0.27834635692E+04  0.00000000000E+00 0.  1.
         -1   -1    0    0    0  501 -0.00000000000E+00 -0.00000000000E+00 -0.21362191527E+02  0.21362191527E+02  0.00000000000E+00 0. -1.
          6    2    1    2  503    0 -0.14160300665E+03  0.30895497685E+01  0.19322927138E+04  0.19452953109E+04  0.17423477766E+03 0.  0.
         24    2    3    3    0    0 -0.27257120882E+02  0.60582430635E+01  0.12930180036E+04  0.12958509023E+04  0.80958942076E+02 0.  0.
         -6    2    1    2    0  501  0.14160300665E+03 -0.30895497685E+01  0.82980866384E+03  0.85953044986E+03  0.17363530413E+03 0.  0.
        -24    2    5    5    0    0  0.33363788880E+02  0.18184302312E+02  0.54804644293E+03  0.55690800492E+03  0.91366356403E+02 0.  0.
          2    1    4    4  502    0 -0.30962202165E+02 -0.30937154587E+02  0.90435253550E+03  0.90541110771E+03  0.00000000000E+00 0. -1.
         -1    1    4    4    0  502  0.37050812828E+01  0.36995397651E+02  0.38866546813E+03  0.39043979458E+03  0.00000000000E+00 0.  1.
          5    1    3    3  503    0 -0.11434588576E+03 -0.29686932950E+01  0.63927471019E+03  0.64944440857E+03  0.47000000000E+01 0. -1.
         11    1    6    6    0    0  0.29697101371E+02 -0.19592873954E+02  0.82853589817E+02  0.90169373322E+02  0.00000000000E+00 0. -1.
        -12    1    6    6    0    0  0.36666875086E+01  0.37777176265E+02  0.46519285311E+03  0.46673863160E+03  0.00000000000E+00 0.  1.
         -5    1    5    5    0  501  0.10823921777E+03 -0.21273852080E+02  0.28176222091E+03  0.30262244493E+03  0.47000000000E+01 0.  1.
<mgrwt>
<rscale>  2 0.22430858E+03</rscale>
<asrwt>0</asrwt>
<pdfrwt beam="1">  1        1 0.42822488E+00 0.22430858E+03</pdfrwt>
<pdfrwt beam="2">  1       -1 0.32864932E-02 0.22430858E+03</pdfrwt>
<totfact> 0.33998167E+02</totfact>
</mgrwt>
</event>
<event>
12    1  0.5759937E-002  0.1940692E+03  0.7546771E-02  0.1154842E+00
          2   -1    0    0  503    0  0.00000000000E+00  0.00000000000E+00  0.85420274409E+03  0.85420274409E+03  0.00000000000E+00 0.  1.
         -2   -1    0    0    0  501 -0.00000000000E+00 -0.00000000000E+00 -0.44189886830E+02  0.44189886830E+02  0.00000000000E+00 0. -1.
          6    2    1    2  503    0  0.64992931528E+02 -0.56484996970E+02  0.42520053214E+03  0.46719636998E+03  0.17338488852E+03 0.  0.
         24    2    3    3    0    0 -0.26411586271E+02 -0.19940784686E+02  0.12310098960E+03  0.14942839028E+03  0.77972965814E+02 0.  0.
         -6    2    1    2    0  501 -0.64992931528E+02  0.56484996970E+02  0.38481232512E+03  0.43119626093E+03  0.17445645258E+03 0.  0.
        -24    2    5    5    0    0 -0.67307660430E+02  0.10094693646E+03  0.32572129729E+03  0.35706083348E+03  0.81715788963E+02 0.  0.
          4    1    4    4  502    0 -0.42361296185E+02 -0.13370702860E+02  0.27415033461E+02  0.52199992041E+02  0.00000000000E+00 0. -1.
         -3    1    4    4    0  502  0.15949709914E+02 -0.65700818263E+01  0.95685956143E+02  0.97228398242E+02  0.00000000000E+00 0.  1.
          5    1    3    3  503    0  0.91404517798E+02 -0.36544212284E+02  0.30209954253E+03  0.31776797970E+03  0.47000000000E+01 0. -1.
         13    1    6    6    0    0 -0.65856165249E+02  0.62672337950E+02  0.13650995463E+03  0.16401165860E+03  0.00000000000E+00 0. -1.
        -14    1    6    6    0    0 -0.14514951807E+01  0.38274598510E+02  0.18921134266E+03  0.19304917488E+03  0.00000000000E+00 0.  1.
         -5    1    5    5    0  501  0.23147289022E+01 -0.44461939490E+02  0.59091027834E+02  0.74135427452E+02  0.47000000000E+01 0.  1.
<mgrwt>
<rscale>  2 0.19406922E+03</rscale>
<asrwt>0</asrwt>
<pdfrwt beam="1">  1        2 0.13141579E+00 0.19406922E+03</pdfrwt>
<pdfrwt beam="2">  1       -2 0.67984448E-02 0.19406922E+03</pdfrwt>
<totfact> 0.39273801E+03</totfact>
</mgrwt>
</event>
<event>
12    1  0.5759937E-002  0.1791954E+03  0.7546771E-02  0.1168584E+00
         -3   -1    0    0    0  501 -0.00000000000E+00  0.00000000000E+00  0.28671315521E+02  0.28671315521E+02  0.00000000000E+00 0. -1.
          3   -1    0    0  503    0  0.00000000000E+00 -0.00000000000E+00 -0.13334161847E+04  0.13334161847E+04  0.00000000000E+00 0.  1.
          6    2    1    2  503    0 -0.10273949280E+02 -0.48011135927E+02 -0.92517453658E+03  0.94238873569E+03  0.17244704352E+03 0.  0.
         24    2    3    3    0    0  0.30842567975E+02 -0.77717555559E+01 -0.25437479899E+03  0.26911007594E+03  0.81865929598E+02 0.  0.
         -6    2    1    2    0  501  0.10273949280E+02  0.48011135927E+02 -0.37957033257E+03  0.41969876450E+03  0.17222889522E+03 0.  0.
        -24    2    5    5    0    0  0.68871106992E+02  0.39579371479E+02 -0.28509962634E+03  0.30811235905E+03  0.85683562250E+02 0.  0.
          4    1    4    4  502    0  0.35356782400E+02 -0.14493479938E+02 -0.42782550085E+02  0.57362963785E+02  0.00000000000E+00 0. -1.
         -3    1    4    4    0  502 -0.45142144252E+01  0.67217243825E+01 -0.21159224890E+03  0.21174711216E+03  0.00000000000E+00 0.  1.
          5    1    3    3  503    0 -0.41116517254E+02 -0.40239380371E+02 -0.67079973759E+03  0.67327865975E+03  0.47000000000E+01 0. -1.
         11    1    6    6    0    0 -0.13294179366E+02  0.64151610966E+01 -0.71892675365E+01  0.16418741262E+02  0.00000000000E+00 0. -1.
        -12    1    6    6    0    0  0.82165286358E+02  0.33164210383E+02 -0.27791035880E+03  0.29169361779E+03  0.00000000000E+00 0.  1.
         -5    1    5    5    0  501 -0.58597157713E+02  0.84317644478E+01 -0.94470706234E+02  0.11158640544E+03  0.47000000000E+01 0.  1.
<mgrwt>
<rscale>  2 0.17919539E+03</rscale>
<asrwt>0</asrwt>
<pdfrwt beam="2">  1        3 0.20514090E+00 0.17919539E+03</pdfrwt>
<pdfrwt beam="1">  1       -3 0.44109727E-02 0.17919539E+03</pdfrwt>
<totfact> 0.10113041E+02</totfact>
</mgrwt>
</event>
<event>
12    1  0.5759937E-002  0.4129946E+03  0.7546771E-02  0.1039371E+00
         -2   -1    0    0    0  501 -0.00000000000E+00  0.00000000000E+00  0.11136557066E+03  0.11136557066E+03  0.00000000000E+00 0. -1.
          2   -1    0    0  503    0  0.00000000000E+00 -0.00000000000E+00 -0.17025678539E+04  0.17025678539E+04  0.00000000000E+00 0.  1.
          6    2    1    2  503    0  0.24079577553E+03  0.28590279665E+03 -0.51036124903E+03  0.65732294504E+03  0.17855485131E+03 0.  0.
         24    2    3    3    0    0  0.18021509302E+03  0.27990908658E+03 -0.47835381295E+03  0.58838449700E+03  0.80915817092E+02 0.  0.
         -6    2    1    2    0  501 -0.24079577553E+03 -0.28590279665E+03 -0.10808410342E+04  0.11566104795E+04  0.17264832881E+03 0.  0.
        -24    2    5    5    0    0 -0.45635793404E+02 -0.36988848516E+02 -0.25641434460E+03  0.27357762126E+03  0.75137195768E+02 0.  0.
          2    1    4    4  502    0  0.15321456814E+03  0.17502953194E+03 -0.29839256483E+03  0.37834926151E+03  0.00000000000E+00 0. -1.
         -1    1    4    4    0  502  0.27000524877E+02  0.10487955464E+03 -0.17996124812E+03  0.21003523549E+03  0.00000000000E+00 0.  1.
          5    1    3    3  503    0  0.60580682509E+02  0.59937100785E+01 -0.32007436080E+02  0.68938448040E+02  0.47000000000E+01 0. -1.
         13    1    6    6    0    0 -0.53087241975E+02 -0.53250806573E+02 -0.17954335640E+03  0.19465282040E+03  0.00000000000E+00 0. -1.
        -14    1    6    6    0    0  0.74514485708E+01  0.16261958057E+02 -0.76870988196E+02  0.78924800867E+02  0.00000000000E+00 0.  1.
         -5    1    5    5    0  501 -0.19515998212E+03 -0.24891394814E+03 -0.82442668959E+03  0.88303285823E+03  0.47000000000E+01 0.  1.
<mgrwt>
<rscale>  2 0.41299455E+03</rscale>
<asrwt>0</asrwt>
<pdfrwt beam="2">  1        2 0.26193351E+00 0.41299455E+03</pdfrwt>
<pdfrwt beam="1">  1       -2 0.17133165E-01 0.41299455E+03</pdfrwt>
<totfact> 0.28676623E+02</totfact>
</mgrwt>
</event>
<event>
12    1  0.5759937E-002  0.1857142E+03  0.7546771E-02  0.1162385E+00
         -2   -1    0    0    0  501 -0.00000000000E+00  0.00000000000E+00  0.36322988961E+02  0.36322988961E+02  0.00000000000E+00 0. -1.
          2   -1    0    0  503    0  0.00000000000E+00 -0.00000000000E+00 -0.11862016092E+04  0.11862016092E+04  0.00000000000E+00 0.  1.
          6    2    1    2  503    0 -0.66147124819E+02 -0.54765129039E+01 -0.30085608398E+03  0.35333720051E+03  0.17299525913E+03 0.  0.
         24    2    3    3    0    0  0.10145173897E+02  0.25537206442E+02 -0.79840628273E+02  0.11742983036E+03  0.81609838062E+02 0.  0.
         -6    2    1    2    0  501  0.66147124819E+02  0.54765129039E+01 -0.84902253625E+03  0.86918739764E+03  0.17390236008E+03 0.  0.
        -24    2    5    5    0    0 -0.20538950706E+02  0.25336655550E+02 -0.28488402995E+03  0.29806285322E+03  0.81355757849E+02 0.  0.
          4    1    4    4  502    0 -0.62934608517E+01  0.43133591739E+02 -0.11661591877E+02  0.45123243577E+02  0.00000000000E+00 0. -1.
         -3    1    4    4    0  502  0.16438634749E+02 -0.17596385297E+02 -0.68179036396E+02  0.72306586781E+02  0.00000000000E+00 0.  1.
          5    1    3    3  503    0 -0.76292298716E+02 -0.31013719346E+02 -0.22101545570E+03  0.23590737015E+03  0.47000000000E+01 0. -1.
         13    1    6    6    0    0  0.16529669061E+02 -0.15465330473E+02 -0.15946351714E+03  0.16106216100E+03  0.00000000000E+00 0. -1.
        -14    1    6    6    0    0 -0.37068619767E+02  0.40801986023E+02 -0.12542051281E+03  0.13700069222E+03  0.00000000000E+00 0.  1.
         -5    1    5    5    0  501  0.86686075525E+02 -0.19860142646E+02 -0.56413850630E+03  0.57112454442E+03  0.47000000000E+01 0.  1.
<mgrwt>
<rscale>  2 0.18571422E+03</rscale>
<asrwt>0</asrwt>
<pdfrwt beam="2">  1        2 0.18249259E+00 0.18571422E+03</pdfrwt>
<pdfrwt beam="1">  1       -2 0.55881512E-02 0.18571422E+03</pdfrwt>
<totfact> 0.33380882E+03</totfact>
</mgrwt>
</event>
<event>
12    1  0.5759937E-002  0.1986489E+03  0.7546771E-02  0.1150884E+00
         -2   -1    0    0    0  501 -0.00000000000E+00  0.00000000000E+00  0.68609265943E+02  0.68609265943E+02  0.00000000000E+00 0.  1.
          2   -1    0    0  503    0  0.00000000000E+00 -0.00000000000E+00 -0.11501725494E+04  0.11501725494E+04  0.00000000000E+00 0. -1.
          6    2    1    2  503    0  0.10634532147E+02 -0.97634434465E+02 -0.10907576717E+03  0.22608995481E+03  0.17196967353E+03 0.  0.
         24    2    3    3    0    0  0.46257179228E+02 -0.32985238163E+02 -0.78653702793E+01  0.10073395772E+03  0.82811313364E+02 0.  0.
         -6    2    1    2    0  501 -0.10634532147E+02  0.97634434465E+02 -0.97248751628E+03  0.99269186053E+03  0.17337700128E+03 0.  0.
        -24    2    5    5    0    0 -0.62717348977E+02  0.96453367957E+02 -0.58403408203E+03  0.60073245535E+03  0.80913261492E+02 0.  0.
          4    1    4    4  502    0  0.46688257234E+01  0.25426765283E+02 -0.12824529107E+02  0.28858046940E+02  0.00000000000E+00 0. -1.
         -3    1    4    4    0  502  0.41588353505E+02 -0.58412003446E+02  0.49591588280E+01  0.71875910777E+02  0.00000000000E+00 0.  1.
          5    1    3    3  503    0 -0.35622647081E+02 -0.64649196303E+02 -0.10121039689E+03  0.12535599709E+03  0.47000000000E+01 0. -1.
         11    1    6    6    0    0 -0.31724850398E+02  0.93865327305E+02 -0.52221083868E+03  0.53152735192E+03  0.00000000000E+00 0. -1.
        -12    1    6    6    0    0 -0.30992498579E+02  0.25880406526E+01 -0.61823243345E+02  0.69205103426E+02  0.00000000000E+00 0.  1.
         -5    1    5    5    0  501  0.52082816831E+02  0.11810665081E+01 -0.38845343425E+03  0.39195940518E+03  0.47000000000E+01 0.  1.
<mgrwt>
<rscale>  2 0.19864895E+03</rscale>
<asrwt>0</asrwt>
<pdfrwt beam="2">  1        2 0.17694962E+00 0.19864895E+03</pdfrwt>
<pdfrwt beam="1">  1       -2 0.10555272E-01 0.19864895E+03</pdfrwt>
<totfact> 0.13026337E+03</totfact>
</mgrwt>
</event>
<event>
12    1  0.5759937E-002  0.1751067E+03  0.7546771E-02  0.1172625E+00
          1   -1    0    0  503    0  0.00000000000E+00  0.00000000000E+00  0.10589816086E+03  0.10589816086E+03  0.00000000000E+00 0.  1.
         -1   -1    0    0    0  501 -0.00000000000E+00 -0.00000000000E+00 -0.29104753927E+03  0.29104753927E+03  0.00000000000E+00 0. -1.
          6    2    1    2  503    0 -0.44196374826E+02  0.21844140981E+02 -0.10826229467E+03  0.20982733562E+03  0.17284762157E+03 0.  0.
         24    2    3    3    0    0 -0.63636621573E+02  0.66602698076E+02 -0.52529934552E+02  0.13560174979E+03  0.84515688047E+02 0.  0.
         -6    2    1    2    0  501  0.44196374826E+02 -0.21844140981E+02 -0.76887083738E+02  0.18711836451E+03  0.16331311229E+03 0.  0.
        -24    2    5    5    0    0  0.88326934740E+02 -0.13176096730E+02 -0.34887935832E+02  0.12540402473E+03  0.80831580622E+02 0.  0.
          4    1    4    4  502    0 -0.54739285246E+02  0.50949872673E+02 -0.75600019920E+02  0.10633739646E+03  0.00000000000E+00 0. -1.
         -3    1    4    4    0  502 -0.88973363272E+01  0.15652825402E+02  0.23070085368E+02  0.29264353327E+02  0.00000000000E+00 0.  1.
          5    1    3    3  503    0  0.19440246747E+02 -0.44758557094E+02 -0.55732360119E+02  0.74225585826E+02  0.47000000000E+01 0. -1.
         13    1    6    6    0    0 -0.40100540954E+01  0.17234065891E+02 -0.20580180191E+02  0.27141064416E+02  0.00000000000E+00 0. -1.
        -14    1    6    6    0    0  0.92336988835E+02 -0.30410162621E+02 -0.14307755641E+02  0.98262960312E+02  0.00000000000E+00 0.  1.
         -5    1    5    5    0  501 -0.44130559914E+02 -0.86680442511E+01 -0.41999147906E+02  0.61714339778E+02  0.47000000000E+01 0.  1.
<mgrwt>
<rscale>  2 0.17510675E+03</rscale>
<asrwt>0</asrwt>
<pdfrwt beam="1">  1        1 0.16292025E-01 0.17510675E+03</pdfrwt>
<pdfrwt beam="2">  1       -1 0.44776543E-01 0.17510675E+03</pdfrwt>
<totfact> 0.16584869E+03</totfact>
</mgrwt>
</event>
<event>
12    1  0.5759937E-002  0.1885900E+03  0.7546771E-02  0.1159739E+00
         -1   -1    0    0    0  501 -0.00000000000E+00  0.00000000000E+00  0.17874835012E+02  0.17874835012E+02  0.00000000000E+00 0.  1.
          1   -1    0    0  503    0  0.00000000000E+00 -0.00000000000E+00 -0.20050470327E+04  0.20050470327E+04  0.00000000000E+00 0. -1.
          6    2    1    2  503    0  0.30783813237E+02 -0.72178748752E+02 -0.89925402053E+03  0.91857582494E+03  0.17019499931E+03 0.  0.
         24    2    3    3    0    0  0.59714704385E+02 -0.20575575585E+02 -0.76294633385E+03  0.76990922011E+03  0.81755113851E+02 0.  0.
         -6    2    1    2    0  501 -0.30783813237E+02  0.72178748752E+02 -0.10879181772E+04  0.11043460428E+04  0.17279122395E+03 0.  0.
        -24    2    5    5    0    0  0.19668301766E+02 -0.19342162046E+02 -0.54207904172E+03  0.54857275734E+03  0.79507366346E+02 0.  0.
          2    1    4    4  502    0  0.19226197024E+02  0.18087189548E+02 -0.51692952151E+03  0.51760305572E+03  0.00000000000E+00 0. -1.
         -1    1    4    4    0  502  0.40488507362E+02 -0.38662765133E+02 -0.24601681234E+03  0.25230616439E+03  0.00000000000E+00 0.  1.
          5    1    3    3  503    0 -0.28930891148E+02 -0.51603173168E+02 -0.13630768668E+03  0.14866660483E+03  0.47000000000E+01 0. -1.
         13    1    6    6    0    0  0.11391766464E+02  0.26661745970E+02 -0.10269219054E+03  0.10670664009E+03  0.00000000000E+00 0. -1.
        -14    1    6    6    0    0  0.82765353013E+01 -0.46003908015E+02 -0.43938685118E+03  0.44186611726E+03  0.00000000000E+00 0.  1.
         -5    1    5    5    0  501 -0.50452115003E+02  0.91520910798E+02 -0.54583913547E+03  0.55577328546E+03  0.47000000000E+01 0.  1.
<mgrwt>
<rscale>  2 0.18859003E+03</rscale>
<asrwt>0</asrwt>
<pdfrwt beam="2">  1        1 0.30846873E+00 0.18859003E+03</pdfrwt>
<pdfrwt beam="1">  1       -1 0.27499750E-02 0.18859003E+03</pdfrwt>
<totfact> 0.14436098E+03</totfact>
</mgrwt>
</event>
<event>
12    1  0.5759937E-002  0.1933176E+03  0.7546771E-02  0.1155503E+00
          1   -1    0    0  503    0  0.00000000000E+00  0.00000000000E+00  0.18130861590E+04  0.18130861590E+04  0.00000000000E+00 0.  1.
         -1   -1    0    0    0  501 -0.00000000000E+00 -0.00000000000E+00 -0.69589853637E+02  0.69589853637E+02  0.00000000000E+00 0. -1.
          6    2    1    2  503    0 -0.46420412308E+01  0.86010624636E+02  0.16618043487E+04  0.16730402772E+04  0.17335137589E+03 0.  0.
         24    2    3    3    0    0  0.42630617039E+02  0.60571718460E+01  0.50639066820E+03  0.51388967352E+03  0.76138222092E+02 0.  0.
         -6    2    1    2    0  501  0.46420412308E+01 -0.86010624636E+02  0.81691956593E+02  0.20963573541E+03  0.17278364996E+03 0.  0.
        -24    2    5    5    0    0 -0.49161060362E+02 -0.79173476487E+02  0.90425954261E+02  0.15450051028E+03  0.83715621222E+02 0.  0.
          4    1    4    4  502    0  0.54666349813E+02  0.15248073578E+02  0.22346965597E+03  0.23056365865E+03  0.00000000000E+00 0. -1.
         -3    1    4    4    0  502 -0.12035732774E+02 -0.91909017323E+01  0.28292101223E+03  0.28332601487E+03  0.00000000000E+00 0.  1.
          5    1    3    3  503    0 -0.47272658270E+02  0.79953452790E+02  0.11554136805E+04  0.11591506037E+04  0.47000000000E+01 0. -1.
         11    1    6    6    0    0  0.36672679757E+01  0.15580810226E+02  0.62330848177E+01  0.17177364410E+02  0.00000000000E+00 0. -1.
        -12    1    6    6    0    0 -0.52828328337E+02 -0.94754286713E+02  0.84192869444E+02  0.13732314587E+03  0.00000000000E+00 0.  1.
         -5    1    5    5    0  501  0.53803101593E+02 -0.68371481497E+01 -0.87339976681E+01  0.55135225138E+02  0.47000000000E+01 0.  1.
<mgrwt>
<rscale>  2 0.19331759E+03</rscale>
<asrwt>0</asrwt>
<pdfrwt beam="1">  1        1 0.27893630E+00 0.19331759E+03</pdfrwt>
<pdfrwt beam="2">  1       -1 0.10706133E-01 0.19331759E+03</pdfrwt>
<totfact> 0.24967508E+02</totfact>
</mgrwt>
</event>
<event>
12    1  0.5759937E-002  0.1855618E+03  0.7546771E-02  0.1162526E+00
         -2   -1    0    0    0  501 -0.00000000000E+00  0.00000000000E+00  0.37849882256E+02  0.37849882256E+02  0.00000000000E+00 0. -1.
          2   -1    0    0  503    0  0.00000000000E+00 -0.00000000000E+00 -0.14189120586E+04  0.14189120586E+04  0.00000000000E+00 0.  1.
          6    2    1    2  503    0  0.73725643564E+01 -0.64733445516E+02 -0.11231851861E+04  0.11381635401E+04  0.17212352567E+03 0.  0.
         24    2    3    3    0    0 -0.50010527206E+01 -0.10233625622E+03 -0.10056755602E+04  0.10140761517E+04  0.80432513878E+02 0.  0.
         -6    2    1    2    0  501 -0.73725643564E+01  0.64733445516E+02 -0.25787699024E+03  0.31859840074E+03  0.17538422160E+03 0.  0.
        -24    2    5    5    0    0  0.15127965477E+02 -0.14879186098E+01 -0.22904479106E+03  0.24280309337E+03  0.79124942962E+02 0.  0.
          4    1    4    4  502    0 -0.73608754282E+01 -0.43251043126E+02 -0.76447749377E+03  0.76573538099E+03  0.00000000000E+00 0. -1.
         -3    1    4    4    0  502  0.23598227076E+01 -0.59085213095E+02 -0.24119806642E+03  0.24834077074E+03  0.00000000000E+00 0.  1.
          5    1    3    3  503    0  0.12373617077E+02  0.37602810705E+02 -0.11750962594E+03  0.12408738840E+03  0.47000000000E+01 0. -1.
         11    1    6    6    0    0 -0.67820014321E+01  0.24573743580E+02 -0.24205910096E+02  0.35153812034E+02  0.00000000000E+00 0. -1.
        -12    1    6    6    0    0  0.21909966909E+02 -0.26061662190E+02 -0.20483888097E+03  0.20764928134E+03  0.00000000000E+00 0.  1.
         -5    1    5    5    0  501 -0.22500529833E+02  0.66221364126E+02 -0.28832199178E+02  0.75795307367E+02  0.47000000000E+01 0.  1.
<mgrwt>
<rscale>  2 0.18556179E+03</rscale>
<asrwt>0</asrwt>
<pdfrwt beam="2">  1        2 0.21829416E+00 0.18556179E+03</pdfrwt>
<pdfrwt beam="1">  1       -2 0.58230589E-02 0.18556179E+03</pdfrwt>
<totfact> 0.23384212E+03</totfact>
</mgrwt>
</event>
<event>
12    1  0.5759937E-002  0.2720590E+03  0.7546771E-02  0.1100107E+00
         -1   -1    0    0    0  501 -0.00000000000E+00  0.00000000000E+00  0.49234951678E+02  0.49234951678E+02  0.00000000000E+00 0. -1.
          1   -1    0    0  503    0  0.00000000000E+00 -0.00000000000E+00 -0.16845772569E+04  0.16845772569E+04  0.00000000000E+00 0.  1.
          6    2    1    2  503    0 -0.11331377151E+03 -0.17630536372E+03 -0.53234259919E+03  0.59766894366E+03  0.17290439906E+03 0.  0.
         24    2    3    3    0    0 -0.28821450334E+02 -0.11888385830E+03 -0.42353514213E+03  0.44834602401E+03  0.81658391241E+02 0.  0.
         -6    2    1    2    0  501  0.11331377151E+03  0.17630536372E+03 -0.11029997061E+04  0.11361432650E+04  0.17403900374E+03 0.  0.
        -24    2    5    5    0    0  0.95638521220E+02  0.19227051284E+03 -0.81234986111E+03  0.84448126394E+03  0.84389759196E+02 0.  0.
          4    1    4    4  502    0 -0.17733030341E+02 -0.87702814685E+02 -0.16498668412E+03  0.18768817226E+03  0.00000000000E+00 0. -1.
         -3    1    4    4    0  502 -0.11088419993E+02 -0.31181043615E+02 -0.25854845801E+03  0.26065785175E+03  0.00000000000E+00 0.  1.
          5    1    3    3  503    0 -0.84492321175E+02 -0.57421505419E+02 -0.10880745706E+03  0.14932291965E+03  0.47000000000E+01 0. -1.
         13    1    6    6    0    0 -0.15052308729E+02  0.19090521536E+02 -0.65495417392E+02  0.69861790057E+02  0.00000000000E+00 0. -1.
        -14    1    6    6    0    0  0.11069082995E+03  0.17317999130E+03 -0.74685444372E+03  0.77461947389E+03  0.00000000000E+00 0.  1.
         -5    1    5    5    0  501  0.17675250289E+02 -0.15965149116E+02 -0.29064984496E+03  0.29166200101E+03  0.47000000000E+01 0.  1.
<mgrwt>
<rscale>  2 0.27205897E+03</rscale>
<asrwt>0</asrwt>
<pdfrwt beam="2">  1        1 0.25916575E+00 0.27205897E+03</pdfrwt>
<pdfrwt beam="1">  1       -1 0.75746074E-02 0.27205897E+03</pdfrwt>
<totfact> 0.50711851E+02</totfact>
</mgrwt>
</event>
<event>
12    1  0.5759937E-002  0.2227450E+03  0.7546771E-02  0.1131853E+00
          4   -1    0    0  503    0  0.00000000000E+00  0.00000000000E+00  0.98973102313E+02  0.98973102313E+02  0.00000000000E+00 0. -1.
         -4   -1    0    0    0  501 -0.00000000000E+00 -0.00000000000E+00 -0.50662072503E+03  0.50662072503E+03  0.00000000000E+00 0.  1.
          6    2    1    2  503    0  0.13923476209E+03 -0.18937984791E+02 -0.23449559851E+03  0.32315831015E+03  0.17233148711E+03 0.  0.
         24    2    3    3    0    0  0.14584121280E+03 -0.60707417222E+02 -0.16685870936E+03  0.24325105484E+03  0.79838567954E+02 0.  0.
         -6    2    1    2    0  501 -0.13923476209E+03  0.18937984791E+02 -0.17315202421E+03  0.28243551720E+03  0.17332983484E+03 0.  0.
        -24    2    5    5    0    0 -0.71323245726E+02  0.52608349939E+01 -0.20424403792E+01  0.97774697967E+02  0.66641115193E+02 0.  0.
          2    1    4    4  502    0  0.12573960115E+03 -0.21372501038E+02 -0.95532945078E+02  0.15935424279E+03  0.00000000000E+00 0. -1.
         -1    1    4    4    0  502  0.20101611650E+02 -0.39334916183E+02 -0.71325764279E+02  0.83896812050E+02  0.00000000000E+00 0.  1.
          5    1    3    3  503    0 -0.66064507068E+01  0.41769432431E+02 -0.67636889157E+02  0.79907255311E+02  0.47000000000E+01 0. -1.
         11    1    6    6    0    0 -0.48903296772E+02 -0.28757265054E+02  0.24582348727E+01  0.56785171016E+02  0.00000000000E+00 0. -1.
        -12    1    6    6    0    0 -0.22419948954E+02  0.34018100048E+02 -0.45006752520E+01  0.40989526952E+02  0.00000000000E+00 0.  1.
         -5    1    5    5    0  501 -0.67911516369E+02  0.13677149797E+02 -0.17110958383E+03  0.18466081923E+03  0.47000000000E+01 0.  1.
<mgrwt>
<rscale>  2 0.22274504E+03</rscale>
<asrwt>0</asrwt>
<pdfrwt beam="1">  1        4 0.15226631E-01 0.22274504E+03</pdfrwt>
<pdfrwt beam="2">  1       -4 0.77941650E-01 0.22274504E+03</pdfrwt>
<totfact> 0.99633381E+01</totfact>
</mgrwt>
</event>
<event>
12    1  0.5759937E-002  0.1805291E+03  0.7546771E-02  0.1167292E+00
          2   -1    0    0  503    0  0.00000000000E+00  0.00000000000E+00  0.10881535939E+03  0.10881535939E+03  0.00000000000E+00 0.  1.
         -2   -1    0    0    0  501 -0.00000000000E+00 -0.00000000000E+00 -0.38073236735E+03  0.38073236735E+03  0.00000000000E+00 0. -1.
          6    2    1    2  503    0  0.41926149810E+02 -0.45147984721E+01 -0.24956562750E+03  0.30856685729E+03  0.17650019135E+03 0.  0.
         24    2    3    3    0    0  0.86592745658E+02  0.34511647434E+02 -0.15155617931E+03  0.19391036947E+03  0.77088251319E+02 0.  0.
         -6    2    1    2    0  501 -0.41926149810E+02  0.45147984721E+01 -0.22351380456E+02  0.18098086946E+03  0.17457464151E+03 0.  0.
        -24    2    5    5    0    0  0.37448672234E+02  0.32705027415E+02 -0.20765812210E+02  0.96602818940E+02  0.80180195810E+02 0.  0.
          4    1    4    4  502    0  0.96994925414E+02  0.27657289941E+02 -0.15081167767E+03  0.18143071230E+03  0.00000000000E+00 0. -1.
         -3    1    4    4    0  502 -0.10402179756E+02  0.68543574932E+01 -0.74450163395E+00  0.12479657167E+02  0.00000000000E+00 0.  1.
          5    1    3    3  503    0 -0.44666595848E+02 -0.39026445906E+02 -0.98009448199E+02  0.11465648783E+03  0.47000000000E+01 0. -1.
         11    1    6    6    0    0  0.36099781395E+02  0.17583181801E+02 -0.49720090497E+02  0.63909701127E+02  0.00000000000E+00 0. -1.
        -12    1    6    6    0    0  0.13488908393E+01  0.15121845613E+02  0.28954278287E+02  0.32693117814E+02  0.00000000000E+00 0.  1.
         -5    1    5    5    0  501 -0.79374822044E+02 -0.28190228943E+02 -0.15855682461E+01  0.84378050517E+02  0.47000000000E+01 0.  1.
<mgrwt>
<rscale>  2 0.18052907E+03</rscale>
<asrwt>0</asrwt>
<pdfrwt beam="1">  1        2 0.16740825E-01 0.18052907E+03</pdfrwt>
<pdfrwt beam="2">  1       -2 0.58574210E-01 0.18052907E+03</pdfrwt>
<totfact> 0.94153384E+02</totfact>
</mgrwt>
</event>
<event>
12    1  0.5759937E-002  0.2112006E+03  0.7546771E-02  0.1140619E+00
          2   -1    0    0  503    0  0.00000000000E+00  0.00000000000E+00  0.18007201722E+03  0.18007201722E+03  0.00000000000E+00 0.  1.
         -2   -1    0    0    0  501 -0.00000000000E+00 -0.00000000000E+00 -0.24789617418E+03  0.24789617418E+03  0.00000000000E+00 0. -1.
          6    2    1    2  503    0  0.83691425765E+02 -0.82445500978E+02 -0.28615951111E+02  0.21489095067E+03  0.17764496234E+03 0.  0.
         24    2    3    3    0    0  0.80617631069E+02  0.14728746426E+02 -0.23068205221E+02  0.11739659157E+03  0.80831177214E+02 0.  0.
         -6    2    1    2    0  501 -0.83691425765E+02  0.82445500978E+02 -0.39208205849E+02  0.21307724072E+03  0.17338717291E+03 0.  0.
        -24    2    5    5    0    0 -0.16895709713E+02  0.10461584110E+02 -0.72651637793E+02  0.10923165771E+03  0.79109954008E+02 0.  0.
          2    1    4    4  502    0 -0.36742255579E+01 -0.20666048080E+01 -0.30812539256E+02  0.31099571771E+02  0.00000000000E+00 0. -1.
         -1    1    4    4    0  502  0.84291856627E+02  0.16795351234E+02  0.77443340360E+01  0.86297019800E+02  0.00000000000E+00 0.  1.
          5    1    3    3  503    0  0.30737946965E+01 -0.97174247404E+02 -0.55477458905E+01  0.97494359102E+02  0.47000000000E+01 0. -1.
         13    1    6    6    0    0 -0.48463801882E+02  0.78146077888E+01 -0.51454002634E+02  0.71114854811E+02  0.00000000000E+00 0. -1.
        -14    1    6    6    0    0  0.31568092169E+02  0.26469763214E+01 -0.21197635160E+02  0.38116802899E+02  0.00000000000E+00 0.  1.
         -5    1    5    5    0  501 -0.66795716052E+02  0.71983916868E+02  0.33443431944E+02  0.10384558301E+03  0.47000000000E+01 0.  1.
<mgrwt>
<rscale>  2 0.21120056E+03</rscale>
<asrwt>0</asrwt>
<pdfrwt beam="1">  1        2 0.27703387E-01 0.21120056E+03</pdfrwt>
<pdfrwt beam="2">  1       -2 0.38137873E-01 0.21120056E+03</pdfrwt>
<totfact> 0.12436703E+03</totfact>
</mgrwt>
</event>
<event>
12    1  0.5759937E-002  0.2258449E+03  0.7546771E-02  0.1129599E+00
         -2   -1    0    0    0  501 -0.00000000000E+00  0.00000000000E+00  0.28992551792E+02  0.28992551792E+02  0.00000000000E+00 0.  1.
          2   -1    0    0  503    0  0.00000000000E+00 -0.00000000000E+00 -0.18449953193E+04  0.18449953193E+04  0.00000000000E+00 0. -1.
          6    2    1    2  503    0  0.13744355546E+03 -0.51452832460E+02 -0.11060540364E+04  0.11286751606E+04  0.17033485187E+03 0.  0.
         24    2    3    3    0    0  0.11497777620E+03  0.23762479981E+02 -0.60448586409E+03  0.62097960620E+03  0.80174602918E+02 0.  0.
         -6    2    1    2    0  501 -0.13744355546E+03  0.51452832460E+02 -0.70994873115E+03  0.74531271056E+03  0.17299049323E+03 0.  0.
        -24    2    5    5    0    0 -0.27086003525E+02  0.59928350356E+02 -0.46268321822E+03  0.47436447277E+03  0.81368506456E+02 0.  0.
          2    1    4    4  502    0  0.11206531170E+03  0.44937762307E+02 -0.51966230754E+03  0.53350440527E+03  0.00000000000E+00 0. -1.
         -1    1    4    4    0  502  0.29124645038E+01 -0.21175282326E+02 -0.84823556559E+02  0.87475200934E+02  0.00000000000E+00 0.  1.
          5    1    3    3  503    0  0.22465779260E+02 -0.75215312441E+02 -0.50156817230E+03  0.50769555437E+03  0.47000000000E+01 0. -1.
         13    1    6    6    0    0 -0.38536692731E+02 -0.41587148477E+01 -0.20113888594E+03  0.20483950555E+03  0.00000000000E+00 0. -1.
        -14    1    6    6    0    0  0.11450689206E+02  0.64087065204E+02 -0.26154433228E+03  0.26952496722E+03  0.00000000000E+00 0.  1.
         -5    1    5    5    0  501 -0.11035755194E+03 -0.84755178962E+01 -0.24726551293E+03  0.27094823779E+03  0.47000000000E+01 0.  1.
<mgrwt>
<rscale>  2 0.22584491E+03</rscale>
<asrwt>0</asrwt>
<pdfrwt beam="2">  1        2 0.28384549E+00 0.22584491E+03</pdfrwt>
<pdfrwt beam="1">  1       -2 0.44603917E-02 0.22584491E+03</pdfrwt>
<totfact> 0.20924103E+03</totfact>
</mgrwt>
</event>
<event>
12    1  0.5759937E-002  0.3370063E+03  0.7546771E-02  0.1068078E+00
          1   -1    0    0  503    0  0.00000000000E+00  0.00000000000E+00  0.68484888008E+03  0.68484888008E+03  0.00000000000E+00 0.  1.
         -1   -1    0    0    0  501 -0.00000000000E+00 -0.00000000000E+00 -0.18217591742E+03  0.18217591742E+03  0.00000000000E+00 0. -1.
          6    2    1    2  503    0 -0.20125201387E+03  0.20825400963E+03  0.38112749261E+03  0.50871879619E+03  0.17223397562E+03 0.  0.
         24    2    3    3    0    0 -0.51224746858E+02  0.21130557602E+02  0.10616275796E+03  0.14382009456E+03  0.79644292119E+02 0.  0.
         -6    2    1    2    0  501  0.20125201387E+03 -0.20825400963E+03  0.12154547005E+03  0.35830600130E+03  0.17244646609E+03 0.  0.
        -24    2    5    5    0    0  0.14844273040E+03 -0.21663713025E+03  0.66184556963E+02  0.28119557510E+03  0.75654910369E+02 0.  0.
          4    1    4    4  502    0 -0.66512098370E+01 -0.10010672010E+02 -0.99521878358E+01  0.15604428509E+02  0.00000000000E+00 0. -1.
         -3    1    4    4    0  502 -0.44573537021E+02  0.31141229611E+02  0.11611494580E+03  0.12821566605E+03  0.00000000000E+00 0.  1.
          5    1    3    3  503    0 -0.15002726701E+03  0.18712345203E+03  0.27496473465E+03  0.36489870163E+03  0.47000000000E+01 0. -1.
         13    1    6    6    0    0  0.11450875098E+03 -0.11549763109E+03  0.16384293246E+02  0.16346376327E+03  0.00000000000E+00 0. -1.
        -14    1    6    6    0    0  0.33933979427E+02 -0.10113949916E+03  0.49800263718E+02  0.11773181183E+03  0.00000000000E+00 0.  1.
         -5    1    5    5    0  501  0.52809283466E+02  0.83831206210E+01  0.55360913083E+02  0.77110426202E+02  0.47000000000E+01 0.  1.
<mgrwt>
<rscale>  2 0.33700632E+03</rscale>
<asrwt>0</asrwt>
<pdfrwt beam="1">  1        1 0.10536136E+00 0.33700632E+03</pdfrwt>
<pdfrwt beam="2">  1       -1 0.28027065E-01 0.33700632E+03</pdfrwt>
<totfact> 0.33465836E+02</totfact>
</mgrwt>
</event>
<event>
12    1  0.5759937E-002  0.3767148E+03  0.7546771E-02  0.1052155E+00
          2   -1    0    0  503    0  0.00000000000E+00  0.00000000000E+00  0.13383480652E+04  0.13383480652E+04  0.00000000000E+00 0.  1.
         -2   -1    0    0    0  501 -0.00000000000E+00 -0.00000000000E+00 -0.13626744516E+03  0.13626744516E+03  0.00000000000E+00 0. -1.
          6    2    1    2  503    0  0.15724050356E+03  0.29631474098E+03  0.94957124774E+03  0.10219419943E+04  0.17364585632E+03 0.  0.
         24    2    3    3    0    0  0.10242978539E+03  0.13000132303E+03  0.64668543563E+03  0.67204733441E+03  0.77803355349E+02 0.  0.
         -6    2    1    2    0  501 -0.15724050356E+03 -0.29631474098E+03  0.25250937228E+03  0.45267351608E+03  0.16919021068E+03 0.  0.
        -24    2    5    5    0    0 -0.14630537473E+03 -0.19071778716E+03  0.11285816497E+03  0.27718892017E+03  0.79487074746E+02 0.  0.
          2    1    4    4  502    0  0.88643249639E+01  0.50545914303E+02  0.29800322268E+03  0.30238946152E+03  0.00000000000E+00 0. -1.
         -1    1    4    4    0  502  0.93565460430E+02  0.79455408728E+02  0.34868221295E+03  0.36965787289E+03  0.00000000000E+00 0.  1.
          5    1    3    3  503    0  0.54810718169E+02  0.16631341795E+03  0.30288581210E+03  0.34989465985E+03  0.47000000000E+01 0. -1.
         11    1    6    6    0    0 -0.14082365244E+03 -0.18827568469E+03  0.12304490488E+03  0.26536594196E+03  0.00000000000E+00 0. -1.
        -12    1    6    6    0    0 -0.54817222874E+01 -0.24421024630E+01 -0.10186739914E+02  0.11822978210E+02  0.00000000000E+00 0.  1.
         -5    1    5    5    0  501 -0.10935128836E+02 -0.10559695382E+03  0.13965120731E+03  0.17548459591E+03  0.47000000000E+01 0.  1.
<mgrwt>
<rscale>  2 0.37671481E+03</rscale>
<asrwt>0</asrwt>
<pdfrwt beam="1">  1        2 0.20589969E+00 0.37671481E+03</pdfrwt>
<pdfrwt beam="2">  1       -2 0.20964223E-01 0.37671481E+03</pdfrwt>
<totfact> 0.32143965E+02</totfact>
</mgrwt>
</event>
<event>
12    1  0.5759937E-002  0.2046817E+03  0.7546771E-02  0.1145848E+00
          2   -1    0    0  503    0  0.00000000000E+00  0.00000000000E+00  0.35257961125E+03  0.35257961125E+03  0.00000000000E+00 0. -1.
         -2   -1    0    0    0  501 -0.00000000000E+00 -0.00000000000E+00 -0.12751422794E+03  0.12751422794E+03  0.00000000000E+00 0.  1.
          6    2    1    2  503    0  0.10516981078E+03 -0.75601665600E+01  0.17492134819E+03  0.26883246125E+03  0.17480151301E+03 0.  0.
         24    2    3    3    0    0  0.15311341943E+02 -0.59022768126E+02  0.89323385839E+02  0.13440015508E+03  0.79791040095E+02 0.  0.
         -6    2    1    2    0  501 -0.10516981078E+03  0.75601665600E+01  0.50144035123E+02  0.21126137794E+03  0.17606561371E+03 0.  0.
        -24    2    5    5    0    0 -0.78419182352E+02 -0.42810574649E+02 -0.18688561006E+02  0.12174699931E+03  0.80565228640E+02 0.  0.
          2    1    4    4  502    0  0.38838567785E+02 -0.34887309740E+02  0.85901204315E+02  0.10052151825E+03  0.00000000000E+00 0. -1.
         -1    1    4    4    0  502 -0.23527225842E+02 -0.24135458386E+02  0.34221815235E+01  0.33878636834E+02  0.00000000000E+00 0.  1.
          5    1    3    3  503    0  0.89858468838E+02  0.51462601566E+02  0.85597962350E+02  0.13443230616E+03  0.47000000000E+01 0. -1.
         13    1    6    6    0    0 -0.17529004986E+02 -0.56033929392E+01  0.30117300266E+02  0.35294699369E+02  0.00000000000E+00 0. -1.
        -14    1    6    6    0    0 -0.60890177366E+02 -0.37207181710E+02 -0.48805861272E+02  0.86452299941E+02  0.00000000000E+00 0.  1.
         -5    1    5    5    0  501 -0.26750628429E+02  0.50370741209E+02  0.68832596129E+02  0.89514378628E+02  0.47000000000E+01 0.  1.
<mgrwt>
<rscale>  2 0.20468169E+03</rscale>
<asrwt>0</asrwt>
<pdfrwt beam="1">  1        2 0.54243017E-01 0.20468169E+03</pdfrwt>
<pdfrwt beam="2">  1       -2 0.19617574E-01 0.20468169E+03</pdfrwt>
<totfact> 0.19739859E+03</totfact>
</mgrwt>
</event>
<event>
12    1  0.5759937E-002  0.3591166E+03  0.7546771E-02  0.1058934E+00
         -2   -1    0    0    0  501 -0.00000000000E+00  0.00000000000E+00  0.99649853903E+02  0.99649853903E+02  0.00000000000E+00 0.  1.
          2   -1    0    0  503    0  0.00000000000E+00 -0.00000000000E+00 -0.12957471537E+04  0.12957471537E+04  0.00000000000E+00 0. -1.
          6    2    1    2  503    0  0.12017894902E+03  0.29071553210E+03 -0.62298988502E+03  0.71928902575E+03  0.17407413744E+03 0.  0.
         24    2    3    3    0    0  0.99076244050E+02  0.28967434291E+03 -0.62093105188E+03  0.69754650919E+03  0.85372327058E+02 0.  0.
         -6    2    1    2    0  501 -0.12017894902E+03 -0.29071553210E+03 -0.57310741475E+03  0.67610798183E+03  0.17236993316E+03 0.  0.
        -24    2    5    5    0    0 -0.30796436741E+02 -0.43953360628E+02 -0.15172578654E+03  0.17965519519E+03  0.79843324265E+02 0.  0.
          2    1    4    4  502    0  0.72267924705E+01  0.12112836703E+03 -0.29974092860E+03  0.32337119864E+03  0.00000000000E+00 0. -1.
         -1    1    4    4    0  502  0.91849451579E+02  0.16854597588E+03 -0.32119012328E+03  0.37417531056E+03  0.00000000000E+00 0.  1.
          5    1    3    3  503    0  0.21102704972E+02  0.10411891951E+01 -0.20588331415E+01  0.21742516551E+02  0.47000000000E+01 0. -1.
         11    1    6    6    0    0 -0.41264843991E+02 -0.54554636830E+02 -0.14974079977E+03  0.16462473345E+03  0.00000000000E+00 0. -1.
        -12    1    6    6    0    0  0.10468407250E+02  0.10601276202E+02 -0.19849867734E+01  0.15030461734E+02  0.00000000000E+00 0.  1.
         -5    1    5    5    0  501 -0.89382512280E+02 -0.24676217148E+03 -0.42138162820E+03  0.49645278664E+03  0.47000000000E+01 0.  1.
<mgrwt>
<rscale>  2 0.35911664E+03</rscale>
<asrwt>0</asrwt>
<pdfrwt beam="2">  1        2 0.19934571E+00 0.35911664E+03</pdfrwt>
<pdfrwt beam="1">  1       -2 0.15330747E-01 0.35911664E+03</pdfrwt>
<totfact> 0.57994774E+02</totfact>
</mgrwt>
</event>
<event>
12    1  0.5759937E-002  0.2333216E+03  0.7546771E-02  0.1124323E+00
         -2   -1    0    0    0  501 -0.00000000000E+00  0.00000000000E+00  0.35012835374E+02  0.35012835374E+02  0.00000000000E+00 0. -1.
          2   -1    0    0  503    0  0.00000000000E+00 -0.00000000000E+00 -0.17994627669E+04  0.17994627669E+04  0.00000000000E+00 0.  1.
          6    2    1    2  503    0 -0.15073005078E+03 -0.54564773367E+02 -0.53633999167E+03  0.58394730487E+03  0.16624381344E+03 0.  0.
         24    2    3    3    0    0 -0.61893969782E+02  0.20547132126E+02 -0.18107338859E+03  0.21008891337E+03  0.84242099523E+02 0.  0.
         -6    2    1    2    0  501  0.15073005078E+03  0.54564773367E+02 -0.12281099398E+04  0.12505282974E+04  0.17282978772E+03 0.  0.
        -24    2    5    5    0    0  0.78862449158E+02 -0.23610289274E+02 -0.84981859662E+03  0.85758717847E+03  0.80544334758E+02 0.  0.
          4    1    4    4  502    0 -0.34028763439E+02  0.29077374364E+02 -0.24899643434E+02  0.51219553729E+02  0.00000000000E+00 0. -1.
         -3    1    4    4    0  502 -0.27865206343E+02 -0.85302422373E+01 -0.15617374515E+03  0.15886935964E+03  0.00000000000E+00 0.  1.
          5    1    3    3  503    0 -0.88836080994E+02 -0.75111905493E+02 -0.35526660308E+03  0.37385839150E+03  0.47000000000E+01 0. -1.
         11    1    6    6    0    0 -0.12292029390E+02  0.11688215186E+02 -0.15525020249E+03  0.15617404949E+03  0.00000000000E+00 0. -1.
        -12    1    6    6    0    0  0.91154478548E+02 -0.35298504460E+02 -0.69456839412E+03  0.70141312897E+03  0.00000000000E+00 0.  1.
         -5    1    5    5    0  501  0.71867601618E+02  0.78175062641E+02 -0.37829134322E+03  0.39294111892E+03  0.47000000000E+01 0.  1.
<mgrwt>
<rscale>  2 0.23332163E+03</rscale>
<asrwt>0</asrwt>
<pdfrwt beam="2">  1        2 0.27684039E+00 0.23332163E+03</pdfrwt>
<pdfrwt beam="1">  1       -2 0.53865907E-02 0.23332163E+03</pdfrwt>
<totfact> 0.16585992E+03</totfact>
</mgrwt>
</event>
<event>
12    1  0.5759937E-002  0.1999915E+03  0.7546771E-02  0.1149746E+00
          2   -1    0    0  503    0  0.00000000000E+00  0.00000000000E+00  0.34401239315E+03  0.34401239315E+03  0.00000000000E+00 0. -1.
         -2   -1    0    0    0  501 -0.00000000000E+00 -0.00000000000E+00 -0.13394725250E+03  0.13394725250E+03  0.00000000000E+00 0.  1.
          6    2    1    2  503    0 -0.93193178077E+02  0.38959305753E+02  0.18184725663E+02  0.20077484678E+03  0.17256030514E+03 0.  0.
         24    2    3    3    0    0 -0.52833206770E+01 -0.26854455990E+02 -0.17851786237E+02  0.85101537621E+02  0.78578051323E+02 0.  0.
         -6    2    1    2    0  501  0.93193178077E+02 -0.38959305753E+02  0.19188041498E+03  0.27718479886E+03  0.17265724173E+03 0.  0.
        -24    2    5    5    0    0 -0.97848933336E+01 -0.35800003394E+01  0.40398234513E+02  0.90569902775E+02  0.80388614846E+02 0.  0.
          4    1    4    4  502    0 -0.32271160857E+02 -0.28445434016E+02  0.12164747941E+02  0.44705163369E+02  0.00000000000E+00 0. -1.
         -3    1    4    4    0  502  0.26987840180E+02  0.15909780263E+01 -0.30016534178E+02  0.40396374252E+02  0.00000000000E+00 0.  1.
          5    1    3    3  503    0 -0.87909857400E+02  0.65813761743E+02  0.36036511901E+02  0.11567330916E+03  0.47000000000E+01 0. -1.
         13    1    6    6    0    0  0.63752296419E+01 -0.19354078698E+02  0.58296140264E+02  0.61754869322E+02  0.00000000000E+00 0. -1.
        -14    1    6    6    0    0 -0.16160122976E+02  0.15774078358E+02 -0.17897905751E+02  0.28815033453E+02  0.00000000000E+00 0.  1.
         -5    1    5    5    0  501  0.10297807141E+03 -0.35379305414E+02  0.15148218047E+03  0.18661489609E+03  0.47000000000E+01 0.  1.
<mgrwt>
<rscale>  2 0.19999146E+03</rscale>
<asrwt>0</asrwt>
<pdfrwt beam="1">  1        2 0.52924983E-01 0.19999146E+03</pdfrwt>
<pdfrwt beam="2">  1       -2 0.20607270E-01 0.19999146E+03</pdfrwt>
<totfact> 0.18623570E+03</totfact>
</mgrwt>
</event>
<event>
12    1  0.5759937E-002  0.1757516E+03  0.7546771E-02  0.1171979E+00
          2   -1    0    0  503    0  0.00000000000E+00  0.00000000000E+00  0.69923055403E+03  0.69923055403E+03  0.00000000000E+00 0.  1.
         -2   -1    0    0    0  501 -0.00000000000E+00 -0.00000000000E+00 -0.44184849773E+02  0.44184849773E+02  0.00000000000E+00 0. -1.
          6    2    1    2  503    0 -0.25024288456E+02 -0.28250953185E+02  0.32356812259E+03  0.36856258195E+03  0.17238826958E+03 0.  0.
         24    2    3    3    0    0 -0.29758563965E+02  0.36124594843E+02  0.77401823897E+02  0.11403053846E+03  0.69436034435E+02 0.  0.
         -6    2    1    2    0  501  0.25024288456E+02  0.28250953185E+02  0.33147758167E+03  0.37485282186E+03  0.17091787366E+03 0.  0.
        -24    2    5    5    0    0  0.14446618075E+02 -0.12965059323E+02  0.63039903075E+02  0.10302286750E+03  0.79138387085E+02 0.  0.
          4    1    4    4  502    0 -0.66663487043E+01  0.32823878988E+02  0.31910219791E+00  0.33495508103E+02  0.00000000000E+00 0. -1.
         -3    1    4    4    0  502 -0.23092215261E+02  0.33007158546E+01  0.77082721699E+02  0.80535030361E+02  0.00000000000E+00 0.  1.
          5    1    3    3  503    0  0.47342755092E+01 -0.64375548027E+02  0.24616629869E+03  0.25453204348E+03  0.47000000000E+01 0. -1.
         13    1    6    6    0    0  0.37662616620E+02  0.10994095442E+02  0.56876738495E+02  0.69096354514E+02  0.00000000000E+00 0. -1.
        -14    1    6    6    0    0 -0.23215998545E+02 -0.23959154765E+02  0.61631645799E+01  0.33926512983E+02  0.00000000000E+00 0.  1.
         -5    1    5    5    0  501  0.10577670381E+02  0.41216012508E+02  0.26843767860E+03  0.27182995436E+03  0.47000000000E+01 0.  1.
<mgrwt>
<rscale>  2 0.17575158E+03</rscale>
<asrwt>0</asrwt>
<pdfrwt beam="1">  1        2 0.10757392E+00 0.17575158E+03</pdfrwt>
<pdfrwt beam="2">  1       -2 0.67976697E-02 0.17575158E+03</pdfrwt>
<totfact> 0.50221377E+03</totfact>
</mgrwt>
</event>
<event>
12    1  0.5759937E-002  0.2079829E+03  0.7546771E-02  0.1143173E+00
          2   -1    0    0  503    0  0.00000000000E+00  0.00000000000E+00  0.17995974052E+04  0.17995974052E+04  0.00000000000E+00 0. -1.
         -2   -1    0    0    0  501 -0.00000000000E+00 -0.00000000000E+00 -0.48768001536E+02  0.48768001536E+02  0.00000000000E+00 0.  1.
          6    2    1    2  503    0 -0.10476739855E+03 -0.46385507308E+02  0.15331357283E+04  0.15471523196E+04  0.17334161448E+03 0.  0.
         24    2    3    3    0    0 -0.43277954190E+02 -0.91212534989E+02  0.84869219062E+03  0.85847571874E+03  0.80680960571E+02 0.  0.
         -6    2    1    2    0  501  0.10476739855E+03  0.46385507308E+02  0.21769367530E+03  0.30121308716E+03  0.17381301597E+03 0.  0.
        -24    2    5    5    0    0  0.52176003372E+02  0.93029338006E+02  0.16320528857E+03  0.21214807676E+03  0.83630420281E+02 0.  0.
          2    1    4    4  502    0 -0.28806517161E+02 -0.74399102599E+02  0.80965048379E+03  0.81357172259E+03  0.00000000000E+00 0. -1.
         -1    1    4    4    0  502 -0.14471437029E+02 -0.16813432390E+02  0.39041706826E+02  0.44903996151E+02  0.00000000000E+00 0.  1.
          5    1    3    3  503    0 -0.61489444363E+02  0.44827027681E+02  0.68444353773E+03  0.68867660082E+03  0.47000000000E+01 0. -1.
         11    1    6    6    0    0  0.31977680625E+02  0.30115913219E+01  0.86159032410E+02  0.91951185997E+02  0.00000000000E+00 0. -1.
        -12    1    6    6    0    0  0.20198322747E+02  0.90017746684E+02  0.77046256159E+02  0.12019689076E+03  0.00000000000E+00 0.  1.
         -5    1    5    5    0  501  0.52591395181E+02 -0.46643830698E+02  0.54488386734E+02  0.89065010403E+02  0.47000000000E+01 0.  1.
<mgrwt>
<rscale>  2 0.20798290E+03</rscale>
<asrwt>0</asrwt>
<pdfrwt beam="1">  1        2 0.27686109E+00 0.20798290E+03</pdfrwt>
<pdfrwt beam="2">  1       -2 0.75027708E-02 0.20798290E+03</pdfrwt>
<totfact> 0.99815117E+02</totfact>
</mgrwt>
</event>
<event>
12    1  0.5759937E-002  0.1878439E+03  0.7546771E-02  0.1160420E+00
          2   -1    0    0  503    0  0.00000000000E+00  0.00000000000E+00  0.41130965621E+03  0.41130965621E+03  0.00000000000E+00 0. -1.
         -2   -1    0    0    0  501 -0.00000000000E+00 -0.00000000000E+00 -0.12617002740E+03  0.12617002740E+03  0.00000000000E+00 0.  1.
          6    2    1    2  503    0  0.70724316449E+02  0.11617527284E+02  0.29476829169E+03  0.34970252852E+03  0.17397303467E+03 0.  0.
         24    2    3    3    0    0  0.53835263352E+02 -0.61686673473E+02  0.15641648987E+03  0.19215235546E+03  0.75848059595E+02 0.  0.
         -6    2    1    2    0  501 -0.70724316449E+02 -0.11617527284E+02 -0.96286628857E+01  0.18777715509E+03  0.17329354560E+03 0.  0.
        -24    2    5    5    0    0 -0.86989517245E+02 -0.55067214146E+02  0.19524604127E+02  0.13278229148E+03  0.81549693937E+02 0.  0.
          4    1    4    4  502    0 -0.33957279548E+01 -0.71143392535E+01  0.85712258020E+02  0.86074014466E+02  0.00000000000E+00 0. -1.
         -3    1    4    4    0  502  0.57230991307E+02 -0.54572334220E+02  0.70704231845E+02  0.10607834100E+03  0.00000000000E+00 0.  1.
          5    1    3    3  503    0  0.16889053097E+02  0.73304200757E+02  0.13835180182E+03  0.15755017306E+03  0.47000000000E+01 0. -1.
         11    1    6    6    0    0 -0.48472328204E+02  0.17318489541E+01  0.38108537570E+02  0.61683276000E+02  0.00000000000E+00 0. -1.
        -12    1    6    6    0    0 -0.38517189041E+02 -0.56799063100E+02 -0.18583933443E+02  0.71099015484E+02  0.00000000000E+00 0.  1.
         -5    1    5    5    0  501  0.16265200796E+02  0.43449686862E+02 -0.29153267013E+02  0.54994863604E+02  0.47000000000E+01 0.  1.
<mgrwt>
<rscale>  2 0.18784391E+03</rscale>
<asrwt>0</asrwt>
<pdfrwt beam="1">  1        2 0.63278408E-01 0.18784391E+03</pdfrwt>
<pdfrwt beam="2">  1       -2 0.19410774E-01 0.18784391E+03</pdfrwt>
<totfact> 0.16982991E+03</totfact>
</mgrwt>
</event>
<event>
12    1  0.5759937E-002  0.1886463E+03  0.7546771E-02  0.1159688E+00
          2   -1    0    0  503    0  0.00000000000E+00  0.00000000000E+00  0.93770084998E+03  0.93770084998E+03  0.00000000000E+00 0.  1.
         -2   -1    0    0    0  501 -0.00000000000E+00 -0.00000000000E+00 -0.38030461456E+02  0.38030461456E+02  0.00000000000E+00 0. -1.
          6    2    1    2  503    0  0.69787356627E+02  0.19789194361E+02  0.43317903537E+03  0.47330224430E+03  0.17637757911E+03 0.  0.
         24    2    3    3    0    0  0.96373486654E+02 -0.31983825197E+02  0.25909332054E+03  0.28968526803E+03  0.80482245009E+02 0.  0.
         -6    2    1    2    0  501 -0.69787356627E+02 -0.19789194361E+02  0.46649135315E+03  0.50242906714E+03  0.17192701237E+03 0.  0.
        -24    2    5    5    0    0 -0.17634852476E+02 -0.34783240744E+02  0.11186380966E+03  0.14364293346E+03  0.81233727992E+02 0.  0.
          2    1    4    4  502    0  0.96851937248E+02 -0.23100039969E+01  0.22172184635E+03  0.24196324311E+03  0.00000000000E+00 0. -1.
         -1    1    4    4    0  502 -0.47845059425E+00 -0.29673821200E+02  0.37371474198E+02  0.47722024929E+02  0.00000000000E+00 0.  1.
          5    1    3    3  503    0 -0.26586130028E+02  0.51773019558E+02  0.17408571483E+03  0.18361697626E+03  0.47000000000E+01 0. -1.
         11    1    6    6    0    0 -0.47998979310E+01  0.25260355754E+02  0.17649016286E+02  0.31186733860E+02  0.00000000000E+00 0. -1.
        -12    1    6    6    0    0 -0.12834954545E+02 -0.60043596498E+02  0.94214793370E+02  0.11245619960E+03  0.00000000000E+00 0.  1.
         -5    1    5    5    0  501 -0.52152504150E+02  0.14994046383E+02  0.35462754349E+03  0.35878613368E+03  0.47000000000E+01 0.  1.
<mgrwt>
<rscale>  2 0.18864629E+03</rscale>
<asrwt>0</asrwt>
<pdfrwt beam="1">  1        2 0.14426165E+00 0.18864629E+03</pdfrwt>
<pdfrwt beam="2">  1       -2 0.58508409E-02 0.18864629E+03</pdfrwt>
<totfact> 0.43664160E+03</totfact>
</mgrwt>
</event>
<event>
12    1  0.5759937E-002  0.2264130E+03  0.7546771E-02  0.1129190E+00
         -2   -1    0    0    0  501 -0.00000000000E+00  0.00000000000E+00  0.22741426362E+03  0.22741426362E+03  0.00000000000E+00 0. -1.
          2   -1    0    0  503    0  0.00000000000E+00 -0.00000000000E+00 -0.22588124472E+03  0.22588124472E+03  0.00000000000E+00 0.  1.
          6    2    1    2  503    0  0.21646475689E+02  0.14333076989E+03  0.11045766113E+02  0.22704909475E+03  0.17440471029E+03 0.  0.
         24    2    3    3    0    0 -0.45966333464E+02  0.52303202480E+02  0.33650472987E+02  0.11133145235E+03  0.80086260667E+02 0.  0.
         -6    2    1    2    0  501 -0.21646475689E+02 -0.14333076989E+03 -0.95127472092E+01  0.22624641359E+03  0.17344932343E+03 0.  0.
        -24    2    5    5    0    0 -0.36005462134E+02 -0.10831409530E+03  0.60970611059E+02  0.14610689910E+03  0.67834165481E+02 0.  0.
          2    1    4    4  502    0 -0.29140936673E+02  0.43747713595E+02  0.59455324776E+02  0.79359890872E+02  0.00000000000E+00 0. -1.
         -1    1    4    4    0  502 -0.16825396791E+02  0.85554888849E+01 -0.25804851790E+02  0.31971561475E+02  0.00000000000E+00 0.  1.
          5    1    3    3  503    0  0.67612809153E+02  0.91027567413E+02 -0.22604706874E+02  0.11571764240E+03  0.47000000000E+01 0. -1.
         13    1    6    6    0    0 -0.55260535547E+02 -0.69330315058E+02  0.47537112247E+02  0.10059918695E+03  0.00000000000E+00 0. -1.
        -14    1    6    6    0    0  0.19255073413E+02 -0.38983780243E+02  0.13433498812E+02  0.45507712143E+02  0.00000000000E+00 0.  1.
         -5    1    5    5    0  501  0.14358986446E+02 -0.35016674593E+02 -0.70483358268E+02  0.80139514498E+02  0.47000000000E+01 0.  1.
<mgrwt>
<rscale>  2 0.22641300E+03</rscale>
<asrwt>0</asrwt>
<pdfrwt beam="2">  1        2 0.34750961E-01 0.22641300E+03</pdfrwt>
<pdfrwt beam="1">  1       -2 0.34986810E-01 0.22641300E+03</pdfrwt>
<totfact> 0.11425267E+03</totfact>
</mgrwt>
</event>
<event>
12    1  0.5759937E-002  0.2804338E+03  0.7546771E-02  0.1095452E+00
          1   -1    0    0  503    0  0.00000000000E+00  0.00000000000E+00  0.11146817269E+04  0.11146817269E+04  0.00000000000E+00 0. -1.
         -1   -1    0    0    0  501 -0.00000000000E+00 -0.00000000000E+00 -0.85184635376E+02  0.85184635376E+02  0.00000000000E+00 0.  1.
          6    2    1    2  503    0 -0.72853848195E+02 -0.20964146806E+03  0.76336408487E+03  0.81323819060E+03  0.17138961538E+03 0.  0.
         24    2    3    3    0    0 -0.35042656073E+02 -0.87989393440E+02  0.19524693047E+03  0.23099416562E+03  0.79163246453E+02 0.  0.
         -6    2    1    2    0  501  0.72853848195E+02  0.20964146806E+03  0.26613300662E+03  0.38662817164E+03  0.17145651800E+03 0.  0.
        -24    2    5    5    0    0  0.64516597275E+02  0.23306716153E+03  0.24690348868E+03  0.35484551556E+03  0.80444478257E+02 0.  0.
          4    1    4    4  502    0 -0.37013576822E+02 -0.19117034809E+01  0.51858559698E+02  0.63741428391E+02  0.00000000000E+00 0. -1.
         -3    1    4    4    0  502  0.19709207491E+01 -0.86077689959E+02  0.14338837077E+03  0.16725273723E+03  0.00000000000E+00 0.  1.
          5    1    3    3  503    0 -0.37811192121E+02 -0.12165207462E+03  0.56811715440E+03  0.58224402499E+03  0.47000000000E+01 0. -1.
         13    1    6    6    0    0  0.17879899139E+02  0.18930649414E+03  0.17251148046E+03  0.25674277089E+03  0.00000000000E+00 0. -1.
        -14    1    6    6    0    0  0.46636698136E+02  0.43760667392E+02  0.74392008222E+02  0.98102744666E+02  0.00000000000E+00 0.  1.
         -5    1    5    5    0  501  0.83372509197E+01 -0.23425693469E+02  0.19229517942E+02  0.31782656083E+02  0.47000000000E+01 0.  1.
<mgrwt>
<rscale>  2 0.28043376E+03</rscale>
<asrwt>0</asrwt>
<pdfrwt beam="1">  1        1 0.17148949E+00 0.28043376E+03</pdfrwt>
<pdfrwt beam="2">  1       -1 0.13105329E-01 0.28043376E+03</pdfrwt>
<totfact> 0.52635883E+02</totfact>
</mgrwt>
</event>
<event>
12    1  0.5759937E-002  0.2290036E+03  0.7546771E-02  0.1127343E+00
         -2   -1    0    0    0  501 -0.00000000000E+00  0.00000000000E+00  0.24010340454E+02  0.24010340454E+02  0.00000000000E+00 0. -1.
          2   -1    0    0  503    0  0.00000000000E+00 -0.00000000000E+00 -0.32107557813E+04  0.32107557813E+04  0.00000000000E+00 0.  1.
          6    2    1    2  503    0  0.17086448328E+02 -0.14825605487E+03 -0.68014385156E+03  0.71775068428E+03  0.17406487713E+03 0.  0.
         24    2    3    3    0    0 -0.32532448758E+02 -0.71877673497E+02 -0.52900280468E+03  0.54122477077E+03  0.82798097593E+02 0.  0.
         -6    2    1    2    0  501 -0.17086448328E+02  0.14825605487E+03 -0.25066015893E+04  0.25170154375E+04  0.17333026436E+03 0.  0.
        -24    2    5    5    0    0 -0.12926761330E+02  0.11025195648E+02 -0.64245196452E+03  0.64781092077E+03  0.81399055678E+02 0.  0.
          2    1    4    4  502    0 -0.14107164269E+02 -0.63747584124E+02 -0.17719106480E+03  0.18883707265E+03  0.00000000000E+00 0. -1.
         -1    1    4    4    0  502 -0.18425284489E+02 -0.81300893726E+01 -0.35181173989E+03  0.35238769812E+03  0.00000000000E+00 0.  1.
          5    1    3    3  503    0  0.49618897086E+02 -0.76378381371E+02 -0.15114104687E+03  0.17652591350E+03  0.47000000000E+01 0. -1.
         13    1    6    6    0    0 -0.10665256823E+02  0.21854454236E+02 -0.53638946916E+02  0.58893985256E+02  0.00000000000E+00 0. -1.
        -14    1    6    6    0    0 -0.22615045071E+01 -0.10829258589E+02 -0.58881301760E+03  0.58891693552E+03  0.00000000000E+00 0.  1.
         -5    1    5    5    0  501 -0.41596869988E+01  0.13723085922E+03 -0.18641496248E+04  0.18692045167E+04  0.47000000000E+01 0.  1.
<mgrwt>
<rscale>  2 0.22900356E+03</rscale>
<asrwt>0</asrwt>
<pdfrwt beam="2">  1        2 0.49396250E+00 0.22900356E+03</pdfrwt>
<pdfrwt beam="1">  1       -2 0.36938980E-02 0.22900356E+03</pdfrwt>
<totfact> 0.48695697E+02</totfact>
</mgrwt>
</event>
<event>
12    1  0.5759937E-002  0.1757520E+03  0.7546771E-02  0.1171979E+00
          1   -1    0    0  503    0  0.00000000000E+00  0.00000000000E+00  0.88312248391E+03  0.88312248391E+03  0.00000000000E+00 0.  1.
         -1   -1    0    0    0  501 -0.00000000000E+00 -0.00000000000E+00 -0.35030323432E+02  0.35030323432E+02  0.00000000000E+00 0. -1.
          6    2    1    2  503    0 -0.28908630321E+02 -0.12508325357E+02  0.40627609356E+03  0.44269114451E+03  0.17298271047E+03 0.  0.
         24    2    3    3    0    0 -0.62636125492E+02  0.21861719053E+02  0.36333601155E+03  0.37800123397E+03  0.80440391694E+02 0.  0.
         -6    2    1    2    0  501  0.28908630321E+02  0.12508325357E+02  0.44181606693E+03  0.47546166284E+03  0.17282994162E+03 0.  0.
        -24    2    5    5    0    0 -0.23892881000E+01  0.72109011196E+02  0.28751152456E+03  0.30704615510E+03  0.80056520132E+02 0.  0.
          4    1    4    4  502    0 -0.44916594724E+02  0.35202279841E+02  0.11211800306E+03  0.12580599190E+03  0.00000000000E+00 0. -1.
         -3    1    4    4    0  502 -0.17719530768E+02 -0.13340560787E+02  0.25121800848E+03  0.25219524206E+03  0.00000000000E+00 0.  1.
          5    1    3    3  503    0  0.33727495171E+02 -0.34370044411E+02  0.42940082009E+02  0.64689910545E+02  0.47000000000E+01 0. -1.
         13    1    6    6    0    0  0.16532862884E+02  0.40131534852E+01  0.81151763436E+01  0.18849324739E+02  0.00000000000E+00 0. -1.
        -14    1    6    6    0    0 -0.18922150984E+02  0.68095857710E+02  0.27939634821E+03  0.28819683036E+03  0.00000000000E+00 0.  1.
         -5    1    5    5    0  501  0.31297918421E+02 -0.59600685839E+02  0.15430454237E+03  0.16841550773E+03  0.47000000000E+01 0.  1.
<mgrwt>
<rscale>  2 0.17575198E+03</rscale>
<asrwt>0</asrwt>
<pdfrwt beam="1">  1        1 0.13586498E+00 0.17575198E+03</pdfrwt>
<pdfrwt beam="2">  1       -1 0.53892812E-02 0.17575198E+03</pdfrwt>
<totfact> 0.30623170E+03</totfact>
</mgrwt>
</event>
<event>
12    1  0.5759937E-002  0.1889480E+03  0.7546771E-02  0.1159414E+00
         -1   -1    0    0    0  501 -0.00000000000E+00  0.00000000000E+00  0.94185961501E+03  0.94185961501E+03  0.00000000000E+00 0. -1.
          1   -1    0    0  503    0  0.00000000000E+00 -0.00000000000E+00 -0.17754641212E+03  0.17754641212E+03  0.00000000000E+00 0.  1.
          6    2    1    2  503    0 -0.45357402151E+02 -0.58779469948E+02  0.87885799002E+03  0.89910097887E+03  0.17458202532E+03 0.  0.
         24    2    3    3    0    0  0.79499456923E+01 -0.60223737848E+02  0.78288453882E+03  0.78920669977E+03  0.79050070207E+02 0.  0.
         -6    2    1    2    0  501  0.45357402151E+02  0.58779469948E+02 -0.11454478714E+03  0.22030504826E+03  0.17292046151E+03 0.  0.
        -24    2    5    5    0    0  0.41621132047E+02  0.58132141362E+02 -0.58770346973E+01  0.11146962586E+03  0.85318658333E+02 0.  0.
          2    1    4    4  502    0  0.17830706158E+02 -0.26802845564E+02  0.67636864297E+03  0.67713430559E+03  0.00000000000E+00 0. -1.
         -1    1    4    4    0  502 -0.98807604661E+01 -0.33420892284E+02  0.10651589585E+03  0.11207239418E+03  0.00000000000E+00 0.  1.
          5    1    3    3  503    0 -0.53307347844E+02  0.14442678998E+01  0.95973451196E+02  0.10989427910E+03  0.47000000000E+01 0. -1.
         11    1    6    6    0    0  0.32087707389E+00 -0.57410657719E+01  0.27725433691E+02  0.28315410497E+02  0.00000000000E+00 0. -1.
        -12    1    6    6    0    0  0.41300254973E+02  0.63873207134E+02 -0.33602468388E+02  0.83154215361E+02  0.00000000000E+00 0.  1.
         -5    1    5    5    0  501  0.37362701040E+01  0.64732858579E+00 -0.10866775244E+03  0.10883542240E+03  0.47000000000E+01 0.  1.
<mgrwt>
<rscale>  2 0.18894798E+03</rscale>
<asrwt>0</asrwt>
<pdfrwt beam="2">  1        1 0.27314833E-01 0.18894798E+03</pdfrwt>
<pdfrwt beam="1">  1       -1 0.14490148E+00 0.18894798E+03</pdfrwt>
<totfact> 0.72393449E+01</totfact>
</mgrwt>
</event>
<event>
12    1  0.5759937E-002  0.1761479E+03  0.7546771E-02  0.1171584E+00
          2   -1    0    0  503    0  0.00000000000E+00  0.00000000000E+00  0.63950689116E+03  0.63950689116E+03  0.00000000000E+00 0. -1.
         -2   -1    0    0    0  501 -0.00000000000E+00 -0.00000000000E+00 -0.52856287982E+02  0.52856287982E+02  0.00000000000E+00 0.  1.
          6    2    1    2  503    0 -0.14390650802E+02  0.17253209467E+02  0.19587595359E+03  0.26417572256E+03  0.17583133716E+03 0.  0.
         24    2    3    3    0    0 -0.30757776173E+02  0.70613461798E+02  0.87119258543E+02  0.14184294674E+03  0.81224100788E+02 0.  0.
         -6    2    1    2    0  501  0.14390650802E+02 -0.17253209467E+02  0.39077464958E+03  0.42818745658E+03  0.17359408731E+03 0.  0.
        -24    2    5    5    0    0  0.46164884043E+02  0.25945143790E+02  0.34368802501E+03  0.35666864901E+03  0.79288836841E+02 0.  0.
          2    1    4    4  502    0  0.50989390704E+01  0.57638689278E+02  0.86050200794E+02  0.10369597262E+03  0.00000000000E+00 0. -1.
         -1    1    4    4    0  502 -0.35856715243E+02  0.12974772519E+02  0.10690577493E+01  0.38146974119E+02  0.00000000000E+00 0.  1.
          5    1    3    3  503    0  0.16367125371E+02 -0.53360252331E+02  0.10875669505E+03  0.12233277582E+03  0.47000000000E+01 0. -1.
         11    1    6    6    0    0  0.32494885388E+02  0.25589186793E+02  0.33999848020E+03  0.34250502273E+03  0.00000000000E+00 0. -1.
        -12    1    6    6    0    0  0.13669998655E+02  0.35595699729E+00  0.36895448138E+01  0.14163626286E+02  0.00000000000E+00 0.  1.
         -5    1    5    5    0  501 -0.31774233241E+02 -0.43198353257E+02  0.47086624575E+02  0.71518807569E+02  0.47000000000E+01 0.  1.
<mgrwt>
<rscale>  2 0.17614791E+03</rscale>
<asrwt>0</asrwt>
<pdfrwt beam="1">  1        2 0.98385671E-01 0.17614791E+03</pdfrwt>
<pdfrwt beam="2">  1       -2 0.81317370E-02 0.17614791E+03</pdfrwt>
<totfact> 0.42312857E+03</totfact>
</mgrwt>
</event>
<event>
12    1  0.5759937E-002  0.2668616E+03  0.7546771E-02  0.1103089E+00
          2   -1    0    0  503    0  0.00000000000E+00  0.00000000000E+00  0.26055005221E+04  0.26055005221E+04  0.00000000000E+00 0.  1.
         -2   -1    0    0    0  501 -0.00000000000E+00 -0.00000000000E+00 -0.43851871643E+02  0.43851871643E+02  0.00000000000E+00 0. -1.
          6    2    1    2  503    0  0.48170096621E+01 -0.20243593549E+03  0.20952588531E+04  0.21122440065E+04  0.17453243125E+03 0.  0.
         24    2    3    3    0    0 -0.35802468538E+02 -0.18907737093E+03  0.13768774018E+04  0.13925757545E+04  0.80273180079E+02 0.  0.
         -6    2    1    2    0  501 -0.48170096621E+01  0.20243593549E+03  0.46638979736E+03  0.53710838734E+03  0.17309669294E+03 0.  0.
        -24    2    5    5    0    0 -0.62699007983E+02  0.16167295170E+03  0.29786803929E+03  0.35425976273E+03  0.81885906892E+02 0.  0.
          4    1    4    4  502    0 -0.26555232830E+02 -0.14094269860E+03  0.73711256696E+03  0.75093605657E+03  0.00000000000E+00 0. -1.
         -3    1    4    4    0  502 -0.92472357080E+01 -0.48134672332E+02  0.63976483488E+03  0.64163969796E+03  0.00000000000E+00 0.  1.
          5    1    3    3  503    0  0.40619478200E+02 -0.13358564560E+02  0.71838145131E+03  0.71966825193E+03  0.47000000000E+01 0. -1.
         11    1    6    6    0    0 -0.18890183631E+02  0.14186782417E+03  0.23437648680E+03  0.27461911102E+03  0.00000000000E+00 0. -1.
        -12    1    6    6    0    0 -0.43808824353E+02  0.19805127527E+02  0.63491552487E+02  0.79640651710E+02  0.00000000000E+00 0.  1.
         -5    1    5    5    0  501  0.57881998321E+02  0.40762983792E+02  0.16852175807E+03  0.18284862460E+03  0.47000000000E+01 0.  1.
<mgrwt>
<rscale>  2 0.26686156E+03</rscale>
<asrwt>0</asrwt>
<pdfrwt beam="1">  1        2 0.40084611E+00 0.26686156E+03</pdfrwt>
<pdfrwt beam="2">  1       -2 0.67464438E-02 0.26686156E+03</pdfrwt>
<totfact> 0.43360194E+02</totfact>
</mgrwt>
</event>
<event>
12    1  0.5759937E-002  0.1862348E+03  0.7546771E-02  0.1161902E+00
         -1   -1    0    0    0  501 -0.00000000000E+00  0.00000000000E+00  0.60590112268E+02  0.60590112268E+02  0.00000000000E+00 0. -1.
          1   -1    0    0  503    0  0.00000000000E+00 -0.00000000000E+00 -0.69185618509E+03  0.69185618509E+03  0.00000000000E+00 0.  1.
          6    2    1    2  503    0  0.57452939369E+02 -0.30730098643E+02 -0.47298298071E+03  0.50860092224E+03  0.17526214325E+03 0.  0.
         24    2    3    3    0    0 -0.33223153634E+01 -0.48568633969E+02 -0.40305106503E+03  0.41413183861E+03  0.81762269692E+02 0.  0.
         -6    2    1    2    0  501 -0.57452939369E+02  0.30730098643E+02 -0.15828309212E+03  0.24384537513E+03  0.17367167448E+03 0.  0.
        -24    2    5    5    0    0 -0.49268398646E+01  0.69871006425E+02 -0.15106054517E+03  0.17777528374E+03  0.62277860532E+02 0.  0.
          4    1    4    4  502    0 -0.31238464837E+02 -0.55250725495E+02 -0.22496239026E+03  0.23374464996E+03  0.00000000000E+00 0. -1.
         -3    1    4    4    0  502  0.27916149473E+02  0.66820915266E+01 -0.17808867478E+03  0.18038718866E+03  0.00000000000E+00 0.  1.
          5    1    3    3  503    0  0.60775254732E+02  0.17838535326E+02 -0.69931915676E+02  0.94469083622E+02  0.47000000000E+01 0. -1.
         13    1    6    6    0    0  0.24988655048E+02  0.25720327965E+02 -0.35295477281E+02  0.50316387670E+02  0.00000000000E+00 0. -1.
        -14    1    6    6    0    0 -0.29915494912E+02  0.44150678460E+02 -0.11576506789E+03  0.12745889607E+03  0.00000000000E+00 0.  1.
         -5    1    5    5    0  501 -0.52526099504E+02 -0.39140907782E+02 -0.72225469470E+01  0.66070091384E+02  0.47000000000E+01 0.  1.
<mgrwt>
<rscale>  2 0.18623481E+03</rscale>
<asrwt>0</asrwt>
<pdfrwt beam="2">  1        1 0.10643941E+00 0.18623481E+03</pdfrwt>
<pdfrwt beam="1">  1       -1 0.93215561E-02 0.18623481E+03</pdfrwt>
<totfact> 0.19367082E+03</totfact>
</mgrwt>
</event>
<event>
12    1  0.5759937E-002  0.1803238E+03  0.7546771E-02  0.1167490E+00
         -2   -1    0    0    0  501 -0.00000000000E+00  0.00000000000E+00  0.10192220874E+04  0.10192220874E+04  0.00000000000E+00 0. -1.
          2   -1    0    0  503    0  0.00000000000E+00 -0.00000000000E+00 -0.31907340902E+02  0.31907340902E+02  0.00000000000E+00 0.  1.
          6    2    1    2  503    0 -0.26617830845E+02  0.36012182976E+02  0.48628003508E+03  0.51800779605E+03  0.17279588539E+03 0.  0.
         24    2    3    3    0    0 -0.45916636077E+02 -0.10827256655E+02  0.43882367621E+03  0.44843356961E+03  0.79378086326E+02 0.  0.
         -6    2    1    2    0  501  0.26617830845E+02 -0.36012182976E+02  0.50103471145E+03  0.53312163228E+03  0.17657153364E+03 0.  0.
        -24    2    5    5    0    0  0.52454067018E+01 -0.25725161099E+01  0.92877366686E+02  0.12301250057E+03  0.80447112580E+02 0.  0.
          4    1    4    4  502    0 -0.49197315128E+02 -0.22699324189E+02  0.15239407234E+03  0.16173926060E+03  0.00000000000E+00 0. -1.
         -3    1    4    4    0  502  0.32806790514E+01  0.11872067533E+02  0.28642960387E+03  0.28669430900E+03  0.00000000000E+00 0.  1.
          5    1    3    3  503    0  0.19298805231E+02  0.46839439631E+02  0.47456358865E+02  0.69574226442E+02  0.47000000000E+01 0. -1.
         13    1    6    6    0    0  0.11082344286E+02 -0.16727238560E+02  0.10281796921E+03  0.10475759475E+03  0.00000000000E+00 0. -1.
        -14    1    6    6    0    0 -0.58369375839E+01  0.14154722450E+02 -0.99406025229E+01  0.18254905821E+02  0.00000000000E+00 0.  1.
         -5    1    5    5    0  501  0.21372424144E+02 -0.33439666866E+02  0.40815734476E+03  0.41010913172E+03  0.47000000000E+01 0.  1.
<mgrwt>
<rscale>  2 0.18032377E+03</rscale>
<asrwt>0</asrwt>
<pdfrwt beam="2">  1        2 0.49088225E-02 0.18032377E+03</pdfrwt>
<pdfrwt beam="1">  1       -2 0.15680337E+00 0.18032377E+03</pdfrwt>
<totfact> 0.45040631E+02</totfact>
</mgrwt>
</event>
<event>
12    1  0.5759937E-002  0.1919371E+03  0.7546771E-02  0.1156726E+00
         -2   -1    0    0    0  501 -0.00000000000E+00  0.00000000000E+00  0.78748809651E+02  0.78748809651E+02  0.00000000000E+00 0. -1.
          2   -1    0    0  503    0  0.00000000000E+00 -0.00000000000E+00 -0.59084293557E+03  0.59084293557E+03  0.00000000000E+00 0.  1.
          6    2    1    2  503    0 -0.60846938302E+02 -0.58522611695E+02 -0.10403476108E+03  0.21894928153E+03  0.17317133247E+03 0.  0.
         24    2    3    3    0    0 -0.32763920988E+02  0.16970919601E+02 -0.10853727867E+03  0.13813906068E+03  0.77075110085E+02 0.  0.
         -6    2    1    2    0  501  0.60846938302E+02  0.58522611695E+02 -0.40805936484E+03  0.45064246369E+03  0.17157779246E+03 0.  0.
        -24    2    5    5    0    0  0.86710879871E+02  0.45656198764E+01 -0.35222726855E+03  0.36866921552E+03  0.65675872181E+02 0.  0.
          2    1    4    4  502    0 -0.13395745551E+02  0.36461719319E+02 -0.16705418425E+02  0.42284441339E+02  0.00000000000E+00 0. -1.
         -1    1    4    4    0  502 -0.19368175437E+02 -0.19490799718E+02 -0.91831860248E+02  0.95854619346E+02  0.00000000000E+00 0.  1.
          5    1    3    3  503    0 -0.28083017314E+02 -0.75493531296E+02  0.45025175926E+01  0.80810220849E+02  0.47000000000E+01 0. -1.
         13    1    6    6    0    0  0.57715096938E+02 -0.25417005103E+02 -0.16023440600E+03  0.17219791355E+03  0.00000000000E+00 0. -1.
        -14    1    6    6    0    0  0.28995782934E+02  0.29982624979E+02 -0.19199286255E+03  0.19647130197E+03  0.00000000000E+00 0.  1.
         -5    1    5    5    0  501 -0.25863941570E+02  0.53956991818E+02 -0.55832096289E+02  0.81973248171E+02  0.47000000000E+01 0.  1.
<mgrwt>
<rscale>  2 0.19193709E+03</rscale>
<asrwt>0</asrwt>
<pdfrwt beam="2">  1        2 0.90898917E-01 0.19193709E+03</pdfrwt>
<pdfrwt beam="1">  1       -2 0.12115201E-01 0.19193709E+03</pdfrwt>
<totfact> 0.24748638E+03</totfact>
</mgrwt>
</event>
<event>
12    1  0.5759937E-002  0.1825029E+03  0.7546771E-02  0.1165402E+00
          2   -1    0    0  503    0  0.00000000000E+00  0.00000000000E+00  0.29142316578E+04  0.29142316578E+04  0.00000000000E+00 0. -1.
         -2   -1    0    0    0  501 -0.00000000000E+00 -0.00000000000E+00 -0.26062729294E+02  0.26062729294E+02  0.00000000000E+00 0.  1.
          6    2    1    2  503    0  0.20904137854E+02 -0.54400075022E+02  0.34503683073E+03  0.39067451363E+03  0.17372337176E+03 0.  0.
         24    2    3    3    0    0  0.98272356868E+01 -0.59694868603E+02  0.84378675759E+02  0.12968505722E+03  0.77707150544E+02 0.  0.
         -6    2    1    2    0  501 -0.20904137854E+02  0.54400075022E+02  0.25431320978E+04  0.25496198735E+04  0.17217514715E+03 0.  0.
        -24    2    5    5    0    0 -0.21663230743E+02  0.89847547080E+02  0.13059417136E+04  0.13119126237E+04  0.84196766846E+02 0.  0.
          4    1    4    4  502    0  0.28606176140E+02 -0.13666204110E+02 -0.55871511948E-01  0.31703021461E+02  0.00000000000E+00 0. -1.
         -3    1    4    4    0  502 -0.18778940453E+02 -0.46028664493E+02  0.84434547271E+02  0.97982035763E+02  0.00000000000E+00 0.  1.
          5    1    3    3  503    0  0.11076902167E+02  0.52947935808E+01  0.26065815497E+03  0.26098945640E+03  0.47000000000E+01 0. -1.
         11    1    6    6    0    0  0.94381885594E+01  0.81977625725E+02  0.11343565055E+04  0.11373539872E+04  0.00000000000E+00 0. -1.
        -12    1    6    6    0    0 -0.31101419303E+02  0.78699213548E+01  0.17158520812E+03  0.17455863654E+03  0.00000000000E+00 0.  1.
         -5    1    5    5    0  501  0.75909288964E+00 -0.35447472058E+02  0.12371903842E+04  0.12377072498E+04  0.47000000000E+01 0.  1.
<mgrwt>
<rscale>  2 0.18250293E+03</rscale>
<asrwt>0</asrwt>
<pdfrwt beam="1">  1        2 0.44834307E+00 0.18250293E+03</pdfrwt>
<pdfrwt beam="2">  1       -2 0.40096530E-02 0.18250293E+03</pdfrwt>
<totfact> 0.65560485E+02</totfact>
</mgrwt>
</event>
<event>
12    1  0.5759937E-002  0.1939935E+03  0.7546771E-02  0.1154908E+00
         -2   -1    0    0    0  501 -0.00000000000E+00  0.00000000000E+00  0.64644866201E+02  0.64644866201E+02  0.00000000000E+00 0.  1.
          2   -1    0    0  503    0  0.00000000000E+00 -0.00000000000E+00 -0.63986805118E+03  0.63986805118E+03  0.00000000000E+00 0. -1.
          6    2    1    2  503    0  0.50573600710E+02 -0.62779474449E+02 -0.39659953319E+03  0.44258674429E+03  0.17914487151E+03 0.  0.
         24    2    3    3    0    0  0.39666978536E+02  0.31975474331E+02 -0.14999728298E+03  0.17813974670E+03  0.81478121644E+02 0.  0.
         -6    2    1    2    0  501 -0.50573600710E+02  0.62779474449E+02 -0.17862365178E+03  0.26192617309E+03  0.17378135594E+03 0.  0.
        -24    2    5    5    0    0 -0.27448187484E+02  0.62814955935E+02 -0.28617772669E+02  0.11007545770E+03  0.81231199610E+02 0.  0.
          4    1    4    4  502    0  0.58422768954E+02  0.26445132777E+02 -0.14408407213E+03  0.15771108021E+03  0.00000000000E+00 0. -1.
         -3    1    4    4    0  502 -0.18755790418E+02  0.55303415537E+01 -0.59132108563E+01  0.20428666490E+02  0.00000000000E+00 0.  1.
          5    1    3    3  503    0  0.10906622175E+02 -0.94754948780E+02 -0.24660225021E+03  0.26444699759E+03  0.47000000000E+01 0. -1.
         13    1    6    6    0    0 -0.24000250750E+02  0.74768880829E+02 -0.44219286938E+02  0.90120713012E+02  0.00000000000E+00 0. -1.
        -14    1    6    6    0    0 -0.34479367337E+01 -0.11953924894E+02  0.15601514269E+02  0.19954744688E+02  0.00000000000E+00 0.  1.
         -5    1    5    5    0  501 -0.23125413226E+02 -0.35481485574E-01 -0.15000587911E+03  0.15185071539E+03  0.47000000000E+01 0.  1.
<mgrwt>
<rscale>  2 0.19399349E+03</rscale>
<asrwt>0</asrwt>
<pdfrwt beam="2">  1        2 0.98441238E-01 0.19399349E+03</pdfrwt>
<pdfrwt beam="1">  1       -2 0.99453641E-02 0.19399349E+03</pdfrwt>
<totfact> 0.30930233E+03</totfact>
</mgrwt>
</event>
<event>
12    1  0.5759937E-002  0.2511524E+03  0.7546771E-02  0.1112579E+00
         -1   -1    0    0    0  501 -0.00000000000E+00  0.00000000000E+00  0.35499457831E+02  0.35499457831E+02  0.00000000000E+00 0. -1.
          1   -1    0    0  503    0  0.00000000000E+00 -0.00000000000E+00 -0.33382003778E+04  0.33382003778E+04  0.00000000000E+00 0.  1.
          6    2    1    2  503    0 -0.11711768751E+03 -0.13934873409E+03 -0.49907959143E+03  0.55888641193E+03  0.17360576152E+03 0.  0.
         24    2    3    3    0    0 -0.11198973028E+03 -0.90855423110E+02 -0.21690885047E+03  0.27249452271E+03  0.80046285967E+02 0.  0.
         -6    2    1    2    0  501  0.11711768751E+03  0.13934873409E+03 -0.28036213286E+04  0.28148134237E+04  0.17247444450E+03 0.  0.
        -24    2    5    5    0    0  0.31134780662E+02  0.12255726501E+03 -0.20295845236E+04  0.20358204333E+04  0.96756603995E+02 0.  0.
          2    1    4    4  502    0 -0.60315579244E+02 -0.54243321516E+02 -0.18408111282E+03  0.20116203202E+03  0.00000000000E+00 0. -1.
         -1    1    4    4    0  502 -0.51674151041E+02 -0.36612101594E+02 -0.32827737646E+02  0.71332490689E+02  0.00000000000E+00 0.  1.
          5    1    3    3  503    0 -0.51279572283E+01 -0.48493310979E+02 -0.28217074096E+03  0.28639188922E+03  0.47000000000E+01 0. -1.
         13    1    6    6    0    0 -0.33748313233E+01  0.16294103315E+02 -0.10092450014E+04  0.10093821675E+04  0.00000000000E+00 0. -1.
        -14    1    6    6    0    0  0.34509611985E+02  0.10626316170E+03 -0.10203395222E+04  0.10264382657E+04  0.00000000000E+00 0.  1.
         -5    1    5    5    0  501  0.85982906851E+02  0.16791469076E+02 -0.77403680501E+03  0.77899299047E+03  0.47000000000E+01 0.  1.
<mgrwt>
<rscale>  2 0.25115238E+03</rscale>
<asrwt>0</asrwt>
<pdfrwt beam="2">  1        1 0.51356933E+00 0.25115238E+03</pdfrwt>
<pdfrwt beam="1">  1       -1 0.54614546E-02 0.25115238E+03</pdfrwt>
<totfact> 0.64262737E+01</totfact>
</mgrwt>
</event>
<event>
12    1  0.5759937E-002  0.1831840E+03  0.7546771E-02  0.1164757E+00
         -1   -1    0    0    0  501 -0.00000000000E+00  0.00000000000E+00  0.13768643796E+03  0.13768643796E+03  0.00000000000E+00 0.  1.
          1   -1    0    0  503    0  0.00000000000E+00 -0.00000000000E+00 -0.42084814888E+03  0.42084814888E+03  0.00000000000E+00 0. -1.
          6    2    1    2  503    0  0.30349542313E+02 -0.52317196587E+02 -0.32276949421E+03  0.37114015548E+03  0.17293549330E+03 0.  0.
         24    2    3    3    0    0  0.79992393004E+02 -0.64746300116E+02 -0.25081505140E+03  0.28271828557E+03  0.80190851535E+02 0.  0.
         -6    2    1    2    0  501 -0.30349542313E+02  0.52317196587E+02  0.39607783292E+02  0.18739443136E+03  0.17288641540E+03 0.  0.
        -24    2    5    5    0    0 -0.39079610137E+02  0.34780212593E+02 -0.37681228116E+02  0.10752302736E+03  0.86049098451E+02 0.  0.
          2    1    4    4  502    0  0.64376555893E+02 -0.83748474934E+02 -0.19646211972E+03  0.22305943712E+03  0.00000000000E+00 0. -1.
         -1    1    4    4    0  502  0.15615837111E+02  0.19002174818E+02 -0.54352931675E+02  0.59658848448E+02  0.00000000000E+00 0.  1.
          5    1    3    3  503    0 -0.49642850691E+02  0.12429103530E+02 -0.71954442808E+02  0.88421869914E+02  0.47000000000E+01 0. -1.
         11    1    6    6    0    0  0.21796997613E+02 -0.10040787451E+02 -0.24610798582E+01  0.24124332771E+02  0.00000000000E+00 0. -1.
        -12    1    6    6    0    0 -0.60876607750E+02  0.44821000044E+02 -0.35220148257E+02  0.83398694590E+02  0.00000000000E+00 0.  1.
         -5    1    5    5    0  501  0.87300678239E+01  0.17536983994E+02  0.77289011407E+02  0.79871403995E+02  0.47000000000E+01 0.  1.
<mgrwt>
<rscale>  2 0.18318401E+03</rscale>
<asrwt>0</asrwt>
<pdfrwt beam="2">  1        1 0.64745868E-01 0.18318401E+03</pdfrwt>
<pdfrwt beam="1">  1       -1 0.21182529E-01 0.18318401E+03</pdfrwt>
<totfact> 0.10388805E+03</totfact>
</mgrwt>
</event>
<event>
12    1  0.5759937E-002  0.1941124E+03  0.7546771E-02  0.1154804E+00
         -1   -1    0    0    0  501 -0.00000000000E+00  0.00000000000E+00  0.21033549216E+03  0.21033549216E+03  0.00000000000E+00 0.  1.
          1   -1    0    0  503    0  0.00000000000E+00 -0.00000000000E+00 -0.18079723300E+03  0.18079723300E+03  0.00000000000E+00 0. -1.
          6    2    1    2  503    0 -0.11620207332E+01 -0.88554331917E+02 -0.39053479359E+01  0.19466661925E+03  0.17331076398E+03 0.  0.
         24    2    3    3    0    0  0.38738663991E+01 -0.99607067556E+02  0.51054805978E+02  0.13818448364E+03  0.80943088387E+02 0.  0.
         -6    2    1    2    0  501  0.11620207332E+01  0.88554331917E+02  0.33443607098E+02  0.19646610592E+03  0.17215468604E+03 0.  0.
        -24    2    5    5    0    0  0.38712106215E+02  0.11615145848E+03  0.34589261991E+02  0.14961514180E+03  0.78730458753E+02 0.  0.
          4    1    4    4  502    0 -0.19848292983E+02 -0.71074727487E+02 -0.15492832331E+01  0.73810377998E+02  0.00000000000E+00 0. -1.
         -3    1    4    4    0  502  0.23722159382E+02 -0.28532340069E+02  0.52604089211E+02  0.64374105643E+02  0.00000000000E+00 0.  1.
          5    1    3    3  503    0 -0.50358871323E+01  0.11052735639E+02 -0.54960153914E+02  0.56482135606E+02  0.47000000000E+01 0. -1.
         13    1    6    6    0    0 -0.10661101413E+02  0.17815225806E+02 -0.18166041621E+02  0.27587069834E+02  0.00000000000E+00 0. -1.
        -14    1    6    6    0    0  0.49373207628E+02  0.98336232671E+02  0.52755303612E+02  0.12202807196E+03  0.00000000000E+00 0.  1.
         -5    1    5    5    0  501 -0.37550085482E+02 -0.27597126560E+02 -0.11456548930E+01  0.46850964122E+02  0.47000000000E+01 0.  1.
<mgrwt>
<rscale>  2 0.19411239E+03</rscale>
<asrwt>0</asrwt>
<pdfrwt beam="2">  1        1 0.27814959E-01 0.19411239E+03</pdfrwt>
<pdfrwt beam="1">  1       -1 0.32359307E-01 0.19411239E+03</pdfrwt>
<totfact> 0.14835489E+03</totfact>
</mgrwt>
</event>
<event>
12    1  0.5759937E-002  0.1878612E+03  0.7546771E-02  0.1160405E+00
         -1   -1    0    0    0  501 -0.00000000000E+00  0.00000000000E+00  0.75157884676E+02  0.75157884676E+02  0.00000000000E+00 0. -1.
          1   -1    0    0  503    0  0.00000000000E+00 -0.00000000000E+00 -0.50595379670E+03  0.50595379670E+03  0.00000000000E+00 0.  1.
          6    2    1    2  503    0 -0.65346829524E+02  0.29357153985E+02 -0.29248793389E+03  0.34720806779E+03  0.17283576091E+03 0.  0.
         24    2    3    3    0    0 -0.71874367045E+01 -0.34714809739E+02 -0.12532785954E+03  0.15892022441E+03  0.91059255918E+02 0.  0.
         -6    2    1    2    0  501  0.65346829524E+02 -0.29357153985E+02 -0.13830797813E+03  0.23390361358E+03  0.17449857596E+03 0.  0.
        -24    2    5    5    0    0  0.20425230806E+01 -0.57381382563E+01 -0.59398772855E+00  0.80435290235E+02  0.80202150610E+02 0.  0.
          4    1    4    4  502    0  0.18997711390E+01 -0.55136351528E+00  0.14529837030E+02  0.14663877257E+02  0.00000000000E+00 0. -1.
         -3    1    4    4    0  502 -0.90872078435E+01 -0.34163446223E+02 -0.13985769657E+03  0.14425634715E+03  0.00000000000E+00 0.  1.
          5    1    3    3  503    0 -0.58159392820E+02  0.64071963724E+02 -0.16716007435E+03  0.18828784338E+03  0.47000000000E+01 0. -1.
         11    1    6    6    0    0 -0.14243401611E+02  0.21664987841E+02 -0.28169902298E+02  0.38285631549E+02  0.00000000000E+00 0. -1.
        -12    1    6    6    0    0  0.16285924692E+02 -0.27403126097E+02  0.27575914570E+02  0.42149658686E+02  0.00000000000E+00 0.  1.
         -5    1    5    5    0  501  0.63304306444E+02 -0.23619015729E+02 -0.13771399040E+03  0.15346832335E+03  0.47000000000E+01 0.  1.
<mgrwt>
<rscale>  2 0.18786124E+03</rscale>
<asrwt>0</asrwt>
<pdfrwt beam="2">  1        1 0.77839046E-01 0.18786124E+03</pdfrwt>
<pdfrwt beam="1">  1       -1 0.11562751E-01 0.18786124E+03</pdfrwt>
<totfact> 0.21366963E+03</totfact>
</mgrwt>
</event>
<event>
12    1  0.5759937E-002  0.2183494E+03  0.7546771E-02  0.1135120E+00
          1   -1    0    0  503    0  0.00000000000E+00  0.00000000000E+00  0.32475073764E+03  0.32475073764E+03  0.00000000000E+00 0. -1.
         -1   -1    0    0    0  501 -0.00000000000E+00 -0.00000000000E+00 -0.15322158078E+03  0.15322158078E+03  0.00000000000E+00 0.  1.
          6    2    1    2  503    0  0.12020456027E+03 -0.55275195663E+02  0.13474621692E+03  0.25678941321E+03  0.17401085081E+03 0.  0.
         24    2    3    3    0    0  0.43221891256E+02 -0.67367715840E+02  0.13114899966E+03  0.17863833936E+03  0.91132075339E+02 0.  0.
         -6    2    1    2    0  501 -0.12020456027E+03  0.55275195663E+02  0.36782939937E+02  0.22118290520E+03  0.17339091475E+03 0.  0.
        -24    2    5    5    0    0 -0.16286862555E+02  0.66115419171E+02  0.52062941476E+02  0.11548538020E+03  0.77393879738E+02 0.  0.
          4    1    4    4  502    0  0.17254947123E+02 -0.61694383095E+02  0.13716416145E+03  0.15138671439E+03  0.00000000000E+00 0. -1.
         -3    1    4    4    0  502  0.25966944133E+02 -0.56733327459E+01 -0.60151617962E+01  0.27251624969E+02  0.00000000000E+00 0.  1.
          5    1    3    3  503    0  0.76982669017E+02  0.12092520178E+02  0.35972172627E+01  0.78151073858E+02  0.47000000000E+01 0. -1.
         11    1    6    6    0    0 -0.31820937349E+02  0.77342722762E+02  0.45611191297E+02  0.95262004963E+02  0.00000000000E+00 0. -1.
        -12    1    6    6    0    0  0.15534074793E+02 -0.11227303592E+02  0.64517501792E+01  0.20223375238E+02  0.00000000000E+00 0.  1.
         -5    1    5    5    0  501 -0.10391769772E+03 -0.10840223508E+02 -0.15280001539E+02  0.10569752500E+03  0.47000000000E+01 0.  1.
<mgrwt>
<rscale>  2 0.21834939E+03</rscale>
<asrwt>0</asrwt>
<pdfrwt beam="1">  1        1 0.49961652E-01 0.21834939E+03</pdfrwt>
<pdfrwt beam="2">  1       -1 0.23572551E-01 0.21834939E+03</pdfrwt>
<totfact> 0.12139930E+03</totfact>
</mgrwt>
</event>
<event>
12    1  0.5759937E-002  0.2127223E+03  0.7546771E-02  0.1139428E+00
         -2   -1    0    0    0  501 -0.00000000000E+00  0.00000000000E+00  0.85459305426E+02  0.85459305426E+02  0.00000000000E+00 0. -1.
          2   -1    0    0  503    0  0.00000000000E+00 -0.00000000000E+00 -0.13770300226E+04  0.13770300226E+04  0.00000000000E+00 0.  1.
          6    2    1    2  503    0  0.10235351340E+03  0.74785504384E+02 -0.12217154726E+04  0.12404340842E+04  0.17325965445E+03 0.  0.
         24    2    3    3    0    0  0.72280764365E+02  0.10309163909E+03 -0.64703632018E+03  0.66425370816E+03  0.82003623237E+02 0.  0.
         -6    2    1    2    0  501 -0.10235351340E+03 -0.74785504384E+02 -0.69855244568E+02  0.22205524383E+03  0.16840327415E+03 0.  0.
        -24    2    5    5    0    0 -0.12414622675E+03 -0.25643743902E+02 -0.25904575404E+02  0.15245936537E+03  0.80640708359E+02 0.  0.
          4    1    4    4  502    0  0.50099161210E+02  0.11470242316E+03 -0.53241797547E+03  0.54693278603E+03  0.00000000000E+00 0. -1.
         -3    1    4    4    0  502  0.22181603155E+02 -0.11610784063E+02 -0.11461834472E+03  0.11732092214E+03  0.00000000000E+00 0.  1.
          5    1    3    3  503    0  0.30072749038E+02 -0.28306134710E+02 -0.57467915238E+03  0.57618037599E+03  0.47000000000E+01 0. -1.
         13    1    6    6    0    0 -0.39531518280E+02  0.26916587579E+02 -0.22338920431E+02  0.52785139864E+02  0.00000000000E+00 0. -1.
        -14    1    6    6    0    0 -0.84614708470E+02 -0.52560331482E+02 -0.35656549735E+01  0.99674225507E+02  0.00000000000E+00 0.  1.
         -5    1    5    5    0  501  0.21792713347E+02 -0.49141760482E+02 -0.43950669164E+02  0.69595878457E+02  0.47000000000E+01 0.  1.
<mgrwt>
<rscale>  2 0.21272234E+03</rscale>
<asrwt>0</asrwt>
<pdfrwt beam="2">  1        2 0.21185077E+00 0.21272234E+03</pdfrwt>
<pdfrwt beam="1">  1       -2 0.13147585E-01 0.21272234E+03</pdfrwt>
<totfact> 0.68393490E+02</totfact>
</mgrwt>
</event>
<event>
12    1  0.5759937E-002  0.1749486E+03  0.7546771E-02  0.1172783E+00
         -1   -1    0    0    0  501 -0.00000000000E+00  0.00000000000E+00  0.64082416965E+02  0.64082416965E+02  0.00000000000E+00 0. -1.
          1   -1    0    0  503    0  0.00000000000E+00 -0.00000000000E+00 -0.60708534809E+03  0.60708534809E+03  0.00000000000E+00 0.  1.
          6    2    1    2  503    0 -0.28367770772E+02 -0.14211021925E+01 -0.11647595843E+03  0.21013903086E+03  0.17258335217E+03 0.  0.
         24    2    3    3    0    0 -0.49167783721E+02  0.30430188328E+02 -0.12426325591E+02  0.99253678621E+02  0.79708292130E+02 0.  0.
         -6    2    1    2    0  501  0.28367770772E+02  0.14211021925E+01 -0.42652697270E+03  0.46102873420E+03  0.17267161136E+03 0.  0.
        -24    2    5    5    0    0  0.48591771538E+02 -0.24098430821E+02 -0.12927081971E+03  0.16195755996E+03  0.81101243953E+02 0.  0.
          4    1    4    4  502    0 -0.22370475803E+02 -0.26663168318E+02 -0.96748512566E+01  0.36124305934E+02  0.00000000000E+00 0. -1.
         -3    1    4    4    0  502 -0.26797307919E+02  0.57093356646E+02 -0.27514743342E+01  0.63129372686E+02  0.00000000000E+00 0.  1.
          5    1    3    3  503    0  0.20800012949E+02 -0.31851290520E+02 -0.10404963284E+03  0.11088535224E+03  0.47000000000E+01 0. -1.
         13    1    6    6    0    0  0.30910804523E+02  0.19873475110E+02 -0.99302498831E+02  0.10588398898E+03  0.00000000000E+00 0. -1.
        -14    1    6    6    0    0  0.17680967015E+02 -0.43971905931E+02 -0.29968320880E+02  0.56073570978E+02  0.00000000000E+00 0.  1.
         -5    1    5    5    0  501 -0.20224000766E+02  0.25519533014E+02 -0.29725615299E+03  0.29907117424E+03  0.47000000000E+01 0.  1.
<mgrwt>
<rscale>  2 0.17494855E+03</rscale>
<asrwt>0</asrwt>
<pdfrwt beam="2">  1        1 0.93397746E-01 0.17494855E+03</pdfrwt>
<pdfrwt beam="1">  1       -1 0.98588334E-02 0.17494855E+03</pdfrwt>
<totfact> 0.21336192E+03</totfact>
</mgrwt>
</event>
<event>
12    1  0.5759937E-002  0.3241548E+03  0.7546771E-02  0.1073753E+00
          2   -1    0    0  503    0  0.00000000000E+00  0.00000000000E+00  0.39864539307E+04  0.39864539307E+04  0.00000000000E+00 0. -1.
         -2   -1    0    0    0  501 -0.00000000000E+00 -0.00000000000E+00 -0.29413318165E+02  0.29413318165E+02  0.00000000000E+00 0.  1.
          6    2    1    2  503    0 -0.93622765198E+02 -0.25872103003E+03  0.13301579448E+04  0.13690319326E+04  0.17095754114E+03 0.  0.
         24    2    3    3    0    0 -0.77735173171E+02 -0.18837218619E+03  0.69497738838E+03  0.72975280370E+03  0.89547453786E+02 0.  0.
         -6    2    1    2    0  501  0.93622765198E+02  0.25872103003E+03  0.26268826677E+04  0.26468353162E+04  0.17182213982E+03 0.  0.
        -24    2    5    5    0    0 -0.12755406806E+02  0.11869750334E+03  0.14118914404E+04  0.14191754790E+04  0.79811045551E+02 0.  0.
          4    1    4    4  502    0 -0.11001830253E+02  0.81585326720E+01  0.27032471291E+02  0.30304396188E+02  0.00000000000E+00 0. -1.
         -3    1    4    4    0  502 -0.66733342918E+02 -0.19653071886E+03  0.66794491708E+03  0.69944840751E+03  0.00000000000E+00 0.  1.
          5    1    3    3  503    0 -0.15887592028E+02 -0.70348843847E+02  0.63518055642E+03  0.63927912892E+03  0.47000000000E+01 0. -1.
         11    1    6    6    0    0 -0.37915732133E+02  0.77485693877E+02  0.64176408496E+03  0.64753592660E+03  0.00000000000E+00 0. -1.
        -12    1    6    6    0    0  0.25160325326E+02  0.41211809458E+02  0.77012735548E+03  0.77163955243E+03  0.00000000000E+00 0.  1.
         -5    1    5    5    0  501  0.10637817200E+03  0.14002352670E+03  0.12149912273E+04  0.12276598372E+04  0.47000000000E+01 0.  1.
<mgrwt>
<rscale>  2 0.32415483E+03</rscale>
<asrwt>0</asrwt>
<pdfrwt beam="1">  1        2 0.61330018E+00 0.32415483E+03</pdfrwt>
<pdfrwt beam="2">  1       -2 0.45251290E-02 0.32415483E+03</pdfrwt>
<totfact> 0.10238340E+02</totfact>
</mgrwt>
</event>
<event>
12    1  0.5759937E-002  0.2205269E+03  0.7546771E-02  0.1133491E+00
          2   -1    0    0  503    0  0.00000000000E+00  0.00000000000E+00  0.28727721933E+03  0.28727721933E+03  0.00000000000E+00 0. -1.
         -2   -1    0    0    0  501 -0.00000000000E+00 -0.00000000000E+00 -0.16935158477E+03  0.16935158477E+03  0.00000000000E+00 0.  1.
          6    2    1    2  503    0 -0.93274073992E+02 -0.98987053741E+02  0.54371484960E+02  0.22660854471E+03  0.17290657730E+03 0.  0.
         24    2    3    3    0    0 -0.10817986882E+03 -0.10150024704E+03 -0.16727520977E+01  0.16837156877E+03  0.79630414423E+02 0.  0.
         -6    2    1    2    0  501  0.93274073992E+02  0.98987053741E+02  0.63554149602E+02  0.23002025938E+03  0.17427478334E+03 0.  0.
        -24    2    5    5    0    0  0.13388782659E+03  0.73844427929E+02  0.52005579069E+02  0.18065338775E+03  0.80945145668E+02 0.  0.
          2    1    4    4  502    0 -0.30189454913E+02 -0.39993290031E+02 -0.37707268530E+02  0.62711279173E+02  0.00000000000E+00 0. -1.
         -1    1    4    4    0  502 -0.77990413909E+02 -0.61506957010E+02  0.36034516433E+02  0.10566028959E+03  0.00000000000E+00 0.  1.
          5    1    3    3  503    0  0.14905794830E+02  0.25131933003E+01  0.56044237058E+02  0.58236975947E+02  0.47000000000E+01 0. -1.
         13    1    6    6    0    0  0.90871360103E+02  0.53717831867E+02 -0.59445721843E+01  0.10572865026E+03  0.00000000000E+00 0. -1.
        -14    1    6    6    0    0  0.43016466489E+02  0.20126596063E+02  0.57950151254E+02  0.74924737494E+02  0.00000000000E+00 0.  1.
         -5    1    5    5    0  501 -0.40613752600E+02  0.25142625812E+02  0.11548570532E+02  0.49366871627E+02  0.47000000000E+01 0.  1.
<mgrwt>
<rscale>  2 0.22052687E+03</rscale>
<asrwt>0</asrwt>
<pdfrwt beam="1">  1        2 0.44196495E-01 0.22052687E+03</pdfrwt>
<pdfrwt beam="2">  1       -2 0.26054090E-01 0.22052687E+03</pdfrwt>
<totfact> 0.15053635E+03</totfact>
</mgrwt>
</event>
<event>
12    1  0.5759937E-002  0.1794347E+03  0.7546771E-02  0.1168351E+00
          1   -1    0    0  503    0  0.00000000000E+00  0.00000000000E+00  0.47867318176E+03  0.47867318176E+03  0.00000000000E+00 0.  1.
         -1   -1    0    0    0  501 -0.00000000000E+00 -0.00000000000E+00 -0.69621507382E+02  0.69621507382E+02  0.00000000000E+00 0. -1.
          6    2    1    2  503    0 -0.52792122623E+02  0.31091590028E+01  0.15292301320E+03  0.23495602234E+03  0.17035906018E+03 0.  0.
         24    2    3    3    0    0 -0.84744197587E+02 -0.34978195111E+02  0.13583429253E+03  0.18217632916E+03  0.79575163974E+02 0.  0.
         -6    2    1    2    0  501  0.52792122623E+02 -0.31091590028E+01  0.25612866118E+03  0.31333866680E+03  0.17257622651E+03 0.  0.
        -24    2    5    5    0    0  0.23888444540E+02 -0.50636730470E+02  0.74627700073E+02  0.12344664080E+03  0.80839614374E+02 0.  0.
          2    1    4    4  502    0 -0.71119774638E+02 -0.59732103417E+02  0.10908789576E+03  0.14326938098E+03  0.00000000000E+00 0. -1.
         -1    1    4    4    0  502 -0.13624422950E+02  0.24753908306E+02  0.26746396772E+02  0.38906948189E+02  0.00000000000E+00 0.  1.
          5    1    3    3  503    0  0.31952074964E+02  0.38087354114E+02  0.17088720669E+02  0.52779693178E+02  0.47000000000E+01 0. -1.
         13    1    6    6    0    0  0.31803076303E+02  0.37541042573E+01  0.16236070719E+01  0.32065013037E+02  0.00000000000E+00 0. -1.
        -14    1    6    6    0    0 -0.79146317637E+01 -0.54390834727E+02  0.73004093002E+02  0.91381627766E+02  0.00000000000E+00 0.  1.
         -5    1    5    5    0  501  0.28903678084E+02  0.47527571467E+02  0.18150096111E+03  0.18989202600E+03  0.47000000000E+01 0.  1.
<mgrwt>
<rscale>  2 0.17943470E+03</rscale>
<asrwt>0</asrwt>
<pdfrwt beam="1">  1        1 0.73642026E-01 0.17943470E+03</pdfrwt>
<pdfrwt beam="2">  1       -1 0.10711001E-01 0.17943470E+03</pdfrwt>
<totfact> 0.25836155E+03</totfact>
</mgrwt>
</event>
<event>
12    1  0.5759937E-002  0.2360424E+03  0.7546771E-02  0.1122458E+00
          1   -1    0    0  503    0  0.00000000000E+00  0.00000000000E+00  0.69997189702E+03  0.69997189702E+03  0.00000000000E+00 0. -1.
         -1   -1    0    0    0  501 -0.00000000000E+00 -0.00000000000E+00 -0.11830094441E+03  0.11830094441E+03  0.00000000000E+00 0.  1.
          6    2    1    2  503    0 -0.10783624549E+03  0.11898443318E+03  0.52503901984E+03  0.57574999704E+03  0.17330936372E+03 0.  0.
         24    2    3    3    0    0 -0.46974667969E+02  0.53098902564E+02  0.11838152367E+03  0.15929178311E+03  0.79583755463E+02 0.  0.
         -6    2    1    2    0  501  0.10783624549E+03 -0.11898443318E+03  0.56631932768E+02  0.24252284439E+03  0.17269685307E+03 0.  0.
        -24    2    5    5    0    0  0.27351304847E+02 -0.76048817325E+02  0.90630369486E+02  0.14505861260E+03  0.79351249029E+02 0.  0.
          2    1    4    4  502    0 -0.41356342381E+02 -0.83626151835E+01  0.31201469204E+02  0.52476776466E+02  0.00000000000E+00 0. -1.
         -1    1    4    4    0  502 -0.56183255885E+01  0.61461517747E+02  0.87180054469E+02  0.10681500664E+03  0.00000000000E+00 0.  1.
          5    1    3    3  503    0 -0.60861577525E+02  0.65885530615E+02  0.40665749617E+03  0.41645821393E+03  0.47000000000E+01 0. -1.
         11    1    6    6    0    0  0.18031636476E+02 -0.59660579898E+02  0.11078000899E+02  0.63302818355E+02  0.00000000000E+00 0. -1.
        -12    1    6    6    0    0  0.93196683714E+01 -0.16388237427E+02  0.79552368587E+02  0.81755794243E+02  0.00000000000E+00 0.  1.
         -5    1    5    5    0  501  0.80484940647E+02 -0.42935615853E+02 -0.33998436719E+02  0.97464231792E+02  0.47000000000E+01 0.  1.
<mgrwt>
<rscale>  2 0.23604241E+03</rscale>
<asrwt>0</asrwt>
<pdfrwt beam="1">  1        1 0.10768798E+00 0.23604241E+03</pdfrwt>
<pdfrwt beam="2">  1       -1 0.18200146E-01 0.23604241E+03</pdfrwt>
<totfact> 0.66679522E+02</totfact>
</mgrwt>
</event>
<event>
12    1  0.5759937E-002  0.2544087E+03  0.7546771E-02  0.1110550E+00
         -3   -1    0    0    0  501 -0.00000000000E+00  0.00000000000E+00  0.31979461841E+03  0.31979461841E+03  0.00000000000E+00 0. -1.
          3   -1    0    0  503    0  0.00000000000E+00 -0.00000000000E+00 -0.20522114938E+03  0.20522114938E+03  0.00000000000E+00 0.  1.
          6    2    1    2  503    0 -0.94239848508E+02  0.16055812391E+03  0.26530976594E+02  0.25608599724E+03  0.17382774538E+03 0.  0.
         24    2    3    3    0    0 -0.60590745379E+02  0.11553322107E+02  0.47614499943E+00  0.10105168700E+03  0.80040608787E+02 0.  0.
         -6    2    1    2    0  501  0.94239848508E+02 -0.16055812391E+03  0.88042492440E+02  0.26892977055E+03  0.17294993730E+03 0.  0.
        -24    2    5    5    0    0  0.35992585275E+02 -0.12204771198E+03  0.12316026753E+03  0.19062815097E+03  0.70565786675E+02 0.  0.
          2    1    4    4  502    0 -0.74299081393E+02  0.14281416482E+02 -0.18110025783E+02  0.77796435564E+02  0.00000000000E+00 0. -1.
         -1    1    4    4    0  502  0.13708336014E+02 -0.27280943755E+01  0.18586170782E+02  0.23255251440E+02  0.00000000000E+00 0.  1.
          5    1    3    3  503    0 -0.33649103130E+02  0.14900480180E+03  0.26054831595E+02  0.15503431024E+03  0.47000000000E+01 0. -1.
         11    1    6    6    0    0  0.37194531147E+02 -0.34637023599E+02  0.18093511872E+02  0.53949344045E+02  0.00000000000E+00 0. -1.
        -12    1    6    6    0    0 -0.12019458719E+01 -0.87410688382E+02  0.10506675566E+03  0.13667880693E+03  0.00000000000E+00 0.  1.
         -5    1    5    5    0  501  0.58247263233E+02 -0.38510411930E+02 -0.35117775095E+02  0.78301619580E+02  0.47000000000E+01 0.  1.
<mgrwt>
<rscale>  2 0.25440866E+03</rscale>
<asrwt>0</asrwt>
<pdfrwt beam="2">  1        3 0.31572485E-01 0.25440866E+03</pdfrwt>
<pdfrwt beam="1">  1       -3 0.49199172E-01 0.25440866E+03</pdfrwt>
<totfact> 0.10035969E+02</totfact>
</mgrwt>
</event>
<event>
12    1  0.5759937E-002  0.1939942E+03  0.7546771E-02  0.1154907E+00
          2   -1    0    0  503    0  0.00000000000E+00  0.00000000000E+00  0.13600224444E+04  0.13600224444E+04  0.00000000000E+00 0.  1.
         -2   -1    0    0    0  501 -0.00000000000E+00 -0.00000000000E+00 -0.27944824142E+02  0.27944824142E+02  0.00000000000E+00 0. -1.
          6    2    1    2  503    0  0.84344932618E+02 -0.28468841482E+02  0.73343571924E+03  0.75856525808E+03  0.17195567428E+03 0.  0.
         24    2    3    3    0    0  0.44033970407E+02 -0.61253502016E+02  0.65621509707E+03  0.66537232847E+03  0.80069343796E+02 0.  0.
         -6    2    1    2    0  501 -0.84344932618E+02  0.28468841482E+02  0.59864190097E+03  0.62940201042E+03  0.17277216940E+03 0.  0.
        -24    2    5    5    0    0 -0.11921285432E+03 -0.65483362696E+01  0.46903604690E+03  0.49061533198E+03  0.80336824291E+02 0.  0.
          4    1    4    4  502    0 -0.23080211611E+02 -0.16223351516E+02  0.21144306129E+03  0.21331681010E+03  0.00000000000E+00 0. -1.
         -3    1    4    4    0  502  0.67114182018E+02 -0.45030150500E+02  0.44477203578E+03  0.45205551838E+03  0.00000000000E+00 0.  1.
          5    1    3    3  503    0  0.40310962211E+02  0.32784660534E+02  0.77220622165E+02  0.93192929604E+02  0.47000000000E+01 0. -1.
         13    1    6    6    0    0 -0.25575403684E+02 -0.15040204852E+02  0.32240243378E+02  0.43814864243E+02  0.00000000000E+00 0. -1.
        -14    1    6    6    0    0 -0.93637450637E+02  0.84918685821E+01  0.43679580352E+03  0.44680046773E+03  0.00000000000E+00 0.  1.
         -5    1    5    5    0  501  0.34867921703E+02  0.35017177752E+02  0.12960585407E+03  0.13878667844E+03  0.47000000000E+01 0.  1.
<mgrwt>
<rscale>  2 0.19399425E+03</rscale>
<asrwt>0</asrwt>
<pdfrwt beam="1">  1        2 0.20923417E+00 0.19399425E+03</pdfrwt>
<pdfrwt beam="2">  1       -2 0.42992048E-02 0.19399425E+03</pdfrwt>
<totfact> 0.39835284E+03</totfact>
</mgrwt>
</event>
<event>
12    1  0.5759937E-002  0.2088859E+03  0.7546771E-02  0.1142451E+00
          1   -1    0    0  503    0  0.00000000000E+00  0.00000000000E+00  0.49900327275E+02  0.49900327275E+02  0.00000000000E+00 0.  1.
         -1   -1    0    0    0  501 -0.00000000000E+00 -0.00000000000E+00 -0.90180734566E+03  0.90180734566E+03  0.00000000000E+00 0. -1.
          6    2    1    2  503    0  0.27574167952E+01 -0.11576357044E+03 -0.33898514360E+03  0.39708057389E+03  0.17132789322E+03 0.  0.
         24    2    3    3    0    0  0.40782030639E+01  0.52234171791E+01 -0.17589891482E+03  0.19395794181E+03  0.81457590976E+02 0.  0.
         -6    2    1    2    0  501 -0.27574167952E+01  0.11576357044E+03 -0.51292187479E+03  0.55462709904E+03  0.17639036755E+03 0.  0.
        -24    2    5    5    0    0 -0.57606966932E+02  0.32276086089E+02 -0.20073770463E+03  0.22681666709E+03  0.82400643448E+02 0.  0.
          2    1    4    4  502    0 -0.33689166521E+02 -0.10765398916E+02 -0.47852866214E+02  0.59504206235E+02  0.00000000000E+00 0. -1.
         -1    1    4    4    0  502  0.37767369585E+02  0.15988816095E+02 -0.12804604861E+03  0.13445373557E+03  0.00000000000E+00 0.  1.
          5    1    3    3  503    0 -0.13207862688E+01 -0.12098698762E+03 -0.16308622877E+03  0.20312263209E+03  0.47000000000E+01 0. -1.
         11    1    6    6    0    0 -0.29579326041E+02  0.16281911889E+02 -0.18974480114E+03  0.19272552177E+03  0.00000000000E+00 0. -1.
        -12    1    6    6    0    0 -0.28027640890E+02  0.15994174201E+02 -0.10992903489E+02  0.34091145322E+02  0.00000000000E+00 0.  1.
         -5    1    5    5    0  501  0.54849550136E+02  0.83487484351E+02 -0.31218417016E+03  0.32781043195E+03  0.47000000000E+01 0.  1.
<mgrwt>
<rscale>  2 0.20888594E+03</rscale>
<asrwt>0</asrwt>
<pdfrwt beam="1">  1        1 0.76769738E-02 0.20888594E+03</pdfrwt>
<pdfrwt beam="2">  1       -1 0.13873959E+00 0.20888594E+03</pdfrwt>
<totfact> 0.42586528E+02</totfact>
</mgrwt>
</event>
<event>
12    1  0.5759937E-002  0.1839878E+03  0.7546771E-02  0.1163998E+00
          4   -1    0    0  503    0  0.00000000000E+00  0.00000000000E+00  0.53262886351E+03  0.53262886351E+03  0.00000000000E+00 0.  1.
         -4   -1    0    0    0  501 -0.00000000000E+00 -0.00000000000E+00 -0.63849641239E+02  0.63849641239E+02  0.00000000000E+00 0. -1.
          6    2    1    2  503    0 -0.32138923427E+02  0.58176235696E+02  0.25121752722E+03  0.30998705941E+03  0.16900989978E+03 0.  0.
         24    2    3    3    0    0 -0.21357301216E+02  0.96500776193E+02  0.23178087281E+03  0.26543498520E+03  0.83455522580E+02 0.  0.
         -6    2    1    2    0  501  0.32138923427E+02 -0.58176235696E+02  0.21756169506E+03  0.28649144534E+03  0.17414612341E+03 0.  0.
        -24    2    5    5    0    0  0.69111533865E+02 -0.66842580368E+00  0.17853739639E+03  0.20763012397E+03  0.80360534870E+02 0.  0.
          4    1    4    4  502    0  0.25430873992E+02  0.38629197426E+02  0.13902139861E+03  0.14651243468E+03  0.00000000000E+00 0. -1.
         -3    1    4    4    0  502 -0.46788175208E+02  0.57871578767E+02  0.92759474199E+02  0.11892255052E+03  0.00000000000E+00 0.  1.
          5    1    3    3  503    0 -0.10781622211E+02 -0.38324540496E+02  0.19436654410E+02  0.44552074210E+02  0.47000000000E+01 0. -1.
         13    1    6    6    0    0  0.62080737649E+02  0.24631584867E+02  0.16517477886E+03  0.17816688955E+03  0.00000000000E+00 0. -1.
        -14    1    6    6    0    0  0.70307962164E+01 -0.25300010671E+02  0.13362617528E+02  0.29463234422E+02  0.00000000000E+00 0.  1.
         -5    1    5    5    0  501 -0.36972610439E+02 -0.57507809892E+02  0.39024298665E+02  0.78861321366E+02  0.47000000000E+01 0.  1.
<mgrwt>
<rscale>  2 0.18398784E+03</rscale>
<asrwt>0</asrwt>
<pdfrwt beam="1">  1        4 0.81942899E-01 0.18398784E+03</pdfrwt>
<pdfrwt beam="2">  1       -4 0.98230221E-02 0.18398784E+03</pdfrwt>
<totfact> 0.18504392E+02</totfact>
</mgrwt>
</event>
<event>
12    1  0.5759937E-002  0.1862176E+03  0.7546771E-02  0.1161918E+00
          2   -1    0    0  503    0  0.00000000000E+00  0.00000000000E+00  0.28386393882E+03  0.28386393882E+03  0.00000000000E+00 0.  1.
         -2   -1    0    0    0  501 -0.00000000000E+00 -0.00000000000E+00 -0.14912080099E+03  0.14912080099E+03  0.00000000000E+00 0. -1.
          6    2    1    2  503    0  0.20922567095E+02 -0.64877320356E+02  0.15943860637E+03  0.24518595355E+03  0.17334549924E+03 0.  0.
         24    2    3    3    0    0 -0.45358550946E+02 -0.49162042254E+01  0.57779094016E+02  0.10974124709E+03  0.81382740180E+02 0.  0.
         -6    2    1    2    0  501 -0.20922567095E+02  0.64877320356E+02 -0.24695468545E+02  0.18779878626E+03  0.17323884507E+03 0.  0.
        -24    2    5    5    0    0 -0.74544591321E+02  0.66781105195E+02 -0.35864874570E+02  0.13279159119E+03  0.79565729780E+02 0.  0.
          4    1    4    4  502    0 -0.57271834580E+02 -0.16804403665E+02  0.11884423938E+02  0.60857953884E+02  0.00000000000E+00 0. -1.
         -3    1    4    4    0  502  0.11913283634E+02  0.11888199439E+02  0.45894670078E+02  0.48883293204E+02  0.00000000000E+00 0.  1.
          5    1    3    3  503    0  0.66281118041E+02 -0.59961116130E+02  0.10165951236E+03  0.13544470646E+03  0.47000000000E+01 0. -1.
         13    1    6    6    0    0 -0.49452928967E+02  0.23228809456E+02  0.19501790773E+02  0.58012840092E+02  0.00000000000E+00 0. -1.
        -14    1    6    6    0    0 -0.25091662353E+02  0.43552295739E+02 -0.55366665343E+02  0.74778751093E+02  0.00000000000E+00 0.  1.
         -5    1    5    5    0  501  0.53622024225E+02 -0.19037848395E+01  0.11169406025E+02  0.55007195072E+02  0.47000000000E+01 0.  1.
<mgrwt>
<rscale>  2 0.18621760E+03</rscale>
<asrwt>0</asrwt>
<pdfrwt beam="1">  1        2 0.43671375E-01 0.18621760E+03</pdfrwt>
<pdfrwt beam="2">  1       -2 0.22941662E-01 0.18621760E+03</pdfrwt>
<totfact> 0.18979600E+03</totfact>
</mgrwt>
</event>
<event>
12    1  0.5759937E-002  0.1875779E+03  0.7546771E-02  0.1160664E+00
          2   -1    0    0  503    0  0.00000000000E+00  0.00000000000E+00  0.24350383678E+03  0.24350383678E+03  0.00000000000E+00 0. -1.
         -2   -1    0    0    0  501 -0.00000000000E+00 -0.00000000000E+00 -0.14778854747E+03  0.14778854747E+03  0.00000000000E+00 0.  1.
          6    2    1    2  503    0 -0.45513514585E+01 -0.69956873021E+02  0.18645997674E+02  0.18845377724E+03  0.17393238354E+03 0.  0.
         24    2    3    3    0    0 -0.72111235348E+01  0.23853897025E+02 -0.25646430580E+02  0.84571901219E+02  0.76639796244E+02 0.  0.
         -6    2    1    2    0  501  0.45513514585E+01  0.69956873021E+02  0.77069291635E+02  0.20283860702E+03  0.17403777147E+03 0.  0.
        -24    2    5    5    0    0  0.76013970263E+01 -0.29856442875E+02  0.18161056990E+02  0.86802961988E+02  0.79093247506E+02 0.  0.
          4    1    4    4  502    0 -0.36224933008E+02  0.26655413690E+02  0.11328518153E+01  0.44989334332E+02  0.00000000000E+00 0. -1.
         -3    1    4    4    0  502  0.29013809473E+02 -0.28015166651E+01 -0.26779282396E+02  0.39582566887E+02  0.00000000000E+00 0.  1.
          5    1    3    3  503    0  0.26597720763E+01 -0.93810770046E+02  0.44292428254E+02  0.10388187602E+03  0.47000000000E+01 0. -1.
         11    1    6    6    0    0  0.56460116367E+01 -0.15841704273E+02  0.49574512225E+02  0.52349491918E+02  0.00000000000E+00 0. -1.
        -12    1    6    6    0    0  0.19553853896E+01 -0.14014738602E+02 -0.31413455235E+02  0.34453470070E+02  0.00000000000E+00 0.  1.
         -5    1    5    5    0  501 -0.30500455679E+01  0.99813315895E+02  0.58908234644E+02  0.11603564503E+03  0.47000000000E+01 0.  1.
<mgrwt>
<rscale>  2 0.18757794E+03</rscale>
<asrwt>0</asrwt>
<pdfrwt beam="1">  1        2 0.37462129E-01 0.18757794E+03</pdfrwt>
<pdfrwt beam="2">  1       -2 0.22736700E-01 0.18757794E+03</pdfrwt>
<totfact> 0.22732654E+03</totfact>
</mgrwt>
</event>
<event>
12    1  0.5759937E-002  0.1771167E+03  0.7546771E-02  0.1170623E+00
         -1   -1    0    0    0  501 -0.00000000000E+00  0.00000000000E+00  0.38705366081E+02  0.38705366081E+02  0.00000000000E+00 0.  1.
          1   -1    0    0  503    0  0.00000000000E+00 -0.00000000000E+00 -0.81997670892E+03  0.81997670892E+03  0.00000000000E+00 0. -1.
          6    2    1    2  503    0 -0.23799537657E+02 -0.46993587333E+02 -0.43520445395E+03  0.46959317135E+03  0.16834492744E+03 0.  0.
         24    2    3    3    0    0 -0.20181179100E+02 -0.41914103340E+02 -0.44636974788E+03  0.45596792036E+03  0.80602236476E+02 0.  0.
         -6    2    1    2    0  501  0.23799537657E+02  0.46993587333E+02 -0.34606688889E+03  0.38908890365E+03  0.16986190896E+03 0.  0.
        -24    2    5    5    0    0 -0.40127182452E+01  0.50931283647E+02 -0.34001245264E+03  0.35997235803E+03  0.10659049222E+03 0.  0.
          4    1    4    4  502    0  0.11191383672E+02 -0.14180682349E+02 -0.35500913386E+03  0.35546845704E+03  0.00000000000E+00 0. -1.
         -3    1    4    4    0  502 -0.31372562772E+02 -0.27733420991E+02 -0.91360614013E+02  0.10049946332E+03  0.00000000000E+00 0.  1.
          5    1    3    3  503    0 -0.36183585567E+01 -0.50794839930E+01  0.11165293924E+02  0.13625250996E+02  0.47000000000E+01 0. -1.
         13    1    6    6    0    0  0.48085685617E+02  0.31857754364E+02 -0.12104894378E+03  0.13408950915E+03  0.00000000000E+00 0. -1.
        -14    1    6    6    0    0 -0.52098403862E+02  0.19073529283E+02 -0.21896350887E+03  0.22588284888E+03  0.00000000000E+00 0.  1.
         -5    1    5    5    0  501  0.27812255902E+02 -0.39376963140E+01 -0.60544362457E+01  0.29116545621E+02  0.47000000000E+01 0.  1.
<mgrwt>
<rscale>  2 0.17711665E+03</rscale>
<asrwt>0</asrwt>
<pdfrwt beam="2">  1        1 0.12615026E+00 0.17711665E+03</pdfrwt>
<pdfrwt beam="1">  1       -1 0.59546718E-02 0.17711665E+03</pdfrwt>
<totfact> 0.29630828E+03</totfact>
</mgrwt>
</event>
<event>
12    1  0.5759937E-002  0.3270818E+03  0.7546771E-02  0.1072435E+00
         -2   -1    0    0    0  501 -0.00000000000E+00  0.00000000000E+00  0.49186602764E+02  0.49186602764E+02  0.00000000000E+00 0.  1.
          2   -1    0    0  503    0  0.00000000000E+00 -0.00000000000E+00 -0.23116667123E+04  0.23116667123E+04  0.00000000000E+00 0. -1.
          6    2    1    2  503    0 -0.12883883806E+03  0.24638300762E+03 -0.84365022317E+03  0.90476841698E+03  0.17191904106E+03 0.  0.
         24    2    3    3    0    0 -0.10603001742E+03  0.19934065920E+03 -0.47227744762E+03  0.52970435144E+03  0.81004008524E+02 0.  0.
         -6    2    1    2    0  501  0.12883883806E+03 -0.24638300762E+03 -0.14188298864E+04  0.14560848981E+04  0.17262952049E+03 0.  0.
        -24    2    5    5    0    0  0.53135744773E+02 -0.74700038969E+02 -0.77816448826E+03  0.78849202635E+03  0.88182774026E+02 0.  0.
          4    1    4    4  502    0 -0.70905774353E+01  0.48876027066E+02 -0.48352093025E+02  0.69116330994E+02  0.00000000000E+00 0. -1.
         -3    1    4    4    0  502 -0.98939439986E+02  0.15046463213E+03 -0.42392535460E+03  0.46058802045E+03  0.00000000000E+00 0.  1.
          5    1    3    3  503    0 -0.22808820634E+02  0.47042348424E+02 -0.37137277554E+03  0.37506406554E+03  0.47000000000E+01 0. -1.
         11    1    6    6    0    0  0.15832870451E+01 -0.61253901372E+02 -0.58215937202E+03  0.58537516318E+03  0.00000000000E+00 0. -1.
        -12    1    6    6    0    0  0.51552457728E+02 -0.13446137598E+02 -0.19600511624E+03  0.20311686317E+03  0.00000000000E+00 0.  1.
         -5    1    5    5    0  501  0.75703093283E+02 -0.17168296865E+03 -0.64066539815E+03  0.66759287177E+03  0.47000000000E+01 0.  1.
<mgrwt>
<rscale>  2 0.32708182E+03</rscale>
<asrwt>0</asrwt>
<pdfrwt beam="2">  1        2 0.35564104E+00 0.32708182E+03</pdfrwt>
<pdfrwt beam="1">  1       -2 0.75671695E-02 0.32708182E+03</pdfrwt>
<totfact> 0.51884711E+02</totfact>
</mgrwt>
</event>
<event>
12    1  0.5759937E-002  0.1857891E+03  0.7546771E-02  0.1162315E+00
         -2   -1    0    0    0  501 -0.00000000000E+00  0.00000000000E+00  0.34752682562E+02  0.34752682562E+02  0.00000000000E+00 0. -1.
          2   -1    0    0  503    0  0.00000000000E+00 -0.00000000000E+00 -0.18534971387E+04  0.18534971387E+04  0.00000000000E+00 0.  1.
          6    2    1    2  503    0  0.58653062056E+02  0.32918420975E+02 -0.15528846561E+04  0.15639731598E+04  0.17331325776E+03 0.  0.
         24    2    3    3    0    0  0.10585054419E+03  0.39664809730E+02 -0.11965669979E+04  0.12044491972E+04  0.78406973834E+02 0.  0.
         -6    2    1    2    0  501 -0.58653062056E+02 -0.32918420975E+02 -0.26585980000E+03  0.32427666142E+03  0.17306101744E+03 0.  0.
        -24    2    5    5    0    0  0.31138747792E+01 -0.54965270598E+02 -0.78858108426E+02  0.12605219089E+03  0.81484209363E+02 0.  0.
          2    1    4    4  502    0  0.11462266862E+03  0.20473952743E+02 -0.10034849569E+04  0.10102175992E+04  0.00000000000E+00 0. -1.
         -1    1    4    4    0  502 -0.87721244350E+01  0.19190856987E+02 -0.19308204094E+03  0.19423159808E+03  0.00000000000E+00 0.  1.
          5    1    3    3  503    0 -0.47197482132E+02 -0.67463887552E+01 -0.35631765823E+03  0.35952396255E+03  0.47000000000E+01 0. -1.
         11    1    6    6    0    0  0.18412573674E+02  0.12070398378E+02 -0.43454755911E+02  0.48713788577E+02  0.00000000000E+00 0. -1.
        -12    1    6    6    0    0 -0.15298698895E+02 -0.67035668976E+02 -0.35403352515E+02  0.77338402312E+02  0.00000000000E+00 0.  1.
         -5    1    5    5    0  501 -0.61766936835E+02  0.22046849623E+02 -0.18700169158E+03  0.19822447053E+03  0.47000000000E+01 0.  1.
<mgrwt>
<rscale>  2 0.18578907E+03</rscale>
<asrwt>0</asrwt>
<pdfrwt beam="2">  1        2 0.28515348E+00 0.18578907E+03</pdfrwt>
<pdfrwt beam="1">  1       -2 0.53465651E-02 0.18578907E+03</pdfrwt>
<totfact> 0.15781768E+03</totfact>
</mgrwt>
</event>
<event>
12    1  0.5759937E-002  0.1874901E+03  0.7546771E-02  0.1160745E+00
         -2   -1    0    0    0  501 -0.00000000000E+00  0.00000000000E+00  0.21252667225E+02  0.21252667225E+02  0.00000000000E+00 0. -1.
          2   -1    0    0  503    0  0.00000000000E+00 -0.00000000000E+00 -0.16941271852E+04  0.16941271852E+04  0.00000000000E+00 0.  1.
          6    2    1    2  503    0 -0.66188601543E+02  0.29032126736E+02 -0.70327695408E+03  0.72776819052E+03  0.17269704583E+03 0.  0.
         24    2    3    3    0    0 -0.94786615772E+02  0.28692760221E+01 -0.64914959590E+03  0.66102838172E+03  0.81059165474E+02 0.  0.
         -6    2    1    2    0  501  0.66188601543E+02 -0.29032126736E+02 -0.96959756391E+03  0.98761166192E+03  0.17330194304E+03 0.  0.
        -24    2    5    5    0    0  0.80549189669E+02 -0.35733888382E+02 -0.38848819769E+03  0.40626724971E+03  0.79780421821E+02 0.  0.
          4    1    4    4  502    0 -0.77894625305E+02  0.50773766830E+01 -0.25901317446E+03  0.27052019693E+03  0.00000000000E+00 0. -1.
         -3    1    4    4    0  502 -0.16891990467E+02 -0.22081006609E+01 -0.39013642144E+03  0.39050818479E+03  0.00000000000E+00 0.  1.
          5    1    3    3  503    0  0.28598014229E+02  0.26162850714E+02 -0.54127358179E+02  0.66739808801E+02  0.47000000000E+01 0. -1.
         11    1    6    6    0    0  0.90519974569E+02 -0.25923523156E+02 -0.37568389289E+03  0.38730386291E+03  0.00000000000E+00 0. -1.
        -12    1    6    6    0    0 -0.99707849000E+01 -0.98103652262E+01 -0.12804304798E+02  0.18963386795E+02  0.00000000000E+00 0.  1.
         -5    1    5    5    0  501 -0.14360588126E+02  0.67017616459E+01 -0.58110936622E+03  0.58134441221E+03  0.47000000000E+01 0.  1.
<mgrwt>
<rscale>  2 0.18749015E+03</rscale>
<asrwt>0</asrwt>
<pdfrwt beam="2">  1        2 0.26063495E+00 0.18749015E+03</pdfrwt>
<pdfrwt beam="1">  1       -2 0.32696412E-02 0.18749015E+03</pdfrwt>
<totfact> 0.39933435E+03</totfact>
</mgrwt>
</event>
<event>
12    1  0.5759937E-002  0.2288427E+03  0.7546771E-02  0.1127457E+00
         -1   -1    0    0    0  501 -0.00000000000E+00  0.00000000000E+00  0.45740740096E+02  0.45740740096E+02  0.00000000000E+00 0. -1.
          1   -1    0    0  503    0  0.00000000000E+00 -0.00000000000E+00 -0.11899709885E+04  0.11899709885E+04  0.00000000000E+00 0.  1.
          6    2    1    2  503    0 -0.23769846015E+02 -0.14842842740E+03 -0.69136647667E+03  0.72812847021E+03  0.17201005910E+03 0.  0.
         24    2    3    3    0    0 -0.24328058197E+02 -0.15589610585E+03 -0.69615325168E+03  0.71807456365E+03  0.78142682949E+02 0.  0.
         -6    2    1    2    0  501  0.23769846015E+02  0.14842842740E+03 -0.45286377174E+03  0.50758325839E+03  0.17308715955E+03 0.  0.
        -24    2    5    5    0    0  0.17353224315E+02  0.17720244387E+03 -0.35129864337E+03  0.40172163948E+03  0.79168796158E+02 0.  0.
          2    1    4    4  502    0  0.17568155988E+02 -0.71007533235E+02 -0.19967299474E+03  0.21264998168E+03  0.00000000000E+00 0. -1.
         -1    1    4    4    0  502 -0.41896214185E+02 -0.84888572611E+02 -0.49648025694E+03  0.50542458197E+03  0.00000000000E+00 0.  1.
          5    1    3    3  503    0  0.55821218149E+00  0.74676784416E+01  0.47867750138E+01  0.10053906563E+02  0.47000000000E+01 0. -1.
         11    1    6    6    0    0 -0.26233986187E+02  0.41370862290E+02 -0.12448140276E+03  0.13377365178E+03  0.00000000000E+00 0. -1.
        -12    1    6    6    0    0  0.43587210502E+02  0.13583158158E+03 -0.22681724061E+03  0.26794798770E+03  0.00000000000E+00 0.  1.
         -5    1    5    5    0  501  0.64166216999E+01 -0.28774016463E+02 -0.10156512837E+03  0.10586161891E+03  0.47000000000E+01 0.  1.
<mgrwt>
<rscale>  2 0.22884271E+03</rscale>
<asrwt>0</asrwt>
<pdfrwt beam="2">  1        1 0.18307248E+00 0.22884271E+03</pdfrwt>
<pdfrwt beam="1">  1       -1 0.70370362E-02 0.22884271E+03</pdfrwt>
<totfact> 0.12221278E+03</totfact>
</mgrwt>
</event>
<event>
12    1  0.5759937E-002  0.1971535E+03  0.7546771E-02  0.1152163E+00
         -1   -1    0    0    0  501 -0.00000000000E+00  0.00000000000E+00  0.20476158461E+04  0.20476158461E+04  0.00000000000E+00 0.  1.
          1   -1    0    0  503    0  0.00000000000E+00 -0.00000000000E+00 -0.18985904339E+02  0.18985904339E+02  0.00000000000E+00 0. -1.
          6    2    1    2  503    0 -0.96814519528E+02  0.24387747765E+02  0.99971909495E+03  0.10184979909E+04  0.16712891780E+03 0.  0.
         24    2    3    3    0    0 -0.11236521902E+03 -0.11741398416E+02  0.91042738969E+03  0.92081361091E+03  0.79094065947E+02 0.  0.
         -6    2    1    2    0  501  0.96814519528E+02 -0.24387747765E+02  0.10289108468E+04  0.10481037596E+04  0.17290502221E+03 0.  0.
        -24    2    5    5    0    0  0.69027635033E+02 -0.31630107228E+02  0.10031122299E+04  0.10092164692E+04  0.80736966664E+02 0.  0.
          4    1    4    4  502    0 -0.61885075750E+02  0.72432852463E+00  0.22318662897E+03  0.23160863240E+03  0.00000000000E+00 0. -1.
         -3    1    4    4    0  502 -0.50480143275E+02 -0.12465726940E+02  0.68724076072E+03  0.68920497852E+03  0.00000000000E+00 0.  1.
          5    1    3    3  503    0  0.15550699496E+02  0.36129146180E+02  0.89291705259E+02  0.97684379952E+02  0.47000000000E+01 0. -1.
         13    1    6    6    0    0 -0.59346810082E+01  0.17341737630E+02  0.27670169130E+03  0.27730809991E+03  0.00000000000E+00 0. -1.
        -14    1    6    6    0    0  0.74962316041E+02 -0.48971844858E+02  0.72641053859E+03  0.73190836926E+03  0.00000000000E+00 0.  1.
         -5    1    5    5    0  501  0.27786884495E+02  0.72423594634E+01  0.25798616925E+02  0.38887290415E+02  0.47000000000E+01 0.  1.
<mgrwt>
<rscale>  2 0.19715355E+03</rscale>
<asrwt>0</asrwt>
<pdfrwt beam="2">  1        1 0.29209100E-02 0.19715355E+03</pdfrwt>
<pdfrwt beam="1">  1       -1 0.31501765E+00 0.19715355E+03</pdfrwt>
<totfact> 0.11107043E+02</totfact>
</mgrwt>
</event>
<event>
12    1  0.5759937E-002  0.2257363E+03  0.7546771E-02  0.1129677E+00
          2   -1    0    0  503    0  0.00000000000E+00  0.00000000000E+00  0.19322336888E+04  0.19322336888E+04  0.00000000000E+00 0.  1.
         -2   -1    0    0    0  501 -0.00000000000E+00 -0.00000000000E+00 -0.35224305731E+02  0.35224305731E+02  0.00000000000E+00 0. -1.
          6    2    1    2  503    0 -0.90834378586E+02  0.11256577358E+03  0.45457623732E+03  0.50743000826E+03  0.17298473930E+03 0.  0.
         24    2    3    3    0    0 -0.77725095895E+02  0.10701711898E+03  0.46478371614E+03  0.48929376046E+03  0.76750419836E+02 0.  0.
         -6    2    1    2    0  501  0.90834378586E+02 -0.11256577358E+03  0.14424331457E+04  0.14600279863E+04  0.17362719554E+03 0.  0.
        -24    2    5    5    0    0  0.15095497382E+02 -0.12468443793E+03  0.96584688424E+03  0.97728603159E+03  0.80334927912E+02 0.  0.
          4    1    4    4  502    0 -0.41693327702E+02  0.43466279303E+01  0.16930343147E+03  0.17441582112E+03  0.00000000000E+00 0. -1.
         -3    1    4    4    0  502 -0.36031768193E+02  0.10267049105E+03  0.29548028467E+03  0.31487793934E+03  0.00000000000E+00 0.  1.
          5    1    3    3  503    0 -0.13109282692E+02  0.55486545936E+01 -0.10207478820E+02  0.18136247802E+02  0.47000000000E+01 0. -1.
         13    1    6    6    0    0 -0.27151453880E+02 -0.14141197119E+02  0.21585651323E+03  0.21801653425E+03  0.00000000000E+00 0. -1.
        -14    1    6    6    0    0  0.42246951262E+02 -0.11054324081E+03  0.74999037101E+03  0.75926949734E+03  0.00000000000E+00 0.  1.
         -5    1    5    5    0  501  0.75738881204E+02  0.12118664349E+02  0.47658626149E+03  0.48274195467E+03  0.47000000000E+01 0.  1.
<mgrwt>
<rscale>  2 0.22573630E+03</rscale>
<asrwt>0</asrwt>
<pdfrwt beam="1">  1        2 0.29726664E+00 0.22573630E+03</pdfrwt>
<pdfrwt beam="2">  1       -2 0.54191255E-02 0.22573630E+03</pdfrwt>
<totfact> 0.14019002E+03</totfact>
</mgrwt>
</event>
<event>
12    1  0.5759937E-002  0.1842612E+03  0.7546771E-02  0.1163742E+00
          2   -1    0    0  503    0  0.00000000000E+00  0.00000000000E+00  0.95367988985E+03  0.95367988985E+03  0.00000000000E+00 0. -1.
         -2   -1    0    0    0  501 -0.00000000000E+00 -0.00000000000E+00 -0.36273810162E+02  0.36273810162E+02  0.00000000000E+00 0.  1.
          6    2    1    2  503    0 -0.43381089857E+02  0.47067582462E+02  0.52721542852E+03  0.55863970534E+03  0.17327704994E+03 0.  0.
         24    2    3    3    0    0 -0.72201760352E+02  0.34149259248E+02  0.51251339701E+03  0.52348641455E+03  0.70631282073E+02 0.  0.
         -6    2    1    2    0  501  0.43381089857E+02 -0.47067582462E+02  0.39019065117E+03  0.43131399467E+03  0.17229550622E+03 0.  0.
        -24    2    5    5    0    0  0.44567930697E+02  0.15190035549E+02  0.33716775768E+03  0.34939368690E+03  0.78592709588E+02 0.  0.
          2    1    4    4  502    0 -0.67463541759E+02  0.30292915134E+01  0.42811845404E+03  0.43341194811E+03  0.00000000000E+00 0. -1.
         -1    1    4    4    0  502 -0.47382185930E+01  0.31119967734E+02  0.84394942962E+02  0.90074466442E+02  0.00000000000E+00 0.  1.
          5    1    3    3  503    0  0.28820670495E+02  0.12918323215E+02  0.14702031515E+02  0.35153290787E+02  0.47000000000E+01 0. -1.
         11    1    6    6    0    0  0.19272637023E+02  0.24394411002E+02  0.30852519030E+03  0.31008759226E+03  0.00000000000E+00 0. -1.
        -12    1    6    6    0    0  0.25295293673E+02 -0.92043754530E+01  0.28642567380E+02  0.39306094637E+02  0.00000000000E+00 0.  1.
         -5    1    5    5    0  501 -0.11868408394E+01 -0.62257618012E+02  0.53022893490E+02  0.81920307774E+02  0.47000000000E+01 0.  1.
<mgrwt>
<rscale>  2 0.18426120E+03</rscale>
<asrwt>0</asrwt>
<pdfrwt beam="1">  1        2 0.14671996E+00 0.18426120E+03</pdfrwt>
<pdfrwt beam="2">  1       -2 0.55805869E-02 0.18426120E+03</pdfrwt>
<totfact> 0.45830645E+03</totfact>
</mgrwt>
</event>
<event>
12    1  0.5759937E-002  0.1945711E+03  0.7546771E-02  0.1154402E+00
         -2   -1    0    0    0  501 -0.00000000000E+00  0.00000000000E+00  0.79591827658E+02  0.79591827658E+02  0.00000000000E+00 0.  1.
          2   -1    0    0  503    0  0.00000000000E+00 -0.00000000000E+00 -0.48455570692E+03  0.48455570692E+03  0.00000000000E+00 0. -1.
          6    2    1    2  503    0  0.84313726740E+02 -0.35538638070E+02 -0.23994292645E+03  0.30844980030E+03  0.17087092216E+03 0.  0.
         24    2    3    3    0    0  0.50781987004E+02 -0.89993059115E+02 -0.15834717301E+03  0.20467302776E+03  0.78355983794E+02 0.  0.
         -6    2    1    2    0  501 -0.84313726740E+02  0.35538638070E+02 -0.16502095281E+03  0.25569773428E+03  0.17256192261E+03 0.  0.
        -24    2    5    5    0    0 -0.39408300849E+01  0.20827750197E+02 -0.15229315797E+03  0.17287080931E+03  0.79004970883E+02 0.  0.
          4    1    4    4  502    0 -0.19652101886E+02 -0.19233623950E+02 -0.51881780147E+02  0.58718451189E+02  0.00000000000E+00 0. -1.
         -3    1    4    4    0  502  0.70434088890E+02 -0.70759435165E+02 -0.10646539287E+03  0.14595457657E+03  0.00000000000E+00 0.  1.
          5    1    3    3  503    0  0.33531739737E+02  0.54454421046E+02 -0.81595753440E+02  0.10377677255E+03  0.47000000000E+01 0. -1.
         11    1    6    6    0    0 -0.24936473319E+02  0.41068350391E+02 -0.12051327424E+03  0.12973776002E+03  0.00000000000E+00 0. -1.
        -12    1    6    6    0    0  0.20995643234E+02 -0.20240600194E+02 -0.31779883733E+02  0.43133049291E+02  0.00000000000E+00 0.  1.
         -5    1    5    5    0  501 -0.80372896655E+02  0.14710887873E+02 -0.12727794838E+02  0.82826924971E+02  0.47000000000E+01 0.  1.
<mgrwt>
<rscale>  2 0.19457114E+03</rscale>
<asrwt>0</asrwt>
<pdfrwt beam="2">  1        2 0.74547033E-01 0.19457114E+03</pdfrwt>
<pdfrwt beam="1">  1       -2 0.12244896E-01 0.19457114E+03</pdfrwt>
<totfact> 0.30429156E+03</totfact>
</mgrwt>
</event>
<event>
12    1  0.5759937E-002  0.1899679E+03  0.7546771E-02  0.1158490E+00
         -1   -1    0    0    0  501 -0.00000000000E+00  0.00000000000E+00  0.27601080407E+03  0.27601080407E+03  0.00000000000E+00 0. -1.
          1   -1    0    0  503    0  0.00000000000E+00 -0.00000000000E+00 -0.13170356269E+03  0.13170356269E+03  0.00000000000E+00 0.  1.
          6    2    1    2  503    0  0.73009417903E+02 -0.30184094744E+02  0.89498968574E+02  0.20994552806E+03  0.17270091111E+03 0.  0.
         24    2    3    3    0    0  0.10469599638E+03 -0.56752436458E+01  0.25633981272E+02  0.13441043925E+03  0.80097472718E+02 0.  0.
         -6    2    1    2    0  501 -0.73009417903E+02  0.30184094744E+02  0.54808272799E+02  0.19776883870E+03  0.17282104072E+03 0.  0.
        -24    2    5    5    0    0  0.35923421926E+01 -0.13057345548E+02  0.71574947272E+02  0.10809797843E+03  0.79867394279E+02 0.  0.
          4    1    4    4  502    0  0.19785152371E+02  0.14338164337E+02 -0.23825624227E+02  0.34127636612E+02  0.00000000000E+00 0. -1.
         -3    1    4    4    0  502  0.84910844010E+02 -0.20013407983E+02  0.49459605499E+02  0.10028280264E+03  0.00000000000E+00 0.  1.
          5    1    3    3  503    0 -0.31686578477E+02 -0.24508851098E+02  0.63864987303E+02  0.75535088806E+02  0.47000000000E+01 0. -1.
         11    1    6    6    0    0  0.31766767239E+02  0.18964393454E+02  0.23498317748E+02  0.43828605463E+02  0.00000000000E+00 0. -1.
        -12    1    6    6    0    0 -0.28174425046E+02 -0.32021739002E+02  0.48076629524E+02  0.64269372969E+02  0.00000000000E+00 0.  1.
         -5    1    5    5    0  501 -0.76601760096E+02  0.43241440292E+02 -0.16766674473E+02  0.89670860268E+02  0.47000000000E+01 0.  1.
<mgrwt>
<rscale>  2 0.18996791E+03</rscale>
<asrwt>0</asrwt>
<pdfrwt beam="2">  1        1 0.20262087E-01 0.18996791E+03</pdfrwt>
<pdfrwt beam="1">  1       -1 0.42463200E-01 0.18996791E+03</pdfrwt>
<totfact> 0.13799156E+03</totfact>
</mgrwt>
</event>
<event>
12    1  0.5759937E-002  0.2323597E+03  0.7546771E-02  0.1124990E+00
         -2   -1    0    0    0  501 -0.00000000000E+00  0.00000000000E+00  0.72520232172E+02  0.72520232172E+02  0.00000000000E+00 0.  1.
          2   -1    0    0  503    0  0.00000000000E+00 -0.00000000000E+00 -0.76176820051E+03  0.76176820051E+03  0.00000000000E+00 0. -1.
          6    2    1    2  503    0  0.10213009563E+03 -0.11591341478E+03 -0.28131724422E+03  0.36465210605E+03  0.17310485376E+03 0.  0.
         24    2    3    3    0    0  0.58222550044E+02 -0.18231938301E+02 -0.59781620551E+02  0.11854305307E+03  0.82196985150E+02 0.  0.
         -6    2    1    2    0  501 -0.10213009563E+03  0.11591341478E+03 -0.40793072411E+03  0.46963632662E+03  0.17402392781E+03 0.  0.
        -24    2    5    5    0    0 -0.70390388886E+02  0.13852021807E+03 -0.38861087926E+03  0.42588906449E+03  0.78869652662E+02 0.  0.
          2    1    4    4  502    0 -0.17090399354E+02  0.10300545016E+02 -0.21624597777E+02  0.29424585073E+02  0.00000000000E+00 0. -1.
         -1    1    4    4    0  502  0.75312949398E+02 -0.28532483317E+02 -0.38157022773E+02  0.89118467997E+02  0.00000000000E+00 0.  1.
          5    1    3    3  503    0  0.43907545585E+02 -0.97681476475E+02 -0.22153562367E+03  0.24610905298E+03  0.47000000000E+01 0. -1.
         11    1    6    6    0    0 -0.10808768950E+02 -0.51133659713E+01 -0.73854576728E+02  0.74816271635E+02  0.00000000000E+00 0. -1.
        -12    1    6    6    0    0 -0.59581619937E+02  0.14363358404E+03 -0.31475630253E+03  0.35107279285E+03  0.00000000000E+00 0.  1.
         -5    1    5    5    0  501 -0.31739706743E+02 -0.22606803293E+02 -0.19319844859E+02  0.43747262138E+02  0.47000000000E+01 0.  1.
<mgrwt>
<rscale>  2 0.23235974E+03</rscale>
<asrwt>0</asrwt>
<pdfrwt beam="2">  1        2 0.11719511E+00 0.23235974E+03</pdfrwt>
<pdfrwt beam="1">  1       -2 0.11156959E-01 0.23235974E+03</pdfrwt>
<totfact> 0.20938353E+03</totfact>
</mgrwt>
</event>
<event>
12    1  0.5759937E-002  0.2170004E+03  0.7546771E-02  0.1136139E+00
         -4   -1    0    0    0  501 -0.00000000000E+00  0.00000000000E+00  0.13689232975E+03  0.13689232975E+03  0.00000000000E+00 0.  1.
          4   -1    0    0  503    0  0.00000000000E+00 -0.00000000000E+00 -0.40387868443E+03  0.40387868443E+03  0.00000000000E+00 0. -1.
          6    2    1    2  503    0  0.12794447878E+03 -0.32503974468E+02 -0.23714254554E+03  0.32084415275E+03  0.17110840260E+03 0.  0.
         24    2    3    3    0    0  0.10182816719E+03  0.34618066065E+02 -0.13284325838E+03  0.19400621931E+03  0.91780693517E+02 0.  0.
         -6    2    1    2    0  501 -0.12794447878E+03  0.32503974468E+02 -0.29843809141E+02  0.21992686142E+03  0.17335187747E+03 0.  0.
        -24    2    5    5    0    0 -0.76163977738E+02  0.87787531035E+02 -0.21601784524E+02  0.14358871313E+03  0.81507541574E+02 0.  0.
          2    1    4    4  502    0  0.62317550656E+02 -0.14943266565E+02 -0.24744293815E+02  0.68695403135E+02  0.00000000000E+00 0. -1.
         -1    1    4    4    0  502  0.39510616538E+02  0.49561332630E+02 -0.10809896456E+03  0.12531081618E+03  0.00000000000E+00 0.  1.
          5    1    3    3  503    0  0.26116311588E+02 -0.67122040533E+02 -0.10429928716E+03  0.12683793344E+03  0.47000000000E+01 0. -1.
         11    1    6    6    0    0  0.95911606291E+01  0.27808587868E+02 -0.25408768064E+02  0.38870469716E+02  0.00000000000E+00 0. -1.
        -12    1    6    6    0    0 -0.85755138368E+02  0.59978943166E+02  0.38069835402E+01  0.10471824341E+03  0.00000000000E+00 0.  1.
         -5    1    5    5    0  501 -0.51780501044E+02 -0.55283556567E+02 -0.82420246171E+01  0.76338148293E+02  0.47000000000E+01 0.  1.
<mgrwt>
<rscale>  2 0.21700044E+03</rscale>
<asrwt>0</asrwt>
<pdfrwt beam="2">  1        4 0.62135181E-01 0.21700044E+03</pdfrwt>
<pdfrwt beam="1">  1       -4 0.21060359E-01 0.21700044E+03</pdfrwt>
<totfact> 0.90865559E+01</totfact>
</mgrwt>
</event>
<event>
12    1  0.5759937E-002  0.1748473E+03  0.7546771E-02  0.1172885E+00
          3   -1    0    0  503    0  0.00000000000E+00  0.00000000000E+00  0.13602707014E+03  0.13602707014E+03  0.00000000000E+00 0. -1.
         -3   -1    0    0    0  501 -0.00000000000E+00 -0.00000000000E+00 -0.51904023563E+03  0.51904023563E+03  0.00000000000E+00 0.  1.
          6    2    1    2  503    0 -0.14179737747E+02 -0.19966071495E+02  0.55486113617E+02  0.18270738280E+03  0.17234723656E+03 0.  0.
         24    2    3    3    0    0  0.35831071462E+02 -0.46513521192E+02 -0.90116576980E+01  0.96754485068E+02  0.76373078179E+02 0.  0.
         -6    2    1    2    0  501  0.14179737747E+02  0.19966071495E+02 -0.43849927911E+03  0.47235992298E+03  0.17390391049E+03 0.  0.
        -24    2    5    5    0    0 -0.44762376099E+02  0.51285429679E+02 -0.22284597739E+03  0.24656463621E+03  0.80622109756E+02 0.  0.
          4    1    4    4  502    0  0.99662271731E+01  0.20960871124E+02 -0.77908519887E+01  0.24482262499E+02  0.00000000000E+00 0. -1.
         -3    1    4    4    0  502  0.25864844289E+02 -0.67474392316E+02 -0.12208057093E+01  0.72272222569E+02  0.00000000000E+00 0.  1.
          5    1    3    3  503    0 -0.50010809209E+02  0.26547449697E+02  0.64497771315E+02  0.85952897728E+02  0.47000000000E+01 0. -1.
         11    1    6    6    0    0  0.20121522949E+02  0.66868869616E+01 -0.20723328961E+02  0.29648718459E+02  0.00000000000E+00 0. -1.
        -12    1    6    6    0    0 -0.64883899048E+02  0.44598542717E+02 -0.20212264843E+03  0.21691591776E+03  0.00000000000E+00 0.  1.
         -5    1    5    5    0  501  0.58942113846E+02 -0.31319358184E+02 -0.21565330172E+03  0.22579528677E+03  0.47000000000E+01 0.  1.
<mgrwt>
<rscale>  2 0.17484734E+03</rscale>
<asrwt>0</asrwt>
<pdfrwt beam="1">  1        3 0.20927241E-01 0.17484734E+03</pdfrwt>
<pdfrwt beam="2">  1       -3 0.79852345E-01 0.17484734E+03</pdfrwt>
<totfact> 0.74806319E+01</totfact>
</mgrwt>
</event>
<event>
12    1  0.5759937E-002  0.2797065E+03  0.7546771E-02  0.1095849E+00
         -2   -1    0    0    0  501 -0.00000000000E+00  0.00000000000E+00  0.32200739232E+03  0.32200739232E+03  0.00000000000E+00 0.  1.
          2   -1    0    0  503    0  0.00000000000E+00 -0.00000000000E+00 -0.26211635720E+03  0.26211635720E+03  0.00000000000E+00 0. -1.
          6    2    1    2  503    0 -0.21649520896E+03 -0.41441791556E+02  0.10891364023E+03  0.30032986139E+03  0.17247680142E+03 0.  0.
         24    2    3    3    0    0 -0.18434048163E+03  0.19294338471E+02  0.11248168877E+03  0.23135432261E+03  0.80740371663E+02 0.  0.
         -6    2    1    2    0  501  0.21649520896E+03  0.41441791556E+02 -0.49022605104E+02  0.28379388813E+03  0.17189577521E+03 0.  0.
        -24    2    5    5    0    0  0.13569833228E+03 -0.37309961171E+02 -0.31315517418E+01  0.16190027624E+03  0.79973884773E+02 0.  0.
          2    1    4    4  502    0 -0.13589947979E+03 -0.22900727246E+02  0.73093427667E+02  0.15599923424E+03  0.00000000000E+00 0. -1.
         -1    1    4    4    0  502 -0.48441001839E+02  0.42195065717E+02  0.39388261104E+02  0.75355088367E+02  0.00000000000E+00 0.  1.
          5    1    3    3  503    0 -0.32154727335E+02 -0.60736130027E+02 -0.35680485440E+01  0.68975538788E+02  0.47000000000E+01 0. -1.
         13    1    6    6    0    0  0.11876698226E+03 -0.13421760022E+02 -0.28820405198E+02  0.12294858874E+03  0.00000000000E+00 0. -1.
        -14    1    6    6    0    0  0.16931350018E+02 -0.23888201149E+02  0.25688853456E+02  0.38951687505E+02  0.00000000000E+00 0.  1.
         -5    1    5    5    0  501  0.80796876686E+02  0.78751752727E+02 -0.45891053363E+02  0.12189361189E+03  0.47000000000E+01 0.  1.
<mgrwt>
<rscale>  2 0.27970652E+03</rscale>
<asrwt>0</asrwt>
<pdfrwt beam="2">  1        2 0.40325593E-01 0.27970652E+03</pdfrwt>
<pdfrwt beam="1">  1       -2 0.49539599E-01 0.27970652E+03</pdfrwt>
<totfact> 0.49765153E+02</totfact>
</mgrwt>
</event>
<event>
12    1  0.5759937E-002  0.2094334E+03  0.7546771E-02  0.1142015E+00
         -2   -1    0    0    0  501 -0.00000000000E+00  0.00000000000E+00  0.62013421674E+02  0.62013421674E+02  0.00000000000E+00 0.  1.
          2   -1    0    0  503    0  0.00000000000E+00 -0.00000000000E+00 -0.73039727579E+03  0.73039727579E+03  0.00000000000E+00 0. -1.
          6    2    1    2  503    0 -0.48092915538E+02 -0.10277721334E+03 -0.40265402223E+03  0.45328545413E+03  0.17453182291E+03 0.  0.
         24    2    3    3    0    0 -0.48147648275E+02 -0.13162542021E+03 -0.23890748898E+03  0.28695073380E+03  0.74969914384E+02 0.  0.
         -6    2    1    2    0  501  0.48092915538E+02  0.10277721334E+03 -0.26572983189E+03  0.33912524334E+03  0.17753169577E+03 0.  0.
        -24    2    5    5    0    0  0.82033711979E+02  0.70138835661E+02 -0.25816831685E+03  0.29120334990E+03  0.80619631604E+02 0.  0.
          4    1    4    4  502    0 -0.25069790486E+02 -0.12742739171E+03 -0.22468844389E+03  0.25952096518E+03  0.00000000000E+00 0. -1.
         -3    1    4    4    0  502 -0.23077857789E+02 -0.41980284994E+01 -0.14219045089E+02  0.27429768622E+02  0.00000000000E+00 0.  1.
          5    1    3    3  503    0  0.54732736609E-01  0.28848206869E+02 -0.16374653325E+03  0.16633472033E+03  0.47000000000E+01 0. -1.
         13    1    6    6    0    0 -0.16146200020E+02  0.15267913006E+02 -0.44568494335E+02  0.49801201089E+02  0.00000000000E+00 0. -1.
        -14    1    6    6    0    0  0.98179911998E+02  0.54870922655E+02 -0.21359982252E+03  0.24140214881E+03  0.00000000000E+00 0.  1.
         -5    1    5    5    0  501 -0.33940796440E+02  0.32638377678E+02 -0.75615150428E+01  0.47921893433E+02  0.47000000000E+01 0.  1.
<mgrwt>
<rscale>  2 0.20943337E+03</rscale>
<asrwt>0</asrwt>
<pdfrwt beam="2">  1        2 0.11236881E+00 0.20943337E+03</pdfrwt>
<pdfrwt beam="1">  1       -2 0.95405269E-02 0.20943337E+03</pdfrwt>
<totfact> 0.28246203E+03</totfact>
</mgrwt>
</event>
<event>
12    1  0.5759937E-002  0.1904061E+03  0.7546771E-02  0.1158096E+00
         -2   -1    0    0    0  501 -0.00000000000E+00  0.00000000000E+00  0.21826374479E+02  0.21826374479E+02  0.00000000000E+00 0. -1.
          2   -1    0    0  503    0  0.00000000000E+00 -0.00000000000E+00 -0.17814675584E+04  0.17814675584E+04  0.00000000000E+00 0.  1.
          6    2    1    2  503    0 -0.77050664224E+02  0.22033500381E+02 -0.64304454963E+03  0.67048682334E+03  0.17211626148E+03 0.  0.
         24    2    3    3    0    0  0.12378579305E+02  0.58588872960E+01 -0.44992257916E+03  0.45699819792E+03  0.78926990786E+02 0.  0.
         -6    2    1    2    0  501  0.77050664224E+02 -0.22033500381E+02 -0.11165966343E+04  0.11328071095E+04  0.17332519643E+03 0.  0.
        -24    2    5    5    0    0  0.29738147149E+02  0.34697430326E+02 -0.29540423360E+03  0.30828547748E+03  0.75418865902E+02 0.  0.
          2    1    4    4  502    0 -0.18385430043E+02 -0.77296888761E+01 -0.36663045540E+03  0.36717252478E+03  0.00000000000E+00 0. -1.
         -1    1    4    4    0  502  0.30764009347E+02  0.13588576172E+02 -0.83292123757E+02  0.89825673131E+02  0.00000000000E+00 0.  1.
          5    1    3    3  503    0 -0.89429243529E+02  0.16174613085E+02 -0.19312197047E+03  0.21348862542E+03  0.47000000000E+01 0. -1.
         11    1    6    6    0    0 -0.17820473859E+02 -0.59865978411E+01 -0.13152919442E+03  0.13286586329E+03  0.00000000000E+00 0. -1.
        -12    1    6    6    0    0  0.47558621008E+02  0.40684028167E+02 -0.16387503918E+03  0.17541961420E+03  0.00000000000E+00 0.  1.
         -5    1    5    5    0  501  0.47312517076E+02 -0.56730930706E+02 -0.82119240065E+03  0.82452163202E+03  0.47000000000E+01 0.  1.
<mgrwt>
<rscale>  2 0.19040613E+03</rscale>
<asrwt>0</asrwt>
<pdfrwt beam="2">  1        2 0.27407188E+00 0.19040613E+03</pdfrwt>
<pdfrwt beam="1">  1       -2 0.33579044E-02 0.19040613E+03</pdfrwt>
<totfact> 0.34582251E+03</totfact>
</mgrwt>
</event>
<event>
12    1  0.5759937E-002  0.2327603E+03  0.7546771E-02  0.1124712E+00
          2   -1    0    0  503    0  0.00000000000E+00  0.00000000000E+00  0.55550561020E+03  0.55550561020E+03  0.00000000000E+00 0. -1.
         -2   -1    0    0    0  501 -0.00000000000E+00 -0.00000000000E+00 -0.11401393502E+03  0.11401393502E+03  0.00000000000E+00 0.  1.
          6    2    1    2  503    0  0.11206751553E+03  0.10857505138E+03  0.93043844025E+02  0.25020041693E+03  0.17203320000E+03 0.  0.
         24    2    3    3    0    0 -0.50997858511E+01  0.60875282044E+02  0.64765078481E+02  0.12048833928E+03  0.81185692900E+02 0.  0.
         -6    2    1    2    0  501 -0.11206751553E+03 -0.10857505138E+03  0.34844783116E+03  0.41931912830E+03  0.17339253299E+03 0.  0.
        -24    2    5    5    0    0 -0.55558847325E+02 -0.46849346721E+02  0.67039565751E+02  0.12569352649E+03  0.77607425038E+02 0.  0.
          2    1    4    4  502    0  0.52683156064E+01  0.19863489425E+02  0.74329912518E+02  0.77118410619E+02  0.00000000000E+00 0. -1.
         -1    1    4    4    0  502 -0.10368101457E+02  0.41011792619E+02 -0.95648340374E+01  0.43369928659E+02  0.00000000000E+00 0.  1.
          5    1    3    3  503    0  0.11716730138E+03  0.47699769339E+02  0.28278765544E+02  0.12971207765E+03  0.47000000000E+01 0. -1.
         13    1    6    6    0    0 -0.16444400569E+02 -0.99458152349E+00  0.63187141474E+02  0.65299482005E+02  0.00000000000E+00 0. -1.
        -14    1    6    6    0    0 -0.39114446756E+02 -0.45854765198E+02  0.38524242770E+01  0.60394044484E+02  0.00000000000E+00 0.  1.
         -5    1    5    5    0  501 -0.56508668205E+02 -0.61725704662E+02  0.28140826540E+03  0.29362560181E+03  0.47000000000E+01 0.  1.
<mgrwt>
<rscale>  2 0.23276030E+03</rscale>
<asrwt>0</asrwt>
<pdfrwt beam="1">  1        2 0.85462400E-01 0.23276030E+03</pdfrwt>
<pdfrwt beam="2">  1       -2 0.17540606E-01 0.23276030E+03</pdfrwt>
<totfact> 0.14496977E+03</totfact>
</mgrwt>
</event>
<event>
12    1  0.5759937E-002  0.1776687E+03  0.7546771E-02  0.1170079E+00
          2   -1    0    0  503    0  0.00000000000E+00  0.00000000000E+00  0.32210164497E+04  0.32210164497E+04  0.00000000000E+00 0. -1.
         -2   -1    0    0    0  501 -0.00000000000E+00 -0.00000000000E+00 -0.99497856335E+01  0.99497856335E+01  0.00000000000E+00 0.  1.
          6    2    1    2  503    0 -0.13757364119E+02 -0.32354318590E+02  0.15365598180E+04  0.15481783360E+04  0.18602155494E+03 0.  0.
         24    2    3    3    0    0  0.67297682881E+02 -0.28155430165E+02  0.85593175246E+03  0.86271192190E+03  0.79567511978E+02 0.  0.
         -6    2    1    2    0  501  0.13757364119E+02  0.32354318590E+02  0.16745068461E+04  0.16827878994E+04  0.16299039688E+03 0.  0.
        -24    2    5    5    0    0  0.23577129259E-01  0.14959785267E+02  0.65207624726E+03  0.66010632320E+03  0.10155358171E+03 0.  0.
          2    1    4    4  502    0  0.20772482820E+02 -0.30700268597E+02  0.67021466686E+03  0.67123893079E+03  0.00000000000E+00 0. -1.
         -1    1    4    4    0  502  0.46525200061E+02  0.25448384314E+01  0.18571708560E+03  0.19147299112E+03  0.00000000000E+00 0.  1.
          5    1    3    3  503    0 -0.81055047000E+02 -0.41988884249E+01  0.68062806552E+03  0.68546641412E+03  0.47000000000E+01 0. -1.
         13    1    6    6    0    0 -0.21495835350E+00  0.22540861478E+02  0.65213181142E+03  0.65252129169E+03  0.00000000000E+00 0. -1.
        -14    1    6    6    0    0  0.23853548276E+00 -0.75810762111E+01 -0.55564157212E-01  0.75850315141E+01  0.00000000000E+00 0.  1.
         -5    1    5    5    0  501  0.13733786989E+02  0.17394533323E+02  0.10224305989E+04  0.10226815761E+04  0.47000000000E+01 0.  1.
<mgrwt>
<rscale>  2 0.17766874E+03</rscale>
<asrwt>0</asrwt>
<pdfrwt beam="1">  1        2 0.49554016E+00 0.17766874E+03</pdfrwt>
<pdfrwt beam="2">  1       -2 0.15307388E-02 0.17766874E+03</pdfrwt>
<totfact> 0.17825546E+03</totfact>
</mgrwt>
</event>
<event>
12    1  0.5759937E-002  0.1867223E+03  0.7546771E-02  0.1161451E+00
         -2   -1    0    0    0  501 -0.00000000000E+00  0.00000000000E+00  0.10492510211E+03  0.10492510211E+03  0.00000000000E+00 0.  1.
          2   -1    0    0  503    0  0.00000000000E+00 -0.00000000000E+00 -0.37300572455E+03  0.37300572455E+03  0.00000000000E+00 0. -1.
          6    2    1    2  503    0 -0.45253032070E+02  0.54532979039E+02 -0.21561559781E+03  0.28816890972E+03  0.17756562672E+03 0.  0.
         24    2    3    3    0    0 -0.34732089148E+02  0.63655041942E+02 -0.42025457333E+02  0.11395774721E+03  0.77213643248E+02 0.  0.
         -6    2    1    2    0  501  0.45253032070E+02 -0.54532979039E+02 -0.52465024637E+02  0.18976191694E+03  0.16803369781E+03 0.  0.
        -24    2    5    5    0    0  0.52415024592E+02 -0.56250587709E+02  0.26409859017E+02  0.11040461364E+03  0.74700968126E+02 0.  0.
          2    1    4    4  502    0 -0.15868811668E+02 -0.14714429336E+02 -0.22084439509E+02  0.30920156579E+02  0.00000000000E+00 0. -1.
         -1    1    4    4    0  502 -0.18863277480E+02  0.78369471278E+02 -0.19941017824E+02  0.83037590630E+02  0.00000000000E+00 0.  1.
          5    1    3    3  503    0 -0.10520942922E+02 -0.91220629034E+01 -0.17359014048E+03  0.17421116251E+03  0.47000000000E+01 0. -1.
         11    1    6    6    0    0  0.44789009182E+02 -0.56150074396E+01 -0.11631175622E+02  0.46614031132E+02  0.00000000000E+00 0. -1.
        -12    1    6    6    0    0  0.76260154108E+01 -0.50635580270E+02  0.38041034639E+02  0.63790582508E+02  0.00000000000E+00 0.  1.
         -5    1    5    5    0  501 -0.71619925223E+01  0.17176086703E+01 -0.78874883654E+02  0.79357303305E+02  0.47000000000E+01 0.  1.
<mgrwt>
<rscale>  2 0.18672235E+03</rscale>
<asrwt>0</asrwt>
<pdfrwt beam="2">  1        2 0.57385496E-01 0.18672235E+03</pdfrwt>
<pdfrwt beam="1">  1       -2 0.16142323E-01 0.18672235E+03</pdfrwt>
<totfact> 0.25710595E+03</totfact>
</mgrwt>
</event>
<event>
12    1  0.5759937E-002  0.1942879E+03  0.7546771E-02  0.1154650E+00
         -2   -1    0    0    0  501 -0.00000000000E+00  0.00000000000E+00  0.42550388022E+03  0.42550388022E+03  0.00000000000E+00 0.  1.
          2   -1    0    0  503    0  0.00000000000E+00 -0.00000000000E+00 -0.14568150518E+03  0.14568150518E+03  0.00000000000E+00 0. -1.
          6    2    1    2  503    0 -0.11897221236E+02  0.87397433382E+02 -0.38731153509E+02  0.19799779049E+03  0.17298314239E+03 0.  0.
         24    2    3    3    0    0 -0.12931461288E+02  0.27710360047E+02  0.43718988939E+02  0.96097190068E+02  0.79926423667E+02 0.  0.
         -6    2    1    2    0  501  0.11897221236E+02 -0.87397433382E+02  0.31855352856E+03  0.37318759491E+03  0.17324195568E+03 0.  0.
        -24    2    5    5    0    0  0.48417196710E+01 -0.61636979367E+02  0.32883707560E+03  0.34418376011E+03  0.80660268789E+02 0.  0.
          2    1    4    4  502    0  0.13239164308E+02 -0.16149805271E+02 -0.89597283397E+01  0.22723741192E+02  0.00000000000E+00 0. -1.
         -1    1    4    4    0  502 -0.26170625596E+02  0.43860165318E+02  0.52678717278E+02  0.73373448876E+02  0.00000000000E+00 0.  1.
          5    1    3    3  503    0  0.10342400521E+01  0.59687073335E+02 -0.82450142448E+02  0.10190060042E+03  0.47000000000E+01 0. -1.
         11    1    6    6    0    0  0.36080373402E+02 -0.44255856825E+01  0.11068872003E+03  0.11650481490E+03  0.00000000000E+00 0. -1.
        -12    1    6    6    0    0 -0.31238653731E+02 -0.57211393685E+02  0.21814835557E+03  0.22767894521E+03  0.00000000000E+00 0.  1.
         -5    1    5    5    0  501  0.70555015651E+01 -0.25760454015E+02 -0.10283547043E+02  0.29003834801E+02  0.47000000000E+01 0.  1.
<mgrwt>
<rscale>  2 0.19428793E+03</rscale>
<asrwt>0</asrwt>
<pdfrwt beam="2">  1        2 0.22412539E-01 0.19428793E+03</pdfrwt>
<pdfrwt beam="1">  1       -2 0.65462135E-01 0.19428793E+03</pdfrwt>
<totfact> 0.53566157E+02</totfact>
</mgrwt>
</event>
<event>
12    1  0.5759937E-002  0.1874278E+03  0.7546771E-02  0.1160802E+00
          2   -1    0    0  503    0  0.00000000000E+00  0.00000000000E+00  0.24421871681E+03  0.24421871681E+03  0.00000000000E+00 0.  1.
         -2   -1    0    0    0  501 -0.00000000000E+00 -0.00000000000E+00 -0.28387465982E+03  0.28387465982E+03  0.00000000000E+00 0. -1.
          6    2    1    2  503    0  0.14398925294E+02 -0.74069227896E+02  0.16571580611E+03  0.24867089886E+03  0.16935733812E+03 0.  0.
         24    2    3    3    0    0  0.50204974824E+02 -0.97059174514E+02  0.15198899344E+03  0.20371396152E+03  0.80359822912E+02 0.  0.
         -6    2    1    2    0  501 -0.14398925294E+02  0.74069227896E+02 -0.20537174912E+03  0.27942247777E+03  0.17379811902E+03 0.  0.
        -24    2    5    5    0    0 -0.51042890246E+02 -0.15374347184E+00 -0.61526187179E+02  0.11339397017E+03  0.80419652325E+02 0.  0.
          2    1    4    4  502    0  0.46008778632E+02 -0.11070125825E+03  0.14395411305E+03  0.18733489518E+03  0.00000000000E+00 0. -1.
         -1    1    4    4    0  502  0.41961961922E+01  0.13642083740E+02  0.80348803930E+01  0.16379066340E+02  0.00000000000E+00 0.  1.
          5    1    3    3  503    0 -0.35806049530E+02  0.22989946618E+02  0.13726812670E+02  0.44956937335E+02  0.47000000000E+01 0. -1.
         11    1    6    6    0    0 -0.44430804963E+02  0.34188085519E+02 -0.53541014811E+02  0.77521364075E+02  0.00000000000E+00 0. -1.
        -12    1    6    6    0    0 -0.66120852831E+01 -0.34341828990E+02 -0.79851723676E+01  0.35872606093E+02  0.00000000000E+00 0.  1.
         -5    1    5    5    0  501  0.36643964952E+02  0.74222971368E+02 -0.14384556194E+03  0.16602850760E+03  0.47000000000E+01 0.  1.
<mgrwt>
<rscale>  2 0.18742776E+03</rscale>
<asrwt>0</asrwt>
<pdfrwt beam="1">  1        2 0.37572110E-01 0.18742776E+03</pdfrwt>
<pdfrwt beam="2">  1       -2 0.43673025E-01 0.18742776E+03</pdfrwt>
<totfact> 0.68694255E+02</totfact>
</mgrwt>
</event>
<event>
12    1  0.5759937E-002  0.2726935E+03  0.7546771E-02  0.1099748E+00
          2   -1    0    0  503    0  0.00000000000E+00  0.00000000000E+00  0.38259863207E+03  0.38259863207E+03  0.00000000000E+00 0. -1.
         -2   -1    0    0    0  501 -0.00000000000E+00 -0.00000000000E+00 -0.21290168422E+03  0.21290168422E+03  0.00000000000E+00 0.  1.
          6    2    1    2  503    0  0.23266529456E+02  0.21118077203E+03 -0.33521988959E+01  0.27151914867E+03  0.16903479224E+03 0.  0.
         24    2    3    3    0    0  0.59724636350E+02  0.67848015052E+02  0.15888889458E+02  0.12230191688E+03  0.80838831823E+02 0.  0.
         -6    2    1    2    0  501 -0.23266529456E+02 -0.21118077203E+03  0.17304914674E+03  0.32398116762E+03  0.17285583564E+03 0.  0.
        -24    2    5    5    0    0 -0.40658186112E+02 -0.17650687698E+03  0.19609008829E+03  0.27861902805E+03  0.79808986634E+02 0.  0.
          2    1    4    4  502    0  0.64752605950E+02  0.27309669769E+02  0.33458957024E+02  0.77834567162E+02  0.00000000000E+00 0. -1.
         -1    1    4    4    0  502 -0.50279695995E+01  0.40538345283E+02 -0.17570067566E+02  0.44467349717E+02  0.00000000000E+00 0.  1.
          5    1    3    3  503    0 -0.36458106894E+02  0.14333275698E+03 -0.19241088354E+02  0.14921723179E+03  0.47000000000E+01 0. -1.
         11    1    6    6    0    0 -0.36757650783E+02 -0.10682203102E+03  0.65595558380E+02  0.13063249397E+03  0.00000000000E+00 0. -1.
        -12    1    6    6    0    0 -0.39005353292E+01 -0.69684845962E+02  0.13049452991E+03  0.14798653408E+03  0.00000000000E+00 0.  1.
         -5    1    5    5    0  501  0.17391656656E+02 -0.34673895051E+02 -0.23040941544E+02  0.45362139571E+02  0.47000000000E+01 0.  1.
<mgrwt>
<rscale>  2 0.27269348E+03</rscale>
<asrwt>0</asrwt>
<pdfrwt beam="1">  1        2 0.58861328E-01 0.27269348E+03</pdfrwt>
<pdfrwt beam="2">  1       -2 0.32754105E-01 0.27269348E+03</pdfrwt>
<totfact> 0.73121476E+02</totfact>
</mgrwt>
</event>
<event>
12    1  0.5759937E-002  0.2829207E+03  0.7546771E-02  0.1094104E+00
         -2   -1    0    0    0  501 -0.00000000000E+00  0.00000000000E+00  0.64870506599E+03  0.64870506599E+03  0.00000000000E+00 0. -1.
          2   -1    0    0  503    0  0.00000000000E+00 -0.00000000000E+00 -0.10539589802E+04  0.10539589802E+04  0.00000000000E+00 0.  1.
          6    2    1    2  503    0 -0.20155548856E+03  0.95702905701E+02 -0.10026540024E+04  0.10420693823E+04  0.17552745613E+03 0.  0.
         24    2    3    3    0    0 -0.20983635857E+03  0.47858561391E+02 -0.74123110082E+03  0.77613390599E+03  0.81477333753E+02 0.  0.
         -6    2    1    2    0  501  0.20155548856E+03 -0.95702905701E+02  0.59740008818E+03  0.66059466390E+03  0.17237976531E+03 0.  0.
        -24    2    5    5    0    0  0.41796634562E+02 -0.78927724214E+02  0.22762995834E+03  0.25741190501E+03  0.80429761880E+02 0.  0.
          2    1    4    4  502    0 -0.93185649377E+02 -0.76633488832E+01 -0.21829920068E+03  0.23748017430E+03  0.00000000000E+00 0. -1.
         -1    1    4    4    0  502 -0.11665070920E+03  0.55521910274E+02 -0.52293190014E+03  0.53865373169E+03  0.00000000000E+00 0.  1.
          5    1    3    3  503    0  0.82808700086E+01  0.47844344310E+02 -0.26142290156E+03  0.26593547629E+03  0.47000000000E+01 0. -1.
         11    1    6    6    0    0  0.57429389516E+02 -0.22810475860E+02  0.11091622609E+03  0.12696795579E+03  0.00000000000E+00 0. -1.
        -12    1    6    6    0    0 -0.15632754954E+02 -0.56117248355E+02  0.11671373226E+03  0.13044394922E+03  0.00000000000E+00 0.  1.
         -5    1    5    5    0  501  0.15975885400E+03 -0.16775181487E+02  0.36977012984E+03  0.40318275889E+03  0.47000000000E+01 0.  1.
<mgrwt>
<rscale>  2 0.28292070E+03</rscale>
<asrwt>0</asrwt>
<pdfrwt beam="2">  1        2 0.16214753E+00 0.28292070E+03</pdfrwt>
<pdfrwt beam="1">  1       -2 0.99800781E-01 0.28292070E+03</pdfrwt>
<totfact> 0.21257549E+01</totfact>
</mgrwt>
</event>
<event>
12    1  0.5759937E-002  0.1997941E+03  0.7546771E-02  0.1149913E+00
          1   -1    0    0  503    0  0.00000000000E+00  0.00000000000E+00  0.24557522253E+04  0.24557522253E+04  0.00000000000E+00 0.  1.
         -1   -1    0    0    0  501 -0.00000000000E+00 -0.00000000000E+00 -0.21572314999E+02  0.21572314999E+02  0.00000000000E+00 0. -1.
          6    2    1    2  503    0  0.62713624252E+02 -0.75790721554E+02  0.18343979403E+04  0.18453014474E+04  0.17448322677E+03 0.  0.
         24    2    3    3    0    0  0.67622338387E+02  0.15966984340E+02  0.11082140473E+04  0.11133118926E+04  0.80605645934E+02 0.  0.
         -6    2    1    2    0  501 -0.62713624252E+02  0.75790721554E+02  0.59978196999E+03  0.63202309284E+03  0.17331343347E+03 0.  0.
        -24    2    5    5    0    0 -0.21287747249E+02  0.31145368789E+02  0.12760295922E+03  0.15590922094E+03  0.81252494064E+02 0.  0.
          2    1    4    4  502    0  0.83838514285E+02  0.95786875568E+00  0.91713307573E+03  0.92095759543E+03  0.00000000000E+00 0. -1.
         -1    1    4    4    0  502 -0.16216175898E+02  0.15009115584E+02  0.19108097162E+03  0.19235429713E+03  0.00000000000E+00 0.  1.
          5    1    3    3  503    0 -0.49087141346E+01 -0.91757705894E+02  0.72618389294E+03  0.73198955487E+03  0.47000000000E+01 0. -1.
         11    1    6    6    0    0 -0.37741225717E+02  0.35357686026E+02  0.12888804788E+03  0.13887654578E+03  0.00000000000E+00 0. -1.
        -12    1    6    6    0    0  0.16453478468E+02 -0.42123172370E+01 -0.12850886647E+01  0.17032675159E+02  0.00000000000E+00 0.  1.
         -5    1    5    5    0  501 -0.41425877003E+02  0.44645352765E+02  0.47217901077E+03  0.47611387190E+03  0.47000000000E+01 0.  1.
<mgrwt>
<rscale>  2 0.19979411E+03</rscale>
<asrwt>0</asrwt>
<pdfrwt beam="1">  1        1 0.37780781E+00 0.19979411E+03</pdfrwt>
<pdfrwt beam="2">  1       -1 0.33188196E-02 0.19979411E+03</pdfrwt>
<totfact> 0.55775454E+02</totfact>
</mgrwt>
</event>
<event>
12    1  0.5759937E-002  0.4066753E+03  0.7546771E-02  0.1041492E+00
         -2   -1    0    0    0  501 -0.00000000000E+00  0.00000000000E+00  0.32739670406E+03  0.32739670406E+03  0.00000000000E+00 0.  1.
          2   -1    0    0  503    0  0.00000000000E+00 -0.00000000000E+00 -0.50692125009E+03  0.50692125009E+03  0.00000000000E+00 0. -1.
          6    2    1    2  503    0 -0.33669172911E+03  0.14812555658E+03 -0.11439413404E+03  0.42237077246E+03  0.17322976233E+03 0.  0.
         24    2    3    3    0    0 -0.20020356980E+03  0.69924570343E+02 -0.13503679402E+03  0.26364893624E+03  0.79403469354E+02 0.  0.
         -6    2    1    2    0  501  0.33669172911E+03 -0.14812555658E+03 -0.65130411986E+02  0.41194718170E+03  0.17365485592E+03 0.  0.
        -24    2    5    5    0    0  0.25861572400E+03 -0.44544228856E+02 -0.67880190371E+02  0.28212189408E+03  0.78222514959E+02 0.  0.
          4    1    4    4  502    0 -0.83774420229E+02  0.16857810895E+02 -0.98873982505E+02  0.13068436666E+03  0.00000000000E+00 0. -1.
         -3    1    4    4    0  502 -0.11642914957E+03  0.53066759448E+02 -0.36162811512E+02  0.13296456958E+03  0.00000000000E+00 0.  1.
          5    1    3    3  503    0 -0.13648815931E+03  0.78200986235E+02  0.20642659972E+02  0.15872183622E+03  0.47000000000E+01 0. -1.
         13    1    6    6    0    0  0.18417092309E+03 -0.32230892418E+02 -0.10387010007E+02  0.18725824232E+03  0.00000000000E+00 0. -1.
        -14    1    6    6    0    0  0.74444800913E+02 -0.12313336439E+02 -0.57493180364E+02  0.94863651762E+02  0.00000000000E+00 0.  1.
         -5    1    5    5    0  501  0.78076005105E+02 -0.10358132772E+03  0.27497783850E+01  0.12982528763E+03  0.47000000000E+01 0.  1.
<mgrwt>
<rscale>  2 0.40667526E+03</rscale>
<asrwt>0</asrwt>
<pdfrwt beam="2">  1        2 0.77987884E-01 0.40667526E+03</pdfrwt>
<pdfrwt beam="1">  1       -2 0.50368724E-01 0.40667526E+03</pdfrwt>
<totfact> 0.23171113E+02</totfact>
</mgrwt>
</event>
<event>
12    1  0.5759937E-002  0.2588028E+03  0.7546771E-02  0.1107865E+00
         -4   -1    0    0    0  501 -0.00000000000E+00  0.00000000000E+00  0.15384221023E+03  0.15384221023E+03  0.00000000000E+00 0.  1.
          4   -1    0    0  503    0  0.00000000000E+00 -0.00000000000E+00 -0.43546180850E+03  0.43546180850E+03  0.00000000000E+00 0. -1.
          6    2    1    2  503    0 -0.13456621547E+03 -0.13657424701E+03 -0.13633179293E+03  0.29193790332E+03  0.17286060957E+03 0.  0.
         24    2    3    3    0    0 -0.13992495322E+03 -0.14838358723E+03 -0.15504027524E+03  0.26869411065E+03  0.81008374009E+02 0.  0.
         -6    2    1    2    0  501  0.13456621547E+03  0.13657424701E+03 -0.14528780535E+03  0.29736611541E+03  0.17480694757E+03 0.  0.
        -24    2    5    5    0    0  0.16468322934E+03  0.97440540051E+02 -0.13169487780E+03  0.24593325409E+03  0.80773756613E+02 0.  0.
          4    1    4    4  502    0 -0.60937942512E+02 -0.12107436205E+03 -0.10302713943E+03  0.17025576479E+03  0.00000000000E+00 0. -1.
         -3    1    4    4    0  502 -0.78987010705E+02 -0.27309225182E+02 -0.52013135814E+02  0.98438345869E+02  0.00000000000E+00 0.  1.
          5    1    3    3  503    0  0.53587377474E+01  0.11809340226E+02  0.18708482318E+02  0.23243792666E+02  0.47000000000E+01 0. -1.
         11    1    6    6    0    0  0.86029401582E+02  0.16557968438E+02 -0.90149588670E+02  0.12570669271E+03  0.00000000000E+00 0. -1.
        -12    1    6    6    0    0  0.78653827756E+02  0.80882571613E+02 -0.41545289128E+02  0.12022656138E+03  0.00000000000E+00 0.  1.
         -5    1    5    5    0  501 -0.30117013868E+02  0.39133706955E+02 -0.13592927549E+02  0.51432861321E+02  0.47000000000E+01 0.  1.
<mgrwt>
<rscale>  2 0.25880276E+03</rscale>
<asrwt>0</asrwt>
<pdfrwt beam="2">  1        4 0.66994123E-01 0.25880276E+03</pdfrwt>
<pdfrwt beam="1">  1       -4 0.23668033E-01 0.25880276E+03</pdfrwt>
<totfact> 0.63658070E+01</totfact>
</mgrwt>
</event>
<event>
12    1  0.5759937E-002  0.1759567E+03  0.7546771E-02  0.1171775E+00
         -2   -1    0    0    0  501 -0.00000000000E+00  0.00000000000E+00  0.17556406099E+03  0.17556406099E+03  0.00000000000E+00 0.  1.
          2   -1    0    0  503    0  0.00000000000E+00 -0.00000000000E+00 -0.19975150075E+03  0.19975150075E+03  0.00000000000E+00 0. -1.
          6    2    1    2  503    0  0.70334325936E+01  0.35209372682E+02  0.52237275780E+02  0.17955406136E+03  0.16799332985E+03 0.  0.
         24    2    3    3    0    0  0.32847053097E+01  0.93913770221E+02  0.11419785550E+02  0.10780159273E+03  0.51576994545E+02 0.  0.
         -6    2    1    2    0  501 -0.70334325936E+01 -0.35209372682E+02 -0.76424715545E+02  0.19576150037E+03  0.17661443538E+03 0.  0.
        -24    2    5    5    0    0  0.34011142069E+02 -0.75705821546E+02 -0.21909717336E+02  0.11627191295E+03  0.78428265476E+02 0.  0.
          4    1    4    4  502    0 -0.14367739890E+02  0.80468958481E+02 -0.21899483324E+01  0.81770906209E+02  0.00000000000E+00 0. -1.
         -3    1    4    4    0  502  0.17652445199E+02  0.13444811741E+02  0.13609733882E+02  0.26030686518E+02  0.00000000000E+00 0.  1.
          5    1    3    3  503    0  0.37487272839E+01 -0.58704397540E+02  0.40817490230E+02  0.71752468637E+02  0.47000000000E+01 0. -1.
         11    1    6    6    0    0  0.62293727613E+01 -0.42013839134E+02  0.27292122301E+02  0.50485915892E+02  0.00000000000E+00 0. -1.
        -12    1    6    6    0    0  0.27781769307E+02 -0.33691982411E+02 -0.49201839636E+02  0.65785997053E+02  0.00000000000E+00 0.  1.
         -5    1    5    5    0  501 -0.41044574662E+02  0.40496448864E+02 -0.54514998209E+02  0.79489587429E+02  0.47000000000E+01 0.  1.
<mgrwt>
<rscale>  2 0.17595671E+03</rscale>
<asrwt>0</asrwt>
<pdfrwt beam="2">  1        2 0.30731000E-01 0.17595671E+03</pdfrwt>
<pdfrwt beam="1">  1       -2 0.27009856E-01 0.17595671E+03</pdfrwt>
<totfact> 0.20774050E+03</totfact>
</mgrwt>
</event>
<event>
12    1  0.5759937E-002  0.1933610E+03  0.7546771E-02  0.1155464E+00
          1   -1    0    0  503    0  0.00000000000E+00  0.00000000000E+00  0.26978154877E+03  0.26978154877E+03  0.00000000000E+00 0.  1.
         -1   -1    0    0    0  501 -0.00000000000E+00 -0.00000000000E+00 -0.13874665220E+03  0.13874665220E+03  0.00000000000E+00 0. -1.
          6    2    1    2  503    0 -0.70709076378E+02  0.54595511114E+02  0.71236536074E+02  0.20396183309E+03  0.16895366812E+03 0.  0.
         24    2    3    3    0    0 -0.28512060653E+02  0.45002708223E+02  0.10986897367E+03  0.14576247538E+03  0.79607326936E+02 0.  0.
         -6    2    1    2    0  501  0.70709076378E+02 -0.54595511114E+02  0.59798360494E+02  0.20456636788E+03  0.17404341882E+03 0.  0.
        -24    2    5    5    0    0  0.42534199136E+01  0.23855412237E+02 -0.28847205384E+01  0.84058441591E+02  0.80438347299E+02 0.  0.
          4    1    4    4  502    0 -0.45390905707E+02  0.94905073068E+01  0.91034297888E+02  0.10216480530E+03  0.00000000000E+00 0. -1.
         -3    1    4    4    0  502  0.16878845054E+02  0.35512200916E+02  0.18834675786E+02  0.43597670078E+02  0.00000000000E+00 0.  1.
          5    1    3    3  503    0 -0.42197015725E+02  0.95928028909E+01 -0.38632437599E+02  0.58199357714E+02  0.47000000000E+01 0. -1.
         13    1    6    6    0    0 -0.56725337021E+01 -0.26960578959E+01 -0.38234640445E+02  0.38747052749E+02  0.00000000000E+00 0. -1.
        -14    1    6    6    0    0  0.99259536157E+01  0.26551470133E+02  0.35349919906E+02  0.45311388842E+02  0.00000000000E+00 0.  1.
         -5    1    5    5    0  501  0.66455656465E+02 -0.78450923351E+02  0.62683081032E+02  0.12050792629E+03  0.47000000000E+01 0.  1.
<mgrwt>
<rscale>  2 0.19336102E+03</rscale>
<asrwt>0</asrwt>
<pdfrwt beam="1">  1        1 0.41504853E-01 0.19336102E+03</pdfrwt>
<pdfrwt beam="2">  1       -1 0.21345639E-01 0.19336102E+03</pdfrwt>
<totfact> 0.17983109E+03</totfact>
</mgrwt>
</event>
<event>
12    1  0.5759937E-002  0.2356861E+03  0.7546771E-02  0.1122700E+00
          2   -1    0    0  503    0  0.00000000000E+00  0.00000000000E+00  0.19307900773E+03  0.19307900773E+03  0.00000000000E+00 0.  1.
         -2   -1    0    0    0  501 -0.00000000000E+00 -0.00000000000E+00 -0.34799692585E+03  0.34799692585E+03  0.00000000000E+00 0. -1.
          6    2    1    2  503    0  0.14739950610E+03 -0.61585152310E+02 -0.19006167547E+03  0.30273154879E+03  0.17321548652E+03 0.  0.
         24    2    3    3    0    0  0.11490004001E+03 -0.30067183193E+01 -0.18952425277E+03  0.23557481385E+03  0.79780893598E+02 0.  0.
         -6    2    1    2    0  501 -0.14739950610E+03  0.61585152310E+02  0.35143757345E+02  0.23834438479E+03  0.17335978973E+03 0.  0.
        -24    2    5    5    0    0 -0.12241856489E+03  0.10198005064E+03  0.56316784038E+02  0.18613152915E+03  0.78020062931E+02 0.  0.
          4    1    4    4  502    0  0.87191125830E+02  0.77699829239E+01 -0.18608462030E+03  0.20564569281E+03  0.00000000000E+00 0. -1.
         -3    1    4    4    0  502  0.27708914177E+02 -0.10776701243E+02 -0.34396324653E+01  0.29929121037E+02  0.00000000000E+00 0.  1.
          5    1    3    3  503    0  0.32499466094E+02 -0.58578433991E+02 -0.53742269728E+00  0.67156734944E+02  0.47000000000E+01 0.  1.
         13    1    6    6    0    0 -0.55682894921E+02  0.72434010958E+02 -0.39975583538E+01  0.91450813026E+02  0.00000000000E+00 0. -1.
        -14    1    6    6    0    0 -0.66735669968E+02  0.29546039683E+02  0.60314342391E+02  0.94680716121E+02  0.00000000000E+00 0.  1.
         -5    1    5    5    0  501 -0.24980941212E+02 -0.40394898331E+02 -0.21173026692E+02  0.52212855642E+02  0.47000000000E+01 0.  1.
<mgrwt>
<rscale>  2 0.23568613E+03</rscale>
<asrwt>0</asrwt>
<pdfrwt beam="1">  1        2 0.29704463E-01 0.23568613E+03</pdfrwt>
<pdfrwt beam="2">  1       -2 0.53537988E-01 0.23568613E+03</pdfrwt>
<totfact> 0.59405635E+02</totfact>
</mgrwt>
</event>
<event>
12    1  0.5759937E-002  0.3620867E+03  0.7546771E-02  0.1057761E+00
         -2   -1    0    0    0  501 -0.00000000000E+00  0.00000000000E+00  0.30652208475E+03  0.30652208475E+03  0.00000000000E+00 0.  1.
          2   -1    0    0  503    0  0.00000000000E+00 -0.00000000000E+00 -0.11500627852E+04  0.11500627852E+04  0.00000000000E+00 0. -1.
          6    2    1    2  503    0  0.88198150156E+02  0.30316529706E+03  0.15497285770E+03  0.39479294544E+03  0.17932309421E+03 0.  0.
         24    2    3    3    0    0  0.38449714840E+02  0.29138389878E+03  0.96935299649E+02  0.31730645432E+03  0.70028398521E+02 0.  0.
         -6    2    1    2    0  501 -0.88198150156E+02 -0.30316529706E+03 -0.99851355816E+03  0.10617919245E+04  0.17517035747E+03 0.  0.
        -24    2    5    5    0    0 -0.61062801269E+02 -0.31500696532E+03 -0.93427228701E+03  0.99090057678E+03  0.77853663335E+02 0.  0.
          2    1    4    4  502    0  0.58729415353E+02  0.21082534469E+03  0.64916330175E+02  0.22827746300E+03  0.00000000000E+00 0. -1.
         -1    1    4    4    0  502 -0.20279700513E+02  0.80558554090E+02  0.32018969474E+02  0.89028991324E+02  0.00000000000E+00 0.  1.
          5    1    3    3  503    0  0.49748435315E+02  0.11781398280E+02  0.58037558048E+02  0.77486491119E+02  0.47000000000E+01 0. -1.
         13    1    6    6    0    0 -0.22545052166E+02 -0.10828972645E+03 -0.44138137225E+03  0.45503017482E+03  0.00000000000E+00 0. -1.
        -14    1    6    6    0    0 -0.38517749103E+02 -0.20671723887E+03 -0.49289091476E+03  0.53587040196E+03  0.00000000000E+00 0.  1.
         -5    1    5    5    0  501 -0.27135348887E+02  0.11841668262E+02 -0.64241271150E+02  0.70891347747E+02  0.47000000000E+01 0.  1.
<mgrwt>
<rscale>  2 0.36208667E+03</rscale>
<asrwt>0</asrwt>
<pdfrwt beam="2">  1        2 0.17693274E+00 0.36208667E+03</pdfrwt>
<pdfrwt beam="1">  1       -2 0.47157243E-01 0.36208667E+03</pdfrwt>
<totfact> 0.91815412E+01</totfact>
</mgrwt>
</event>
<event>
12    1  0.5759937E-002  0.2389372E+03  0.7546771E-02  0.1120503E+00
         -2   -1    0    0    0  501 -0.00000000000E+00  0.00000000000E+00  0.60097704025E+02  0.60097704025E+02  0.00000000000E+00 0. -1.
          2   -1    0    0  503    0  0.00000000000E+00 -0.00000000000E+00 -0.10378680087E+04  0.10378680087E+04  0.00000000000E+00 0.  1.
          6    2    1    2  503    0 -0.64554437465E+02  0.15322305992E+03 -0.64679423599E+03  0.68917804716E+03  0.17023223985E+03 0.  0.
         24    2    3    3    0    0 -0.61161274403E+02  0.10062238273E+03 -0.60572115474E+03  0.62218974370E+03  0.79726999663E+02 0.  0.
         -6    2    1    2    0  501  0.64554437465E+02 -0.15322305992E+03 -0.33097606865E+03  0.40878766553E+03  0.17296709510E+03 0.  0.
        -24    2    5    5    0    0 -0.10962756925E+02 -0.85051370179E+02 -0.92303017192E+02  0.14929365515E+03  0.80092639349E+02 0.  0.
          2    1    4    4  502    0 -0.90512628208E+01 -0.90226470122E+01 -0.18085174793E+02  0.22145136375E+02  0.00000000000E+00 0. -1.
         -1    1    4    4    0  502 -0.52110011582E+02  0.10964502974E+03 -0.58763597995E+03  0.60004460733E+03  0.00000000000E+00 0.  1.
          5    1    3    3  503    0 -0.33931630621E+01  0.52600677192E+02 -0.41073081255E+02  0.66988303459E+02  0.47000000000E+01 0. -1.
         11    1    6    6    0    0  0.21246537247E+02 -0.11331964190E+02  0.33457404619E+01  0.24310959188E+02  0.00000000000E+00 0. -1.
        -12    1    6    6    0    0 -0.32209294172E+02 -0.73719405989E+02 -0.95648757654E+02  0.12498269597E+03  0.00000000000E+00 0.  1.
         -5    1    5    5    0  501  0.75517194389E+02 -0.68171689739E+02 -0.23867305145E+03  0.25949401038E+03  0.47000000000E+01 0.  1.
<mgrwt>
<rscale>  2 0.23893716E+03</rscale>
<asrwt>0</asrwt>
<pdfrwt beam="2">  1        2 0.15967199E+00 0.23893716E+03</pdfrwt>
<pdfrwt beam="1">  1       -2 0.92458015E-02 0.23893716E+03</pdfrwt>
<totfact> 0.18702985E+03</totfact>
</mgrwt>
</event>
<event>
12    1  0.5759937E-002  0.1785967E+03  0.7546771E-02  0.1169168E+00
          2   -1    0    0  503    0  0.00000000000E+00  0.00000000000E+00  0.25586351943E+04  0.25586351943E+04  0.00000000000E+00 0.  1.
         -2   -1    0    0    0  501 -0.00000000000E+00 -0.00000000000E+00 -0.12470644073E+02  0.12470644073E+02  0.00000000000E+00 0. -1.
          6    2    1    2  503    0 -0.41606839861E+02 -0.17628470895E+02  0.12916663219E+04  0.13038623804E+04  0.17208523393E+03 0.  0.
         24    2    3    3    0    0  0.37391420262E+02 -0.37612301254E+02  0.73804280594E+03  0.74425433362E+03  0.79965781409E+02 0.  0.
         -6    2    1    2    0  501  0.41606839861E+02  0.17628470895E+02  0.12544982283E+04  0.12672434580E+04  0.17348857264E+03 0.  0.
        -24    2    5    5    0    0 -0.18747049636E+01  0.94982109413E+01  0.24471233116E+03  0.25647820632E+03  0.76178834106E+02 0.  0.
          4    1    4    4  502    0  0.19265458702E+02 -0.57216738346E+02  0.34011569955E+03  0.34543248563E+03  0.00000000000E+00 0. -1.
         -3    1    4    4    0  502  0.18125961560E+02  0.19604437092E+02  0.39792710639E+03  0.39882184799E+03  0.00000000000E+00 0.  1.
          5    1    3    3  503    0 -0.78998260123E+02  0.19983830359E+02  0.55362351597E+03  0.55960804678E+03  0.47000000000E+01 0. -1.
         13    1    6    6    0    0  0.36891937730E+02  0.97842570419E+00  0.12705068445E+03  0.13230211187E+03  0.00000000000E+00 0. -1.
        -14    1    6    6    0    0 -0.38766642693E+02  0.85197852371E+01  0.11766164671E+03  0.12417609445E+03  0.00000000000E+00 0.  1.
         -5    1    5    5    0  501  0.43481544824E+02  0.81302599540E+01  0.10097858971E+04  0.10107652516E+04  0.47000000000E+01 0.  1.
<mgrwt>
<rscale>  2 0.17859669E+03</rscale>
<asrwt>0</asrwt>
<pdfrwt beam="1">  1        2 0.39363577E+00 0.17859669E+03</pdfrwt>
<pdfrwt beam="2">  1       -2 0.19185627E-02 0.17859669E+03</pdfrwt>
<totfact> 0.30795828E+03</totfact>
</mgrwt>
</event>
<event>
12    1  0.5759937E-002  0.1964717E+03  0.7546771E-02  0.1152750E+00
          1   -1    0    0  503    0  0.00000000000E+00  0.00000000000E+00  0.46107799135E+03  0.46107799135E+03  0.00000000000E+00 0. -1.
         -1   -1    0    0    0  501 -0.00000000000E+00 -0.00000000000E+00 -0.88997704905E+02  0.88997704905E+02  0.00000000000E+00 0.  1.
          6    2    1    2  503    0 -0.68484320155E+02  0.62403666128E+02  0.11915305729E+03  0.22986974256E+03  0.17337337693E+03 0.  0.
         24    2    3    3    0    0 -0.41013473582E+02  0.36228853525E+02 -0.83395789262E+01  0.96767411566E+02  0.79370955151E+02 0.  0.
         -6    2    1    2    0  501  0.68484320155E+02 -0.62403666128E+02  0.25292722915E+03  0.32020595370E+03  0.17313390737E+03 0.  0.
        -24    2    5    5    0    0  0.48788106494E+02  0.96692110198E+01  0.21703196571E+03  0.23718185846E+03  0.81722621485E+02 0.  0.
          2    1    4    4  502    0 -0.26461877565E+02  0.54056968108E+02  0.16996490433E+02  0.62540126737E+02  0.00000000000E+00 0. -1.
         -1    1    4    4    0  502 -0.14551596017E+02 -0.17828114583E+02 -0.25336069359E+02  0.34227284829E+02  0.00000000000E+00 0.  1.
          5    1    3    3  503    0 -0.27470846573E+02  0.26174812603E+02  0.12749263622E+03  0.13310233099E+03  0.47000000000E+01 0. -1.
         13    1    6    6    0    0 -0.27787721606E+00 -0.15165382079E+02  0.14868959054E+03  0.14946123365E+03  0.00000000000E+00 0. -1.
        -14    1    6    6    0    0  0.49065983711E+02  0.24834593099E+02  0.68342375170E+02  0.87720624803E+02  0.00000000000E+00 0.  1.
         -5    1    5    5    0  501  0.19696213661E+02 -0.72072877147E+02  0.35895263440E+02  0.83024095239E+02  0.47000000000E+01 0.  1.
<mgrwt>
<rscale>  2 0.19647172E+03</rscale>
<asrwt>0</asrwt>
<pdfrwt beam="1">  1        1 0.70935074E-01 0.19647172E+03</pdfrwt>
<pdfrwt beam="2">  1       -1 0.13691955E-01 0.19647172E+03</pdfrwt>
<totfact> 0.18556690E+03</totfact>
</mgrwt>
</event>
<event>
12    1  0.5759937E-002  0.2256588E+03  0.7546771E-02  0.1129733E+00
          2   -1    0    0  503    0  0.00000000000E+00  0.00000000000E+00  0.17332351610E+03  0.17332351610E+03  0.00000000000E+00 0.  1.
         -2   -1    0    0    0  501 -0.00000000000E+00 -0.00000000000E+00 -0.29401172960E+03  0.29401172960E+03  0.00000000000E+00 0. -1.
          6    2    1    2  503    0  0.13860156190E+03 -0.40953428962E+02 -0.53869295155E+02  0.23123394431E+03  0.17227785620E+03 0.  0.
         24    2    3    3    0    0  0.45154991203E+02 -0.29991748725E+02  0.33263705760E+02  0.10291142151E+03  0.80906169943E+02 0.  0.
         -6    2    1    2    0  501 -0.13860156190E+03  0.40953428962E+02 -0.66818918351E+02  0.23610130139E+03  0.17433152430E+03 0.  0.
        -24    2    5    5    0    0 -0.73194121818E+02  0.91814107502E+02 -0.31472795976E+02  0.14589941557E+03  0.80677709254E+02 0.  0.
          4    1    4    4  502    0 -0.14487124171E+02 -0.34655020504E+02  0.12515870901E+02  0.39591593012E+02  0.00000000000E+00 0. -1.
         -3    1    4    4    0  502  0.59642115374E+02  0.46632717787E+01  0.20747834860E+02  0.63319828501E+02  0.00000000000E+00 0.  1.
          5    1    3    3  503    0  0.93446570694E+02 -0.10961680237E+02 -0.87133000916E+02  0.12832252280E+03  0.47000000000E+01 0. -1.
         13    1    6    6    0    0 -0.17686762141E+02  0.11063303182E+02 -0.42448646596E+02  0.47298053133E+02  0.00000000000E+00 0. -1.
        -14    1    6    6    0    0 -0.55507359677E+02  0.80750804320E+02  0.10975850619E+02  0.98601362433E+02  0.00000000000E+00 0.  1.
         -5    1    5    5    0  501 -0.65407440079E+02 -0.50860678540E+02 -0.35346122375E+02  0.90201885824E+02  0.47000000000E+01 0.  1.
<mgrwt>
<rscale>  2 0.22565882E+03</rscale>
<asrwt>0</asrwt>
<pdfrwt beam="1">  1        2 0.26665156E-01 0.22565882E+03</pdfrwt>
<pdfrwt beam="2">  1       -2 0.45232574E-01 0.22565882E+03</pdfrwt>
<totfact> 0.93577301E+02</totfact>
</mgrwt>
</event>
<event>
12    1  0.5759937E-002  0.2448717E+03  0.7546771E-02  0.1116589E+00
          2   -1    0    0  503    0  0.00000000000E+00  0.00000000000E+00  0.66032561338E+03  0.66032561338E+03  0.00000000000E+00 0.  1.
         -2   -1    0    0    0  501 -0.00000000000E+00 -0.00000000000E+00 -0.10108205677E+03  0.10108205677E+03  0.00000000000E+00 0. -1.
          6    2    1    2  503    0 -0.11935824667E+03  0.12431749227E+03  0.40114491518E+03  0.47005147727E+03  0.17415486896E+03 0.  0.
         24    2    3    3    0    0 -0.14506167375E+03  0.79842974481E+02  0.24943746993E+03  0.30981450327E+03  0.79675499767E+02 0.  0.
         -6    2    1    2    0  501  0.11935824667E+03 -0.12431749227E+03  0.15809864143E+03  0.29135619288E+03  0.17375851281E+03 0.  0.
        -24    2    5    5    0    0 -0.11680594892E+02 -0.67568926607E+02  0.79898794190E+02  0.12847929516E+03  0.73628227139E+02 0.  0.
          4    1    4    4  502    0 -0.91961221508E+02  0.91131805483E+02  0.17545229131E+03  0.21804902834E+03  0.00000000000E+00 0. -1.
         -3    1    4    4    0  502 -0.53100452242E+02 -0.11288831002E+02  0.73985178621E+02  0.91765474931E+02  0.00000000000E+00 0.  1.
          5    1    3    3  503    0  0.25703427080E+02  0.44474517788E+02  0.15170744524E+03  0.16023697401E+03  0.47000000000E+01 0. -1.
         13    1    6    6    0    0  0.47127097810E+00 -0.16562872316E+02 -0.13497391453E+02  0.21371251992E+02  0.00000000000E+00 0. -1.
        -14    1    6    6    0    0 -0.12151865870E+02 -0.51006054292E+02  0.93396185643E+02  0.10710804317E+03  0.00000000000E+00 0.  1.
         -5    1    5    5    0  501  0.13103884156E+03 -0.56748565661E+02  0.78199847243E+02  0.16287689772E+03  0.47000000000E+01 0.  1.
<mgrwt>
<rscale>  2 0.24487172E+03</rscale>
<asrwt>0</asrwt>
<pdfrwt beam="1">  1        2 0.10158855E+00 0.24487172E+03</pdfrwt>
<pdfrwt beam="2">  1       -2 0.15551086E-01 0.24487172E+03</pdfrwt>
<totfact> 0.14501234E+03</totfact>
</mgrwt>
</event>
<event>
12    1  0.5759937E-002  0.1712097E+03  0.7546771E-02  0.1176592E+00
          1   -1    0    0  503    0  0.00000000000E+00  0.00000000000E+00  0.19569379490E+04  0.19569379490E+04  0.00000000000E+00 0.  1.
         -1   -1    0    0    0  501 -0.00000000000E+00 -0.00000000000E+00 -0.14987725330E+02  0.14987725330E+02  0.00000000000E+00 0. -1.
          6    2    1    2  503    0 -0.31906623889E+01  0.18002620293E+02  0.93841213574E+03  0.95327711255E+03  0.16669025809E+03 0.  0.
         24    2    3    3    0    0 -0.25269498585E+02  0.25335377691E+02  0.91708270474E+03  0.92136662892E+03  0.81211751775E+02 0.  0.
         -6    2    1    2    0  501  0.31906623889E+01 -0.18002620293E+02  0.10035380879E+04  0.10186485618E+04  0.17384453926E+03 0.  0.
        -24    2    5    5    0    0  0.45850179848E+02 -0.25572695202E+02  0.91538182692E+03  0.92030855559E+03  0.79295313180E+02 0.  0.
          2    1    4    4  502    0  0.69142631023E+01  0.32203075395E+02  0.76751541755E+03  0.76822181776E+03  0.00000000000E+00 0. -1.
         -1    1    4    4    0  502 -0.32183761688E+02 -0.68676977034E+01  0.14956728719E+03  0.15314481116E+03  0.00000000000E+00 0.  1.
          5    1    3    3  503    0  0.22078836196E+02 -0.73327573979E+01  0.21329430998E+02  0.31910483631E+02  0.47000000000E+01 0. -1.
         13    1    6    6    0    0  0.23179181611E+02  0.26201173969E+02  0.23585287489E+03  0.23843312390E+03  0.00000000000E+00 0. -1.
        -14    1    6    6    0    0  0.22670998237E+02 -0.51773869171E+02  0.67952895203E+03  0.68187543169E+03  0.00000000000E+00 0.  1.
         -5    1    5    5    0  501 -0.42659517459E+02  0.75700749091E+01  0.88156261024E+02  0.98340006211E+02  0.47000000000E+01 0.  1.
<mgrwt>
<rscale>  2 0.17120969E+03</rscale>
<asrwt>0</asrwt>
<pdfrwt beam="1">  1        1 0.30106717E+00 0.17120969E+03</pdfrwt>
<pdfrwt beam="2">  1       -1 0.23058054E-02 0.17120969E+03</pdfrwt>
<totfact> 0.20061802E+03</totfact>
</mgrwt>
</event>
<event>
12    1  0.5759937E-002  0.1962335E+03  0.7546771E-02  0.1152956E+00
          2   -1    0    0  503    0  0.00000000000E+00  0.00000000000E+00  0.14103113625E+04  0.14103113625E+04  0.00000000000E+00 0.  1.
         -2   -1    0    0    0  501 -0.00000000000E+00 -0.00000000000E+00 -0.27796011201E+02  0.27796011201E+02  0.00000000000E+00 0. -1.
          6    2    1    2  503    0  0.78068442622E+01 -0.92685260400E+02  0.59655515657E+03  0.62808509833E+03  0.17309341870E+03 0.  0.
         24    2    3    3    0    0 -0.62269250041E+02 -0.63037335663E+02  0.34972537100E+03  0.36975064171E+03  0.80972444270E+02 0.  0.
         -6    2    1    2    0  501 -0.78068442622E+01  0.92685260400E+02  0.78596019472E+03  0.81002227537E+03  0.17248523007E+03 0.  0.
        -24    2    5    5    0    0 -0.44312798219E+02  0.10515169470E+03  0.42777684074E+03  0.44973696935E+03  0.79055759745E+02 0.  0.
          2    1    4    4  502    0 -0.44246377885E+02 -0.49761784830E+02  0.10722108896E+03  0.12621544716E+03  0.00000000000E+00 0. -1.
         -1    1    4    4    0  502 -0.18022872156E+02 -0.13275550833E+02  0.24250428205E+03  0.24353519455E+03  0.00000000000E+00 0.  1.
          5    1    3    3  503    0  0.70076094303E+02 -0.29647924737E+02  0.24682978557E+03  0.25833445662E+03  0.47000000000E+01 0. -1.
         11    1    6    6    0    0 -0.65508092625E+02  0.60126250884E+02  0.26466498320E+03  0.27920248849E+03  0.00000000000E+00 0. -1.
        -12    1    6    6    0    0  0.21195294406E+02  0.45025443813E+02  0.16311185754E+03  0.17053448087E+03  0.00000000000E+00 0.  1.
         -5    1    5    5    0  501  0.36505953957E+02 -0.12466434297E+02  0.35818335399E+03  0.36028530602E+03  0.47000000000E+01 0.  1.
<mgrwt>
<rscale>  2 0.19623354E+03</rscale>
<asrwt>0</asrwt>
<pdfrwt beam="1">  1        2 0.21697092E+00 0.19623354E+03</pdfrwt>
<pdfrwt beam="2">  1       -2 0.42763105E-02 0.19623354E+03</pdfrwt>
<totfact> 0.37735736E+03</totfact>
</mgrwt>
</event>
<event>
12    1  0.5759937E-002  0.2015279E+03  0.7546771E-02  0.1148456E+00
         -2   -1    0    0    0  501 -0.00000000000E+00  0.00000000000E+00  0.13196106769E+03  0.13196106769E+03  0.00000000000E+00 0. -1.
          2   -1    0    0  503    0  0.00000000000E+00 -0.00000000000E+00 -0.40417477591E+03  0.40417477591E+03  0.00000000000E+00 0.  1.
          6    2    1    2  503    0 -0.99014297576E+02 -0.27978482243E+02 -0.26695156235E+03  0.33438944697E+03  0.17310846026E+03 0.  0.
         24    2    3    3    0    0 -0.10403227420E+03  0.35478987968E+02 -0.16492054028E+03  0.21403808604E+03  0.80821067840E+02 0.  0.
         -6    2    1    2    0  501  0.99014297576E+02  0.27978482243E+02 -0.52621458768E+01  0.20174639662E+03  0.17345688738E+03 0.  0.
        -24    2    5    5    0    0  0.54453407587E+02  0.58253892129E+02 -0.56143396410E+02  0.12749503289E+03  0.82123156938E+02 0.  0.
          2    1    4    4  502    0 -0.53359773739E+02 -0.23661986418E+02 -0.65243164668E+02  0.87543278386E+02  0.00000000000E+00 0. -1.
         -1    1    4    4    0  502 -0.50672500458E+02  0.59140974386E+02 -0.99677375617E+02  0.12649480766E+03  0.00000000000E+00 0.  1.
          5    1    3    3  503    0  0.50179766214E+01 -0.63457470211E+02 -0.10203102206E+03  0.12035136093E+03  0.47000000000E+01 0. -1.
         13    1    6    6    0    0  0.21806498523E+02  0.19759170382E+02  0.20400870521E+02  0.35807034365E+02  0.00000000000E+00 0. -1.
        -14    1    6    6    0    0  0.32646909064E+02  0.38494721747E+02 -0.76544266930E+02  0.91687998526E+02  0.00000000000E+00 0.  1.
         -5    1    5    5    0  501  0.44560889989E+02 -0.30275409886E+02  0.50881250533E+02  0.74251363732E+02  0.47000000000E+01 0.  1.
<mgrwt>
<rscale>  2 0.20152791E+03</rscale>
<asrwt>0</asrwt>
<pdfrwt beam="2">  1        2 0.62180733E-01 0.20152791E+03</pdfrwt>
<pdfrwt beam="1">  1       -2 0.20301703E-01 0.20152791E+03</pdfrwt>
<totfact> 0.16058704E+03</totfact>
</mgrwt>
</event>
<event>
12    1  0.5759937E-002  0.2435432E+03  0.7546771E-02  0.1117455E+00
          2   -1    0    0  503    0  0.00000000000E+00  0.00000000000E+00  0.10837582267E+04  0.10837582267E+04  0.00000000000E+00 0. -1.
         -2   -1    0    0    0  501 -0.00000000000E+00 -0.00000000000E+00 -0.10386450797E+03  0.10386450797E+03  0.00000000000E+00 0.  1.
          6    2    1    2  503    0 -0.15776676511E+03  0.69076304438E+02  0.89742812680E+03  0.92965627655E+03  0.17094344608E+03 0.  0.
         24    2    3    3    0    0 -0.63359031136E+02  0.10107343725E+03  0.52926098112E+03  0.54820408571E+03  0.78615055237E+02 0.  0.
         -6    2    1    2    0  501  0.15776676511E+03 -0.69076304438E+02  0.82465591984E+02  0.25796645816E+03  0.17344806620E+03 0.  0.
        -24    2    5    5    0    0  0.18120010861E+03 -0.48771563183E+02  0.43967313553E+02  0.20831153346E+03  0.79046983335E+02 0.  0.
          2    1    4    4  502    0 -0.76015200561E+02  0.79493524112E+02  0.34128757269E+03  0.35857319806E+03  0.00000000000E+00 0. -1.
         -1    1    4    4    0  502  0.12656169425E+02  0.21579913135E+02  0.18797340843E+03  0.18963088765E+03  0.00000000000E+00 0.  1.
          5    1    3    3  503    0 -0.94407733971E+02 -0.31997132809E+02  0.36816714568E+03  0.38145219084E+03  0.47000000000E+01 0. -1.
         13    1    6    6    0    0 -0.71038992154E+01 -0.83057319991E+01  0.37479404055E+01  0.11554117248E+02  0.00000000000E+00 0. -1.
        -14    1    6    6    0    0  0.18830400783E+03 -0.40465831184E+02  0.40219373148E+02  0.19675741621E+03  0.00000000000E+00 0.  1.
         -5    1    5    5    0  501 -0.23433343504E+02 -0.20304741255E+02  0.38498278430E+02  0.49654924704E+02  0.47000000000E+01 0.  1.
<mgrwt>
<rscale>  2 0.24354315E+03</rscale>
<asrwt>0</asrwt>
<pdfrwt beam="1">  1        2 0.16673203E+00 0.24354315E+03</pdfrwt>
<pdfrwt beam="2">  1       -2 0.15979156E-01 0.24354315E+03</pdfrwt>
<totfact> 0.72314782E+02</totfact>
</mgrwt>
</event>
<event>
12    1  0.5759937E-002  0.1774916E+03  0.7546771E-02  0.1170253E+00
          2   -1    0    0  503    0  0.00000000000E+00  0.00000000000E+00  0.92578870746E+03  0.92578870746E+03  0.00000000000E+00 0.  1.
         -2   -1    0    0    0  501 -0.00000000000E+00 -0.00000000000E+00 -0.36861272839E+02  0.36861272839E+02  0.00000000000E+00 0. -1.
          6    2    1    2  503    0 -0.28848098110E+02 -0.29627950563E+02  0.57889393625E+03  0.60562051211E+03  0.17305486715E+03 0.  0.
         24    2    3    3    0    0 -0.19944130574E+02 -0.86272043223E+02  0.36303940734E+03  0.38223049102E+03  0.80385963942E+02 0.  0.
         -6    2    1    2    0  501  0.28848098110E+02  0.29627950563E+02  0.31003349837E+03  0.35702946819E+03  0.17216051470E+03 0.  0.
        -24    2    5    5    0    0 -0.44492707439E+02 -0.12642541444E+02  0.14712745827E+03  0.17338269812E+03  0.79218912910E+02 0.  0.
          4    1    4    4  502    0  0.12011138408E+02 -0.41665254664E+02  0.27566770787E+03  0.27905724512E+03  0.00000000000E+00 0. -1.
         -3    1    4    4    0  502 -0.31955268983E+02 -0.44606788560E+02  0.87371699464E+02  0.10317324590E+03  0.00000000000E+00 0.  1.
          5    1    3    3  503    0 -0.89039675352E+01  0.56644092661E+02  0.21585452891E+03  0.22339002109E+03  0.47000000000E+01 0. -1.
         11    1    6    6    0    0 -0.26324732201E+02  0.15282276551E+02  0.96587840618E+01  0.31934802514E+02  0.00000000000E+00 0. -1.
        -12    1    6    6    0    0 -0.18167975238E+02 -0.27924817995E+02  0.13746867421E+03  0.14144789561E+03  0.00000000000E+00 0.  1.
         -5    1    5    5    0  501  0.73340805548E+02  0.42270492007E+02  0.16290604010E+03  0.18364677007E+03  0.47000000000E+01 0.  1.
<mgrwt>
<rscale>  2 0.17749159E+03</rscale>
<asrwt>0</asrwt>
<pdfrwt beam="1">  1        2 0.14242901E+00 0.17749159E+03</pdfrwt>
<pdfrwt beam="2">  1       -2 0.56709658E-02 0.17749159E+03</pdfrwt>
<totfact> 0.46496654E+03</totfact>
</mgrwt>
</event>
<event>
12    1  0.5759937E-002  0.1872610E+03  0.7546771E-02  0.1160955E+00
          1   -1    0    0  503    0  0.00000000000E+00  0.00000000000E+00  0.51465181880E+02  0.51465181880E+02  0.00000000000E+00 0.  1.
         -1   -1    0    0    0  501 -0.00000000000E+00 -0.00000000000E+00 -0.68427398987E+03  0.68427398987E+03  0.00000000000E+00 0. -1.
          6    2    1    2  503    0  0.72635699336E+02  0.12183787838E+02 -0.29126150179E+03  0.34587846652E+03  0.17138921109E+03 0.  0.
         24    2    3    3    0    0  0.97159813477E+02  0.36349891446E+02 -0.28003318856E+03  0.30936000878E+03  0.80769328179E+02 0.  0.
         -6    2    1    2    0  501 -0.72635699336E+02 -0.12183787838E+02 -0.34154730621E+03  0.38986070523E+03  0.17295206735E+03 0.  0.
        -24    2    5    5    0    0 -0.74824516620E+02  0.42004148562E+02 -0.14961479142E+03  0.19035806463E+03  0.80551537390E+02 0.  0.
          4    1    4    4  502    0  0.10399139952E+03  0.24287010452E+02 -0.27430683410E+03  0.29436084877E+03  0.00000000000E+00 0. -1.
         -3    1    4    4    0  502 -0.68315860469E+01  0.12062880993E+02 -0.57263544608E+01  0.14999160016E+02  0.00000000000E+00 0.  1.
          5    1    3    3  503    0 -0.24524114140E+02 -0.24166103607E+02 -0.11228313227E+02  0.36518457742E+02  0.47000000000E+01 0. -1.
         11    1    6    6    0    0 -0.31085804523E+02 -0.10074896047E+02 -0.10260425984E+03  0.10768224046E+03  0.00000000000E+00 0. -1.
        -12    1    6    6    0    0 -0.43738712097E+02  0.52079044610E+02 -0.47010531578E+02  0.82675824172E+02  0.00000000000E+00 0.  1.
         -5    1    5    5    0  501  0.21888172833E+01 -0.54187936401E+02 -0.19193251479E+03  0.19950264060E+03  0.47000000000E+01 0.  1.
<mgrwt>
<rscale>  2 0.18726104E+03</rscale>
<asrwt>0</asrwt>
<pdfrwt beam="1">  1        1 0.79177202E-02 0.18726104E+03</pdfrwt>
<pdfrwt beam="2">  1       -1 0.10527292E+00 0.18726104E+03</pdfrwt>
<totfact> 0.78724465E+02</totfact>
</mgrwt>
</event>
<event>
12    1  0.5759937E-002  0.3393982E+03  0.7546771E-02  0.1067053E+00
         -2   -1    0    0    0  501 -0.00000000000E+00  0.00000000000E+00  0.27659890115E+04  0.27659890115E+04  0.00000000000E+00 0.  1.
          2   -1    0    0  503    0  0.00000000000E+00 -0.00000000000E+00 -0.46798187810E+02  0.46798187810E+02  0.00000000000E+00 0. -1.
          6    2    1    2  503    0  0.23452110547E+03  0.17409149423E+03  0.18274384673E+04  0.18587487467E+04  0.17351528544E+03 0.  0.
         24    2    3    3    0    0  0.17766000299E+03  0.17691266768E+03  0.16824166116E+04  0.17028815833E+04  0.80117807577E+02 0.  0.
         -6    2    1    2    0  501 -0.23452110547E+03 -0.17409149423E+03  0.89175235631E+03  0.95403845254E+03  0.17221819494E+03 0.  0.
        -24    2    5    5    0    0 -0.24357738191E+03 -0.11898171469E+03  0.75897674893E+03  0.80991851687E+03  0.80222871669E+02 0.  0.
          4    1    4    4  502    0  0.37532364239E+02  0.34188951556E+02  0.59970095045E+03  0.60184615372E+03  0.00000000000E+00 0. -1.
         -3    1    4    4    0  502  0.14012763875E+03  0.14272371613E+03  0.10827156612E+04  0.11010354296E+04  0.00000000000E+00 0.  1.
          5    1    3    3  503    0  0.56861102474E+02 -0.28211734554E+01  0.14502185573E+03  0.15586716342E+03  0.47000000000E+01 0. -1.
         11    1    6    6    0    0 -0.61270436501E+02 -0.48618927864E+02  0.13459862047E+03  0.15567483794E+03  0.00000000000E+00 0. -1.
        -12    1    6    6    0    0 -0.18230694541E+03 -0.70362786825E+02  0.62437812846E+03  0.65424367893E+03  0.00000000000E+00 0.  1.
         -5    1    5    5    0  501  0.90562764394E+01 -0.55109779537E+02  0.13277560738E+03  0.14411993567E+03  0.47000000000E+01 0.  1.
<mgrwt>
<rscale>  2 0.33939816E+03</rscale>
<asrwt>0</asrwt>
<pdfrwt beam="2">  1        2 0.71997233E-02 0.33939816E+03</pdfrwt>
<pdfrwt beam="1">  1       -2 0.42553664E+00 0.33939816E+03</pdfrwt>
<totfact> 0.58795046E+00</totfact>
</mgrwt>
</event>
<event>
12    1  0.5759937E-002  0.1797337E+03  0.7546771E-02  0.1168061E+00
          1   -1    0    0  503    0  0.00000000000E+00  0.00000000000E+00  0.25849412159E+04  0.25849412159E+04  0.00000000000E+00 0. -1.
         -1   -1    0    0    0  501 -0.00000000000E+00 -0.00000000000E+00 -0.14938049891E+02  0.14938049891E+02  0.00000000000E+00 0.  1.
          6    2    1    2  503    0 -0.16099839339E+02 -0.42586489581E+02  0.18136189618E+04  0.18225552724E+04  0.17441665172E+03 0.  0.
         24    2    3    3    0    0  0.13230495307E+02 -0.88642018769E+02  0.14405845322E+04  0.14455166060E+04  0.78752842882E+02 0.  0.
         -6    2    1    2    0  501  0.16099839339E+02  0.42586489581E+02  0.75638420418E+03  0.77732399337E+03  0.17332833703E+03 0.  0.
        -24    2    5    5    0    0  0.24115353412E+01 -0.25727032606E+02  0.21318520729E+03  0.22965498092E+03  0.81398906280E+02 0.  0.
          2    1    4    4  502    0  0.22767352438E+02 -0.82259022949E+02  0.14138402126E+04  0.14164141506E+04  0.00000000000E+00 0. -1.
         -1    1    4    4    0  502 -0.95368571309E+01 -0.63829958200E+01  0.26744319565E+02  0.29102455370E+02  0.00000000000E+00 0.  1.
          5    1    3    3  503    0 -0.29330334646E+02  0.46055529187E+02  0.37303442961E+03  0.37703866642E+03  0.47000000000E+01 0. -1.
         13    1    6    6    0    0  0.14853711464E+01 -0.15859870219E+02  0.21803870552E+03  0.21861980449E+03  0.00000000000E+00 0. -1.
        -14    1    6    6    0    0  0.92616419478E+00 -0.98671623869E+01 -0.48534982303E+01  0.11035176426E+02  0.00000000000E+00 0.  1.
         -5    1    5    5    0  501  0.13688303997E+02  0.68313522187E+02  0.54319899689E+03  0.54766901245E+03  0.47000000000E+01 0.  1.
<mgrwt>
<rscale>  2 0.17973369E+03</rscale>
<asrwt>0</asrwt>
<pdfrwt beam="1">  1        1 0.39768291E+00 0.17973369E+03</pdfrwt>
<pdfrwt beam="2">  1       -1 0.22981636E-02 0.17973369E+03</pdfrwt>
<totfact> 0.78846482E+02</totfact>
</mgrwt>
</event>
<event>
12    1  0.5759937E-002  0.1811632E+03  0.7546771E-02  0.1166682E+00
         -2   -1    0    0    0  501 -0.00000000000E+00  0.00000000000E+00  0.38467689047E+02  0.38467689047E+02  0.00000000000E+00 0.  1.
          2   -1    0    0  503    0  0.00000000000E+00 -0.00000000000E+00 -0.90904960565E+03  0.90904960565E+03  0.00000000000E+00 0. -1.
          6    2    1    2  503    0  0.41193728342E+02  0.37702210588E+02 -0.31879318076E+03  0.36687944884E+03  0.17278037489E+03 0.  0.
         24    2    3    3    0    0  0.21311957238E+02  0.84805901792E+02 -0.15405857658E+03  0.19432910152E+03  0.79896897187E+02 0.  0.
         -6    2    1    2    0  501 -0.41193728342E+02 -0.37702210588E+02 -0.55178873585E+03  0.58063784586E+03  0.17190438940E+03 0.  0.
        -24    2    5    5    0    0  0.30030308971E+02  0.75109514771E+01 -0.18240163194E+03  0.20171039100E+03  0.80364747569E+02 0.  0.
          4    1    4    4  502    0 -0.29979721125E+02  0.27776278375E+02 -0.65139826088E+02  0.76899299489E+02  0.00000000000E+00 0. -1.
         -3    1    4    4    0  502  0.51291678362E+02  0.57029623417E+02 -0.88918750491E+02  0.11742980203E+03  0.00000000000E+00 0.  1.
          5    1    3    3  503    0  0.19881771105E+02 -0.47103691205E+02 -0.16473460418E+03  0.17255034732E+03  0.47000000000E+01 0. -1.
         11    1    6    6    0    0 -0.13744905085E+02 -0.21826609902E+02 -0.10466027806E+03  0.10779191584E+03  0.00000000000E+00 0. -1.
        -12    1    6    6    0    0  0.43775214056E+02  0.29337561379E+02 -0.77741353880E+02  0.93918475160E+02  0.00000000000E+00 0.  1.
         -5    1    5    5    0  501 -0.71224037314E+02 -0.45213162065E+02 -0.36938710391E+03  0.37892745486E+03  0.47000000000E+01 0.  1.
<mgrwt>
<rscale>  2 0.18116324E+03</rscale>
<asrwt>0</asrwt>
<pdfrwt beam="2">  1        2 0.13985377E+00 0.18116324E+03</pdfrwt>
<pdfrwt beam="1">  1       -2 0.59181065E-02 0.18116324E+03</pdfrwt>
<totfact> 0.44674300E+03</totfact>
</mgrwt>
</event>
<event>
12    1  0.5759937E-002  0.2932095E+03  0.7546771E-02  0.1088685E+00
         -1   -1    0    0    0  501 -0.00000000000E+00  0.00000000000E+00  0.34936420100E+02  0.34936420100E+02  0.00000000000E+00 0.  1.
          1   -1    0    0  503    0  0.00000000000E+00 -0.00000000000E+00 -0.25684849477E+04  0.25684849477E+04  0.00000000000E+00 0. -1.
          6    2    1    2  503    0  0.83022692636E+02  0.22142197667E+03 -0.10001220933E+04  0.10422082452E+04  0.17330137263E+03 0.  0.
         24    2    3    3    0    0  0.84321352853E+02  0.24156818660E+03 -0.96376829471E+03  0.10003603664E+04  0.80039099571E+02 0.  0.
         -6    2    1    2    0  501 -0.83022692636E+02 -0.22142197667E+03 -0.15334264344E+04  0.15612131226E+04  0.17340509019E+03 0.  0.
        -24    2    5    5    0    0  0.11281408736E+01 -0.31844462633E+02 -0.49501142582E+03  0.50227553398E+03  0.78924380515E+02 0.  0.
          4    1    4    4  502    0  0.30889541773E+02  0.11845181520E+03 -0.60615001184E+03  0.61838728412E+03  0.00000000000E+00 0. -1.
         -3    1    4    4    0  502  0.53431811081E+02  0.12311637141E+03 -0.35761828287E+03  0.38197308228E+03  0.00000000000E+00 0.  1.
          5    1    3    3  503    0 -0.12986602175E+01 -0.20146209936E+02 -0.36353798545E+02  0.41847878821E+02  0.47000000000E+01 0. -1.
         11    1    6    6    0    0 -0.15986126625E+02 -0.41540307812E+02 -0.14420242426E+03  0.15091551471E+03  0.00000000000E+00 0. -1.
        -12    1    6    6    0    0  0.17114267498E+02  0.96958451786E+01 -0.35080900156E+03  0.35136001927E+03  0.00000000000E+00 0.  1.
         -5    1    5    5    0  501 -0.84150833509E+02 -0.18957751404E+03 -0.10384150086E+04  0.10589375886E+04  0.47000000000E+01 0.  1.
<mgrwt>
<rscale>  2 0.29320949E+03</rscale>
<asrwt>0</asrwt>
<pdfrwt beam="2">  1        1 0.39515147E+00 0.29320949E+03</pdfrwt>
<pdfrwt beam="1">  1       -1 0.53748347E-02 0.29320949E+03</pdfrwt>
<totfact> 0.22409174E+02</totfact>
</mgrwt>
</event>
<event>
12    1  0.5759937E-002  0.3164834E+03  0.7546771E-02  0.1077279E+00
         -1   -1    0    0    0  501 -0.00000000000E+00  0.00000000000E+00  0.20343096834E+03  0.20343096834E+03  0.00000000000E+00 0. -1.
          1   -1    0    0  503    0  0.00000000000E+00 -0.00000000000E+00 -0.65865358796E+03  0.65865358796E+03  0.00000000000E+00 0.  1.
          6    2    1    2  503    0 -0.50557042327E+02 -0.26096998631E+03 -0.44453257909E+03  0.54605040083E+03  0.17291754709E+03 0.  0.
         24    2    3    3    0    0 -0.59360790087E+01 -0.20161949673E+02 -0.97199878236E+02  0.12103082956E+03  0.68984810846E+02 0.  0.
         -6    2    1    2    0  501  0.50557042327E+02  0.26096998631E+03 -0.10690040527E+02  0.31603415547E+03  0.17059297223E+03 0.  0.
        -24    2    5    5    0    0 -0.22858408711E+02  0.12023852997E+03  0.35249678825E+02  0.15072317862E+03  0.80592343163E+02 0.  0.
          4    1    4    4  502    0  0.15722331786E+02  0.12657690254E+02 -0.49977958785E+01  0.20793912643E+02  0.00000000000E+00 0. -1.
         -3    1    4    4    0  502 -0.21658410794E+02 -0.32819639927E+02 -0.92202082357E+02  0.10023691692E+03  0.00000000000E+00 0.  1.
          5    1    3    3  503    0 -0.44620963318E+02 -0.24080803664E+03 -0.34733270085E+03  0.42501957126E+03  0.47000000000E+01 0. -1.
         11    1    6    6    0    0  0.29869202353E+02  0.35206802998E+02  0.15788260957E+02  0.48795055186E+02  0.00000000000E+00 0. -1.
        -12    1    6    6    0    0 -0.52727611064E+02  0.85031726976E+02  0.19461417868E+02  0.10192812343E+03  0.00000000000E+00 0.  1.
         -5    1    5    5    0  501  0.73415451037E+02  0.14073145634E+03 -0.45939719352E+02  0.16531097685E+03  0.47000000000E+01 0.  1.
<mgrwt>
<rscale>  2 0.31648345E+03</rscale>
<asrwt>0</asrwt>
<pdfrwt beam="2">  1        1 0.10133132E+00 0.31648345E+03</pdfrwt>
<pdfrwt beam="1">  1       -1 0.31297072E-01 0.31648345E+03</pdfrwt>
<totfact> 0.29373466E+02</totfact>
</mgrwt>
</event>
<event>
12    1  0.5759937E-002  0.1892700E+03  0.7546771E-02  0.1159121E+00
         -2   -1    0    0    0  501 -0.00000000000E+00  0.00000000000E+00  0.26446663809E+03  0.26446663809E+03  0.00000000000E+00 0.  1.
          2   -1    0    0  503    0  0.00000000000E+00 -0.00000000000E+00 -0.25849568936E+03  0.25849568936E+03  0.00000000000E+00 0. -1.
          6    2    1    2  503    0 -0.67158634044E+02  0.32076019947E+02 -0.17741768839E+03  0.25922869608E+03  0.17373349572E+03 0.  0.
         24    2    3    3    0    0 -0.47261245412E+02  0.13123053199E+02 -0.17586190316E+02  0.96984069667E+02  0.81797285017E+02 0.  0.
         -6    2    1    2    0  501  0.67158634044E+02 -0.32076019947E+02  0.18338863712E+03  0.26373363138E+03  0.17431260112E+03 0.  0.
        -24    2    5    5    0    0 -0.11921582204E+02 -0.22119751105E+01  0.33532151048E+02  0.91615653829E+02  0.84391977796E+02 0.  0.
          4    1    4    4  502    0 -0.80532076391E+01 -0.31605594932E+02  0.56964341484E+01  0.33109170124E+02  0.00000000000E+00 0. -1.
         -3    1    4    4    0  502 -0.39208037773E+02  0.44728648131E+02 -0.23282624464E+02  0.63874899543E+02  0.00000000000E+00 0.  1.
          5    1    3    3  503    0 -0.19897388632E+02  0.18952966748E+02 -0.15983149808E+03  0.16224462642E+03  0.47000000000E+01 0. -1.
         13    1    6    6    0    0 -0.17031644512E+02  0.26960548085E+02  0.48799578215E+02  0.58295342025E+02  0.00000000000E+00 0. -1.
        -14    1    6    6    0    0  0.51100623077E+01 -0.29172523196E+02 -0.15267427167E+02  0.33320311804E+02  0.00000000000E+00 0.  1.
         -5    1    5    5    0  501  0.79080216249E+02 -0.29864044837E+02  0.14985648608E+03  0.17211797755E+03  0.47000000000E+01 0.  1.
<mgrwt>
<rscale>  2 0.18926996E+03</rscale>
<asrwt>0</asrwt>
<pdfrwt beam="2">  1        2 0.39768568E-01 0.18926996E+03</pdfrwt>
<pdfrwt beam="1">  1       -2 0.40687175E-01 0.18926996E+03</pdfrwt>
<totfact> 0.74060124E+02</totfact>
</mgrwt>
</event>
<event>
12    1  0.5759937E-002  0.2178680E+03  0.7546771E-02  0.1135483E+00
         -2   -1    0    0    0  501 -0.00000000000E+00  0.00000000000E+00  0.34973395967E+03  0.34973395967E+03  0.00000000000E+00 0.  1.
          2   -1    0    0  503    0  0.00000000000E+00 -0.00000000000E+00 -0.14295162621E+03  0.14295162621E+03  0.00000000000E+00 0. -1.
          6    2    1    2  503    0  0.48323684286E+01  0.13265054629E+03  0.47937780217E+02  0.22296462063E+03  0.17261422903E+03 0.  0.
         24    2    3    3    0    0 -0.16633059547E+01  0.15065970766E+03  0.76276360119E+02  0.18844377490E+03  0.83617337237E+02 0.  0.
         -6    2    1    2    0  501 -0.48323684286E+01 -0.13265054629E+03  0.15884455325E+03  0.26972096525E+03  0.17291121359E+03 0.  0.
        -24    2    5    5    0    0 -0.36706662799E+01 -0.75646238410E+02  0.13492048983E+02  0.11351507175E+03  0.83473402664E+02 0.  0.
          4    1    4    4  502    0 -0.87859333946E+01 -0.43847887134E+01  0.21875120727E+02  0.23977904506E+02  0.00000000000E+00 0. -1.
         -3    1    4    4    0  502  0.71226274399E+01  0.15504449637E+03  0.54401239392E+02  0.16446587039E+03  0.00000000000E+00 0.  1.
          5    1    3    3  503    0  0.64956743833E+01 -0.18009161369E+02 -0.28338579902E+02  0.34520845728E+02  0.47000000000E+01 0. -1.
         13    1    6    6    0    0 -0.32420280778E+02 -0.74155381801E+00  0.54040200366E+01  0.32875947749E+02  0.00000000000E+00 0. -1.
        -14    1    6    6    0    0  0.28749614498E+02 -0.74904684592E+02  0.80880289460E+01  0.80639124003E+02  0.00000000000E+00 0.  1.
         -5    1    5    5    0  501 -0.11617021487E+01 -0.57004307877E+02  0.14535250426E+03  0.15620589350E+03  0.47000000000E+01 0.  1.
<mgrwt>
<rscale>  2 0.21786801E+03</rscale>
<asrwt>0</asrwt>
<pdfrwt beam="2">  1        2 0.21992558E-01 0.21786801E+03</pdfrwt>
<pdfrwt beam="1">  1       -2 0.53805224E-01 0.21786801E+03</pdfrwt>
<totfact> 0.82181152E+02</totfact>
</mgrwt>
</event>
<event>
12    1  0.5759937E-002  0.2189798E+03  0.7546771E-02  0.1134646E+00
          2   -1    0    0  503    0  0.00000000000E+00  0.00000000000E+00  0.61303324467E+03  0.61303324467E+03  0.00000000000E+00 0.  1.
         -2   -1    0    0    0  501 -0.00000000000E+00 -0.00000000000E+00 -0.10710962629E+03  0.10710962629E+03  0.00000000000E+00 0. -1.
          6    2    1    2  503    0 -0.11748422540E+01  0.13234687694E+03  0.65430990481E+02  0.22793883480E+03  0.17366007544E+03 0.  0.
         24    2    3    3    0    0  0.35837537860E+02  0.13438672078E+03  0.89727353563E+02  0.18336888412E+03  0.78924203155E+02 0.  0.
         -6    2    1    2    0  501  0.11748422540E+01 -0.13234687694E+03  0.44049262790E+03  0.49220403615E+03  0.17525404955E+03 0.  0.
        -24    2    5    5    0    0 -0.50477649835E+02 -0.12363295233E+02  0.15877049135E+03  0.18163441104E+03  0.71289172742E+02 0.  0.
          2    1    4    4  502    0  0.29261472381E+02  0.18298398801E+02 -0.30075440081E+01  0.34642610836E+02  0.00000000000E+00 0. -1.
         -1    1    4    4    0  502  0.65760654797E+01  0.11608832198E+03  0.92734897571E+02  0.14872627328E+03  0.00000000000E+00 0.  1.
          5    1    3    3  503    0 -0.37012380114E+02 -0.20398438381E+01 -0.24296363082E+02  0.44569950680E+02  0.47000000000E+01 0. -1.
         13    1    6    6    0    0  0.71054472910E+01 -0.20089527515E+02  0.13624744236E+02  0.25292492018E+02  0.00000000000E+00 0. -1.
        -14    1    6    6    0    0 -0.57583097126E+02  0.77262322816E+01  0.14514574711E+03  0.15634191902E+03  0.00000000000E+00 0.  1.
         -5    1    5    5    0  501  0.51652492089E+02 -0.11998358171E+03  0.28172213655E+03  0.31056962511E+03  0.47000000000E+01 0.  1.
<mgrwt>
<rscale>  2 0.21897984E+03</rscale>
<asrwt>0</asrwt>
<pdfrwt beam="1">  1        2 0.94312805E-01 0.21897984E+03</pdfrwt>
<pdfrwt beam="2">  1       -2 0.16478404E-01 0.21897984E+03</pdfrwt>
<totfact> 0.14357710E+03</totfact>
</mgrwt>
</event>
<event>
12    1  0.5759937E-002  0.1798149E+03  0.7546771E-02  0.1167982E+00
         -2   -1    0    0    0  501 -0.00000000000E+00  0.00000000000E+00  0.26204918553E+02  0.26204918553E+02  0.00000000000E+00 0.  1.
          2   -1    0    0  503    0  0.00000000000E+00 -0.00000000000E+00 -0.16686366721E+04  0.16686366721E+04  0.00000000000E+00 0. -1.
          6    2    1    2  503    0 -0.14899704369E+01  0.41054231454E+02 -0.12603891076E+04  0.12734347687E+04  0.17710939406E+03 0.  0.
         24    2    3    3    0    0  0.51708230478E+02 -0.87592728616E+01 -0.96381364598E+03  0.96799978663E+03  0.73050508443E+02 0.  0.
         -6    2    1    2    0  501  0.14899704369E+01 -0.41054231454E+02 -0.38204264595E+03  0.42140682203E+03  0.17303021815E+03 0.  0.
        -24    2    5    5    0    0  0.58220299791E+02 -0.38949212163E+02 -0.32027618775E+03  0.33738333285E+03  0.79649434456E+02 0.  0.
          4    1    4    4  502    0  0.53182663600E+02  0.12045491821E+02 -0.87785455632E+03  0.87954653750E+03  0.00000000000E+00 0. -1.
         -3    1    4    4    0  502 -0.14744331224E+01 -0.20804764682E+02 -0.85959089655E+02  0.88453249126E+02  0.00000000000E+00 0.  1.
          5    1    3    3  503    0 -0.53198200915E+02  0.49813504316E+02 -0.29657546166E+03  0.30543498204E+03  0.47000000000E+01 0. -1.
         11    1    6    6    0    0  0.72460776145E+02 -0.10064408553E+02 -0.20359749321E+03  0.21634184903E+03  0.00000000000E+00 0. -1.
        -12    1    6    6    0    0 -0.14240476354E+02 -0.28884803610E+02 -0.11667869454E+03  0.12104148382E+03  0.00000000000E+00 0.  1.
         -5    1    5    5    0  501 -0.56730329354E+02 -0.21050192905E+01 -0.61766458201E+02  0.84023489177E+02  0.47000000000E+01 0.  1.
<mgrwt>
<rscale>  2 0.17981485E+03</rscale>
<asrwt>0</asrwt>
<pdfrwt beam="2">  1        2 0.25671331E+00 0.17981485E+03</pdfrwt>
<pdfrwt beam="1">  1       -2 0.40315264E-02 0.17981485E+03</pdfrwt>
<totfact> 0.30116044E+03</totfact>
</mgrwt>
</event>
<event>
12    1  0.5759937E-002  0.2641935E+03  0.7546771E-02  0.1104650E+00
         -2   -1    0    0    0  501 -0.00000000000E+00  0.00000000000E+00  0.89118579787E+02  0.89118579787E+02  0.00000000000E+00 0. -1.
          2   -1    0    0  503    0  0.00000000000E+00 -0.00000000000E+00 -0.11892429026E+04  0.11892429026E+04  0.00000000000E+00 0.  1.
          6    2    1    2  503    0 -0.14665904936E+02 -0.19921484968E+03 -0.92367799886E+03  0.96074468290E+03  0.17305390790E+03 0.  0.
         24    2    3    3    0    0  0.63748428393E+01 -0.16329134170E+03 -0.88532890997E+03  0.90394719958E+03  0.81293049523E+02 0.  0.
         -6    2    1    2    0  501  0.14665904936E+02  0.19921484968E+03 -0.17644632394E+03  0.31761679948E+03  0.17275844691E+03 0.  0.
        -24    2    5    5    0    0 -0.64457196045E+01  0.66457109599E+02 -0.14810573372E+02  0.10733478859E+03  0.82724295343E+02 0.  0.
          2    1    4    4  502    0  0.37025105610E+02 -0.10982874779E+03 -0.67093575408E+03  0.68087296788E+03  0.00000000000E+00 0. -1.
         -1    1    4    4    0  502 -0.30650262770E+02 -0.53462593905E+02 -0.21439315590E+03  0.22307423170E+03  0.00000000000E+00 0.  1.
          5    1    3    3  503    0 -0.21040747775E+02 -0.35923507981E+02 -0.38349088883E+02  0.56797483314E+02  0.47000000000E+01 0. -1.
         13    1    6    6    0    0  0.10055333507E+01  0.81376461941E+02 -0.28008593500E+02  0.86067537232E+02  0.00000000000E+00 0. -1.
        -14    1    6    6    0    0 -0.74512529553E+01 -0.14919352342E+02  0.13198020128E+02  0.21267251355E+02  0.00000000000E+00 0.  1.
         -5    1    5    5    0  501  0.21111624541E+02  0.13275774008E+03 -0.16163575057E+03  0.21028201089E+03  0.47000000000E+01 0.  1.
<mgrwt>
<rscale>  2 0.26419348E+03</rscale>
<asrwt>0</asrwt>
<pdfrwt beam="2">  1        2 0.18296046E+00 0.26419348E+03</pdfrwt>
<pdfrwt beam="1">  1       -2 0.13710550E-01 0.26419348E+03</pdfrwt>
<totfact> 0.80796095E+02</totfact>
</mgrwt>
</event>
<event>
12    1  0.5759937E-002  0.1926541E+03  0.7546771E-02  0.1156089E+00
          1   -1    0    0  503    0  0.00000000000E+00  0.00000000000E+00  0.91455346513E+03  0.91455346513E+03  0.00000000000E+00 0. -1.
         -1   -1    0    0    0  501 -0.00000000000E+00 -0.00000000000E+00 -0.65111338032E+02  0.65111338032E+02  0.00000000000E+00 0.  1.
          6    2    1    2  503    0  0.38900347860E+02 -0.89615637605E+02  0.73081658209E+03  0.75684470191E+03  0.17081225534E+03 0.  0.
         24    2    3    3    0    0 -0.23552402427E+02  0.38103040876E+01  0.32258667359E+03  0.33340344175E+03  0.80786502092E+02 0.  0.
         -6    2    1    2    0  501 -0.38900347860E+02  0.89615637605E+02  0.11862554500E+03  0.22282010126E+03  0.16134614352E+03 0.  0.
        -24    2    5    5    0    0 -0.54729024546E+02  0.10085208018E+03  0.13642392086E+03  0.19606796432E+03  0.81637933875E+02 0.  0.
          2    1    4    4  502    0 -0.23059606218E+01  0.11156432726E+02  0.14537735102E+01  0.11484637695E+02  0.00000000000E+00 0. -1.
         -1    1    4    4    0  502 -0.21246441805E+02 -0.73461286384E+01  0.32113290008E+03  0.32191880406E+03  0.00000000000E+00 0.  1.
          5    1    3    3  503    0  0.62452750287E+02 -0.93425941692E+02  0.40822990851E+03  0.42344126015E+03  0.47000000000E+01 0. -1.
         13    1    6    6    0    0 -0.37632609558E+02  0.19020824167E+01  0.55599515877E+02  0.67165001195E+02  0.00000000000E+00 0. -1.
        -14    1    6    6    0    0 -0.17096414988E+02  0.98949997766E+02  0.80824404979E+02  0.12890296313E+03  0.00000000000E+00 0.  1.
         -5    1    5    5    0  501  0.15828676686E+02 -0.11236442578E+02 -0.17798375852E+02  0.26752136932E+02  0.47000000000E+01 0.  1.
<mgrwt>
<rscale>  2 0.19265415E+03</rscale>
<asrwt>0</asrwt>
<pdfrwt beam="1">  1        1 0.14070052E+00 0.19265415E+03</pdfrwt>
<pdfrwt beam="2">  1       -1 0.10017130E-01 0.19265415E+03</pdfrwt>
<totfact> 0.11331507E+03</totfact>
</mgrwt>
</event>
<event>
12    1  0.5759937E-002  0.2373535E+03  0.7546771E-02  0.1121569E+00
          4   -1    0    0  503    0  0.00000000000E+00  0.00000000000E+00  0.14994631904E+03  0.14994631904E+03  0.00000000000E+00 0. -1.
         -4   -1    0    0    0  501 -0.00000000000E+00 -0.00000000000E+00 -0.38891631375E+03  0.38891631375E+03  0.00000000000E+00 0.  1.
          6    2    1    2  503    0 -0.16415186401E+03 -0.81676480733E+01 -0.70287586084E+02  0.24840532597E+03  0.17248859753E+03 0.  0.
         24    2    3    3    0    0 -0.18948936953E+03 -0.19014989164E+02 -0.75457246560E+02  0.21997172992E+03  0.80162178931E+02 0.  0.
         -6    2    1    2    0  501  0.16415186401E+03  0.81676480733E+01 -0.16868240863E+03  0.29045730683E+03  0.16999749168E+03 0.  0.
        -24    2    5    5    0    0  0.13350642544E+03 -0.56537797768E+02 -0.96564098270E+02  0.18872688702E+03  0.72613529024E+02 0.  0.
          4    1    4    4  502    0 -0.96850765668E+02 -0.80069982088E+01 -0.81007559313E+02  0.12651643173E+03  0.00000000000E+00 0. -1.
         -3    1    4    4    0  502 -0.92638603858E+02 -0.11007990955E+02  0.55503127529E+01  0.93455298198E+02  0.00000000000E+00 0.  1.
          5    1    3    3  503    0  0.25337505515E+02  0.10847341090E+02  0.51696604756E+01  0.28433596042E+02  0.47000000000E+01 0. -1.
         11    1    6    6    0    0  0.50346664278E+02 -0.21928362221E+02  0.23254186571E+01  0.54964054122E+02  0.00000000000E+00 0. -1.
        -12    1    6    6    0    0  0.83159761165E+02 -0.34609435546E+02 -0.98889516927E+02  0.13376283289E+03  0.00000000000E+00 0.  1.
         -5    1    5    5    0  501  0.30645438567E+02  0.64705445841E+02 -0.72118310358E+02  0.10173041981E+03  0.47000000000E+01 0.  1.
<mgrwt>
<rscale>  2 0.23735345E+03</rscale>
<asrwt>0</asrwt>
<pdfrwt beam="1">  1        4 0.23068665E-01 0.23735345E+03</pdfrwt>
<pdfrwt beam="2">  1       -4 0.59833279E-01 0.23735345E+03</pdfrwt>
<totfact> 0.84239682E+01</totfact>
</mgrwt>
</event>
<event>
12    1  0.5759937E-002  0.1852330E+03  0.7546771E-02  0.1162832E+00
         -2   -1    0    0    0  501 -0.00000000000E+00  0.00000000000E+00  0.34458581593E+02  0.34458581593E+02  0.00000000000E+00 0.  1.
          2   -1    0    0  503    0  0.00000000000E+00 -0.00000000000E+00 -0.24040241262E+04  0.24040241262E+04  0.00000000000E+00 0. -1.
          6    2    1    2  503    0 -0.65421806442E+02 -0.12463664389E+02 -0.21196362640E+04  0.21277697562E+04  0.17352489120E+03 0.  0.
         24    2    3    3    0    0  0.29743736471E+02 -0.16191615091E+01 -0.75419514777E+03  0.75896530858E+03  0.79565741202E+02 0.  0.
         -6    2    1    2    0  501  0.65421806442E+02  0.12463664389E+02 -0.24992928063E+03  0.31071295166E+03  0.17217008255E+03 0.  0.
        -24    2    5    5    0    0  0.96760258404E+01 -0.28791508603E+01 -0.37175995507E+02  0.90193010690E+02  0.81552495668E+02 0.  0.
          4    1    4    4  502    0  0.40995296127E+02  0.17031344382E+02 -0.68467866934E+03  0.68611628843E+03  0.00000000000E+00 0. -1.
         -3    1    4    4    0  502 -0.11251559656E+02 -0.18650505891E+02 -0.69516478430E+02  0.72849020158E+02  0.00000000000E+00 0.  1.
          5    1    3    3  503    0 -0.95165542913E+02 -0.10844502880E+02 -0.13654411162E+04  0.13688044476E+04  0.47000000000E+01 0. -1.
         11    1    6    6    0    0  0.83358003655E+01  0.39196387690E+02 -0.18633548885E+02  0.44193342482E+02  0.00000000000E+00 0. -1.
        -12    1    6    6    0    0  0.13402254750E+01 -0.42075538550E+02 -0.18542446622E+02  0.45999668209E+02  0.00000000000E+00 0.  1.
         -5    1    5    5    0  501  0.55745780601E+02  0.15342815250E+02 -0.21275328513E+03  0.22051994097E+03  0.47000000000E+01 0.  1.
<mgrwt>
<rscale>  2 0.18523301E+03</rscale>
<asrwt>0</asrwt>
<pdfrwt beam="2">  1        2 0.36984988E+00 0.18523301E+03</pdfrwt>
<pdfrwt beam="1">  1       -2 0.53013201E-02 0.18523301E+03</pdfrwt>
<totfact> 0.82363354E+02</totfact>
</mgrwt>
</event>
<event>
12    1  0.5759937E-002  0.1792984E+03  0.7546771E-02  0.1168484E+00
         -1   -1    0    0    0  501 -0.00000000000E+00  0.00000000000E+00  0.36470017244E+02  0.36470017244E+02  0.00000000000E+00 0.  1.
          1   -1    0    0  503    0  0.00000000000E+00 -0.00000000000E+00 -0.88386445265E+03  0.88386445265E+03  0.00000000000E+00 0. -1.
          6    2    1    2  503    0 -0.96791723232E+01  0.45216465109E+02 -0.44998915371E+03  0.48480636324E+03  0.17438106630E+03 0.  0.
         24    2    3    3    0    0 -0.29303467060E+02 -0.35572670010E+02 -0.18567871599E+03  0.20768888853E+03  0.80833042845E+02 0.  0.
         -6    2    1    2    0  501  0.96791723232E+01 -0.45216465109E+02 -0.39740528169E+03  0.43552810665E+03  0.17209171588E+03 0.  0.
        -24    2    5    5    0    0 -0.25158628466E+02  0.23321555671E+02 -0.29120232193E+03  0.30433248432E+03  0.81502252560E+02 0.  0.
          2    1    4    4  502    0 -0.16854241799E+02 -0.13433939847E+02 -0.18048121852E+03  0.18176360044E+03  0.00000000000E+00 0. -1.
         -1    1    4    4    0  502 -0.12449225261E+02 -0.22138730163E+02 -0.51974974702E+01  0.25925288095E+02  0.00000000000E+00 0.  1.
          5    1    3    3  503    0  0.19624294737E+02  0.80789135119E+02 -0.26431043772E+03  0.27711747470E+03  0.47000000000E+01 0. -1.
         13    1    6    6    0    0 -0.40898882078E+02  0.31922344219E+02 -0.10350566210E+03  0.11578072682E+03  0.00000000000E+00 0. -1.
        -14    1    6    6    0    0  0.15740253612E+02 -0.86007885476E+01 -0.18769665983E+03  0.18855175751E+03  0.00000000000E+00 0.  1.
         -5    1    5    5    0  501  0.34837800789E+02 -0.68538020780E+02 -0.10620295976E+03  0.13119562233E+03  0.47000000000E+01 0.  1.
<mgrwt>
<rscale>  2 0.17929843E+03</rscale>
<asrwt>0</asrwt>
<pdfrwt beam="2">  1        1 0.13597915E+00 0.17929843E+03</pdfrwt>
<pdfrwt beam="1">  1       -1 0.56107719E-02 0.17929843E+03</pdfrwt>
<totfact> 0.28809637E+03</totfact>
</mgrwt>
</event>
<event>
12    1  0.5759937E-002  0.1838545E+03  0.7546771E-02  0.1164124E+00
          1   -1    0    0  503    0  0.00000000000E+00  0.00000000000E+00  0.46523633015E+03  0.46523633015E+03  0.00000000000E+00 0.  1.
         -1   -1    0    0    0  501 -0.00000000000E+00 -0.00000000000E+00 -0.12433030831E+03  0.12433030831E+03  0.00000000000E+00 0. -1.
          6    2    1    2  503    0 -0.54200818507E+02 -0.19340489521E+02 -0.20032514493E+02  0.18412355977E+03  0.17374809457E+03 0.  0.
         24    2    3    3    0    0 -0.60865174893E+02 -0.39317582880E+02 -0.71014469178E+02  0.12876339712E+03  0.79287551155E+02 0.  0.
         -6    2    1    2    0  501  0.54200818507E+02  0.19340489521E+02  0.36093853633E+03  0.40544307869E+03  0.17548697897E+03 0.  0.
        -24    2    5    5    0    0  0.52098931338E+02  0.74064862162E+02  0.19090517867E+03  0.22674610723E+03  0.82274585683E+02 0.  0.
          2    1    4    4  502    0 -0.51031693776E+02 -0.13797405036E+02 -0.83398032403E+02  0.98741247531E+02  0.00000000000E+00 0. -1.
         -1    1    4    4    0  502 -0.98334811176E+01 -0.25520177844E+02  0.12383563225E+02  0.30022149594E+02  0.00000000000E+00 0.  1.
          5    1    3    3  503    0  0.66643563858E+01  0.19977093359E+02  0.50981954685E+02  0.55360162650E+02  0.47000000000E+01 0. -1.
         13    1    6    6    0    0  0.14695435262E+02  0.78786200127E+02  0.98766989459E+02  0.12719331490E+03  0.00000000000E+00 0. -1.
        -14    1    6    6    0    0  0.37403496076E+02 -0.47213379653E+01  0.92138189209E+02  0.99552792334E+02  0.00000000000E+00 0.  1.
         -5    1    5    5    0  501  0.21018871690E+01 -0.54724372640E+02  0.17003335766E+03  0.17869697146E+03  0.47000000000E+01 0.  1.
<mgrwt>
<rscale>  2 0.18385445E+03</rscale>
<asrwt>0</asrwt>
<pdfrwt beam="1">  1        1 0.71574819E-01 0.18385445E+03</pdfrwt>
<pdfrwt beam="2">  1       -1 0.19127740E-01 0.18385445E+03</pdfrwt>
<totfact> 0.10767469E+03</totfact>
</mgrwt>
</event>
<event>
12    1  0.5759937E-002  0.2176891E+03  0.7546771E-02  0.1135618E+00
          2   -1    0    0  503    0  0.00000000000E+00  0.00000000000E+00  0.34309008614E+04  0.34309008614E+04  0.00000000000E+00 0. -1.
         -2   -1    0    0    0  501 -0.00000000000E+00 -0.00000000000E+00 -0.18536951319E+02  0.18536951319E+02  0.00000000000E+00 0.  1.
          6    2    1    2  503    0 -0.80322147169E+02  0.10567815210E+03  0.25775934866E+04  0.25867793457E+04  0.17268376216E+03 0.  0.
         24    2    3    3    0    0  0.20866260981E+02  0.18899414525E+02  0.12138457753E+04  0.12165240580E+04  0.75608390777E+02 0.  0.
         -6    2    1    2    0  501  0.80322147169E+02 -0.10567815210E+03  0.83477042340E+03  0.86265846700E+03  0.17239040502E+03 0.  0.
        -24    2    5    5    0    0  0.31718593223E+01 -0.10368003816E+03  0.39274239909E+03  0.41391909537E+03  0.79516127074E+02 0.  0.
          4    1    4    4  502    0  0.32665288543E+02  0.42660008104E+02  0.75205585482E+03  0.75397274893E+03  0.00000000000E+00 0. -1.
         -3    1    4    4    0  502 -0.11799027562E+02 -0.23760593579E+02  0.46178992051E+03  0.46255130910E+03  0.00000000000E+00 0.  1.
          5    1    3    3  503    0 -0.10118840815E+03  0.86778737571E+02  0.13637477113E+04  0.13702552877E+04  0.47000000000E+01 0. -1.
         13    1    6    6    0    0 -0.27305330134E+02 -0.56482695449E+02  0.29109253284E+03  0.29777632313E+03  0.00000000000E+00 0. -1.
        -14    1    6    6    0    0  0.30477189456E+02 -0.47197342709E+02  0.10164986625E+03  0.11614277224E+03  0.00000000000E+00 0.  1.
         -5    1    5    5    0  501  0.77150287847E+02 -0.19981139377E+01  0.44202802431E+03  0.44873937163E+03  0.47000000000E+01 0.  1.
<mgrwt>
<rscale>  2 0.21768913E+03</rscale>
<asrwt>0</asrwt>
<pdfrwt beam="1">  1        2 0.52783040E+00 0.21768913E+03</pdfrwt>
<pdfrwt beam="2">  1       -2 0.28518414E-02 0.21768913E+03</pdfrwt>
<totfact> 0.52229671E+02</totfact>
</mgrwt>
</event>
<event>
12    1  0.5759937E-002  0.1875201E+03  0.7546771E-02  0.1160717E+00
          1   -1    0    0  503    0  0.00000000000E+00  0.00000000000E+00  0.57635007354E+03  0.57635007354E+03  0.00000000000E+00 0.  1.
         -1   -1    0    0    0  501 -0.00000000000E+00 -0.00000000000E+00 -0.76883615513E+02  0.76883615513E+02  0.00000000000E+00 0. -1.
          6    2    1    2  503    0  0.44967635478E+02  0.55659242597E+02  0.10152665508E+03  0.21340383370E+03  0.17353240336E+03 0.  0.
         24    2    3    3    0    0  0.71357721718E+02  0.13870471850E+02  0.96848267060E+01  0.10900196852E+03  0.80643157396E+02 0.  0.
         -6    2    1    2    0  501 -0.44967635478E+02 -0.55659242597E+02  0.39793980295E+03  0.43982985536E+03  0.17313051542E+03 0.  0.
        -24    2    5    5    0    0 -0.76882743515E+02 -0.22078402949E+02  0.15369541534E+03  0.19118621923E+03  0.80817557491E+02 0.  0.
          2    1    4    4  502    0  0.77556627387E+02  0.32325874334E+02 -0.56583072675E+01  0.84214066784E+02  0.00000000000E+00 0. -1.
         -1    1    4    4    0  502 -0.61989056692E+01 -0.18455402485E+02  0.15343133973E+02  0.24787901736E+02  0.00000000000E+00 0.  1.
          5    1    3    3  503    0 -0.26390086240E+02  0.41788770747E+02  0.91841828377E+02  0.10440186517E+03  0.47000000000E+01 0. -1.
         13    1    6    6    0    0 -0.68924925640E+02 -0.80835137657E+01  0.15960276493E+03  0.17403744178E+03  0.00000000000E+00 0. -1.
        -14    1    6    6    0    0 -0.79578178753E+01 -0.13994889183E+02 -0.59073495913E+01  0.17148777443E+02  0.00000000000E+00 0.  1.
         -5    1    5    5    0  501  0.31915108037E+02 -0.33580839648E+02  0.24424438761E+03  0.24864363613E+03  0.47000000000E+01 0.  1.
<mgrwt>
<rscale>  2 0.18752015E+03</rscale>
<asrwt>0</asrwt>
<pdfrwt beam="1">  1        1 0.88669239E-01 0.18752015E+03</pdfrwt>
<pdfrwt beam="2">  1       -1 0.11828249E-01 0.18752015E+03</pdfrwt>
<totfact> 0.17319228E+03</totfact>
</mgrwt>
</event>
<event>
12    1  0.5759937E-002  0.1755757E+03  0.7546771E-02  0.1172155E+00
         -2   -1    0    0    0  501 -0.00000000000E+00  0.00000000000E+00  0.16951407505E+02  0.16951407505E+02  0.00000000000E+00 0.  1.
          2   -1    0    0  503    0  0.00000000000E+00 -0.00000000000E+00 -0.20056504502E+04  0.20056504502E+04  0.00000000000E+00 0. -1.
          6    2    1    2  503    0  0.21243892560E+02 -0.42808162106E+02 -0.13127285465E+04  0.13246705522E+04  0.17091516414E+03 0.  0.
         24    2    3    3    0    0  0.54235874472E+02 -0.11642468692E+02 -0.11843104582E+04  0.11883875132E+04  0.81219104553E+02 0.  0.
         -6    2    1    2    0  501 -0.21243892560E+02  0.42808162106E+02 -0.67597049617E+03  0.69793130549E+03  0.16699746637E+03 0.  0.
        -24    2    5    5    0    0 -0.67825921425E+02  0.53997607090E+02 -0.38237996999E+03  0.40042067349E+03  0.81278392674E+02 0.  0.
          4    1    4    4  502    0  0.28665053173E+02  0.16676657503E+02 -0.97900973347E+03  0.97957126050E+03  0.00000000000E+00 0. -1.
         -3    1    4    4    0  502  0.25570821299E+02 -0.28319126195E+02 -0.20530072477E+03  0.20881625272E+03  0.00000000000E+00 0.  1.
          5    1    3    3  503    0 -0.32991981912E+02 -0.31165693414E+02 -0.12841808824E+03  0.13628303895E+03  0.47000000000E+01 0. -1.
         11    1    6    6    0    0 -0.23403310391E+02 -0.20651130732E+02 -0.82265319042E+02  0.87987310760E+02  0.00000000000E+00 0. -1.
        -12    1    6    6    0    0 -0.44422611034E+02  0.74648737822E+02 -0.30011465095E+03  0.31243336273E+03  0.00000000000E+00 0.  1.
         -5    1    5    5    0  501  0.46582028866E+02 -0.11189444984E+02 -0.29359052617E+03  0.29751063200E+03  0.47000000000E+01 0.  1.
<mgrwt>
<rscale>  2 0.17557565E+03</rscale>
<asrwt>0</asrwt>
<pdfrwt beam="2">  1        2 0.30856170E+00 0.17557565E+03</pdfrwt>
<pdfrwt beam="1">  1       -2 0.26079081E-02 0.17557565E+03</pdfrwt>
<totfact> 0.38476944E+03</totfact>
</mgrwt>
</event>
<event>
12    1  0.5759937E-002  0.4063902E+03  0.7546771E-02  0.1041589E+00
          2   -1    0    0  503    0  0.00000000000E+00  0.00000000000E+00  0.20160966453E+04  0.20160966453E+04  0.00000000000E+00 0.  1.
         -2   -1    0    0    0  501 -0.00000000000E+00 -0.00000000000E+00 -0.12569687470E+03  0.12569687470E+03  0.00000000000E+00 0. -1.
          6    2    1    2  503    0 -0.36331775909E+03  0.58266041026E+02  0.31294151403E+03  0.51278686652E+03  0.17211407167E+03 0.  0.
         24    2    3    3    0    0 -0.21831760473E+03  0.32128622421E+02  0.10237240719E+03  0.25574669812E+03  0.78939463729E+02 0.  0.
         -6    2    1    2    0  501  0.36331775909E+03 -0.58266041026E+02  0.15774582565E+04  0.16290066534E+04  0.17289707987E+03 0.  0.
        -24    2    5    5    0    0  0.35741465853E+03 -0.23098535488E+02  0.14872677511E+04  0.15319086755E+04  0.80622864308E+02 0.  0.
          4    1    4    4  502    0 -0.16173711048E+03 -0.60678002995E+01  0.93470443246E+02  0.18690220669E+03  0.00000000000E+00 0. -1.
         -3    1    4    4    0  502 -0.56580494250E+02  0.38196422720E+02  0.89019639468E+01  0.68844491430E+02  0.00000000000E+00 0.  1.
          5    1    3    3  503    0 -0.14500015436E+03  0.26137418605E+02  0.21056910684E+03  0.25704016840E+03  0.47000000000E+01 0. -1.
         13    1    6    6    0    0  0.16396524134E+03 -0.18963900552E+02  0.52333698434E+03  0.54874933173E+03  0.00000000000E+00 0. -1.
        -14    1    6    6    0    0  0.19344941720E+03 -0.41346349364E+01  0.96393076674E+03  0.98315934379E+03  0.00000000000E+00 0.  1.
         -5    1    5    5    0  501  0.59031005563E+01 -0.35167505538E+02  0.90190505455E+02  0.97097977920E+02  0.47000000000E+01 0.  1.
<mgrwt>
<rscale>  2 0.40639020E+03</rscale>
<asrwt>0</asrwt>
<pdfrwt beam="1">  1        2 0.31016869E+00 0.40639020E+03</pdfrwt>
<pdfrwt beam="2">  1       -2 0.19337982E-01 0.40639020E+03</pdfrwt>
<totfact> 0.15869125E+02</totfact>
</mgrwt>
</event>
<event>
12    1  0.5759937E-002  0.1809471E+03  0.7546771E-02  0.1166890E+00
          1   -1    0    0  503    0  0.00000000000E+00  0.00000000000E+00  0.37699520479E+02  0.37699520479E+02  0.00000000000E+00 0. -1.
         -1   -1    0    0    0  501 -0.00000000000E+00 -0.00000000000E+00 -0.99923684766E+03  0.99923684766E+03  0.00000000000E+00 0.  1.
          6    2    1    2  503    0  0.53583840334E+02  0.80006233207E+01 -0.29505581444E+03  0.34653328689E+03  0.17347088335E+03 0.  0.
         24    2    3    3    0    0  0.80836829407E+01 -0.18094296565E+02 -0.27538152530E+03  0.29031605804E+03  0.89753437724E+02 0.  0.
         -6    2    1    2    0  501 -0.53583840334E+02 -0.80006233207E+01 -0.66648151273E+03  0.69040308124E+03  0.17182424116E+03 0.  0.
        -24    2    5    5    0    0 -0.19779387263E+02  0.73388052863E+00 -0.14811642051E+03  0.17084221720E+03  0.82805956382E+02 0.  0.
          2    1    4    4  502    0  0.11093527162E+02 -0.54078955829E+02 -0.18230517245E+03  0.19048038143E+03  0.00000000000E+00 0. -1.
         -1    1    4    4    0  502 -0.30098442214E+01  0.35984659264E+02 -0.93076352849E+02  0.99835676610E+02  0.00000000000E+00 0.  1.
          5    1    3    3  503    0  0.45500157393E+02  0.26094919886E+02 -0.19674289147E+02  0.56217228855E+02  0.47000000000E+01 0. -1.
         13    1    6    6    0    0 -0.32215283265E+02 -0.30366480961E+02 -0.11711230694E+03  0.12520079903E+03  0.00000000000E+00 0. -1.
        -14    1    6    6    0    0  0.12435896001E+02  0.31100361489E+02 -0.31004113572E+02  0.45641418169E+02  0.00000000000E+00 0.  1.
         -5    1    5    5    0  501 -0.33804453071E+02 -0.87345038494E+01 -0.51836509222E+03  0.51956086404E+03  0.47000000000E+01 0.  1.
<mgrwt>
<rscale>  2 0.18094713E+03</rscale>
<asrwt>0</asrwt>
<pdfrwt beam="1">  1        1 0.57999272E-02 0.18094713E+03</pdfrwt>
<pdfrwt beam="2">  1       -1 0.15372872E+00 0.18094713E+03</pdfrwt>
<totfact> 0.47906009E+02</totfact>
</mgrwt>
</event>
<event>
12    1  0.5759937E-002  0.2003218E+03  0.7546771E-02  0.1149468E+00
         -1   -1    0    0    0  501 -0.00000000000E+00  0.00000000000E+00  0.62380081570E+02  0.62380081570E+02  0.00000000000E+00 0. -1.
          1   -1    0    0  503    0  0.00000000000E+00 -0.00000000000E+00 -0.10450950047E+04  0.10450950047E+04  0.00000000000E+00 0.  1.
          6    2    1    2  503    0 -0.97644378393E+02 -0.89744098171E+01 -0.14570446912E+03  0.24646494136E+03  0.17291677286E+03 0.  0.
         24    2    3    3    0    0 -0.53094881660E+02  0.37676343234E+02 -0.14853412378E+03  0.18172664231E+03  0.81997642032E+02 0.  0.
         -6    2    1    2    0  501  0.97644378393E+02  0.89744098171E+01 -0.83701045406E+03  0.86101014496E+03  0.17645680732E+03 0.  0.
        -24    2    5    5    0    0  0.61445077003E+02 -0.50684319056E+02 -0.67628509932E+03  0.68572670875E+03  0.80716701161E+02 0.  0.
          4    1    4    4  502    0 -0.16053841501E+02  0.59206546472E+02 -0.78490035676E+02  0.99618405290E+02  0.00000000000E+00 0. -1.
         -3    1    4    4    0  502 -0.37041040159E+02 -0.21530203239E+02 -0.70044088103E+02  0.82108237015E+02  0.00000000000E+00 0.  1.
          5    1    3    3  503    0 -0.44549496733E+02 -0.46650753051E+02  0.28296546597E+01  0.64738299057E+02  0.47000000000E+01 0. -1.
         13    1    6    6    0    0 -0.53460003351E+01 -0.26426740970E+02 -0.65650619923E+02  0.70971517203E+02  0.00000000000E+00 0. -1.
        -14    1    6    6    0    0  0.66791077338E+02 -0.24257578086E+02 -0.61063447940E+03  0.61475519155E+03  0.00000000000E+00 0.  1.
         -5    1    5    5    0  501  0.36199301390E+02  0.59658728873E+02 -0.16072535474E+03  0.17528343620E+03  0.47000000000E+01 0.  1.
<mgrwt>
<rscale>  2 0.20032176E+03</rscale>
<asrwt>0</asrwt>
<pdfrwt beam="2">  1        1 0.16078384E+00 0.20032176E+03</pdfrwt>
<pdfrwt beam="1">  1       -1 0.95969360E-02 0.20032176E+03</pdfrwt>
<totfact> 0.96604731E+02</totfact>
</mgrwt>
</event>
<event>
12    1  0.5759937E-002  0.1990280E+03  0.7546771E-02  0.1150562E+00
         -3   -1    0    0    0  501 -0.00000000000E+00  0.00000000000E+00  0.35062574289E+04  0.35062574289E+04  0.00000000000E+00 0.  1.
          3   -1    0    0  503    0  0.00000000000E+00 -0.00000000000E+00 -0.13620407923E+02  0.13620407923E+02  0.00000000000E+00 0. -1.
          6    2    1    2  503    0  0.47824814177E+02  0.87105772178E+02  0.10132916373E+04  0.10324876346E+04  0.17145304044E+03 0.  0.
         24    2    3    3    0    0  0.26167850917E+02  0.11826952290E+03  0.59353397464E+03  0.61099174050E+03  0.79723844888E+02 0.  0.
         -6    2    1    2    0  501 -0.47824814177E+02 -0.87105772178E+02  0.24793453837E+04  0.24873902022E+04  0.17344122327E+03 0.  0.
        -24    2    5    5    0    0 -0.28968061985E+02 -0.28989899595E+02  0.72086318937E+03  0.72784061508E+03  0.91807735411E+02 0.  0.
          4    1    4    4  502    0 -0.25372912258E+02  0.39385961730E+02  0.13566132405E+03  0.14352363395E+03  0.00000000000E+00 0. -1.
         -3    1    4    4    0  502  0.51540763175E+02  0.78883561171E+02  0.45787265058E+03  0.46746810655E+03  0.00000000000E+00 0.  1.
          5    1    3    3  503    0  0.21656963261E+02 -0.31163750723E+02  0.41975766263E+03  0.42149589411E+03  0.47000000000E+01 0. -1.
         11    1    6    6    0    0 -0.55545943965E+02 -0.35603361354E+02  0.61356553771E+03  0.61710260111E+03  0.00000000000E+00 0. -1.
        -12    1    6    6    0    0  0.26577881980E+02  0.66134617588E+01  0.10729765166E+03  0.11073801398E+03  0.00000000000E+00 0.  1.
         -5    1    5    5    0  501 -0.18856752192E+02 -0.58115872583E+02  0.17584821943E+04  0.17595495871E+04  0.47000000000E+01 0.  1.
<mgrwt>
<rscale>  2 0.19902800E+03</rscale>
<asrwt>0</asrwt>
<pdfrwt beam="2">  1        3 0.20954502E-02 0.19902800E+03</pdfrwt>
<pdfrwt beam="1">  1       -3 0.53942350E+00 0.19902800E+03</pdfrwt>
<totfact> 0.54056214E+00</totfact>
</mgrwt>
</event>
<event>
12    1  0.5759937E-002  0.1850076E+03  0.7546771E-02  0.1163043E+00
         -1   -1    0    0    0  501 -0.00000000000E+00  0.00000000000E+00  0.14015266587E+03  0.14015266587E+03  0.00000000000E+00 0.  1.
          1   -1    0    0  503    0  0.00000000000E+00 -0.00000000000E+00 -0.30228982260E+03  0.30228982260E+03  0.00000000000E+00 0. -1.
          6    2    1    2  503    0  0.25807702683E+02 -0.56220601817E+02  0.16240009530E+02  0.18472413711E+03  0.17329880361E+03 0.  0.
         24    2    3    3    0    0 -0.44800226557E+02 -0.36271854868E+02  0.41419590639E+02  0.10700970163E+03  0.80079872622E+02 0.  0.
         -6    2    1    2    0  501 -0.25807702683E+02  0.56220601817E+02 -0.17837716626E+03  0.25771835137E+03  0.17542389119E+03 0.  0.
        -24    2    5    5    0    0 -0.72916108342E+02  0.19268708575E+02 -0.16085343385E+03  0.19515785668E+03  0.80775738045E+02 0.  0.
          4    1    4    4  502    0  0.66959276561E+01  0.18005771576E+02 -0.38060257890E+01  0.19583898732E+02  0.00000000000E+00 0. -1.
         -3    1    4    4    0  502 -0.51496154213E+02 -0.54277626444E+02  0.45225616428E+02  0.87425802899E+02  0.00000000000E+00 0.  1.
          5    1    3    3  503    0  0.70607929240E+02 -0.19948746949E+02 -0.25179581109E+02  0.77714435475E+02  0.47000000000E+01 0. -1.
         11    1    6    6    0    0 -0.59731096089E+02 -0.24667615411E+02 -0.92484981236E+02  0.11282626841E+03  0.00000000000E+00 0. -1.
        -12    1    6    6    0    0 -0.13185012253E+02  0.43936323986E+02 -0.68368452612E+02  0.82331588264E+02  0.00000000000E+00 0.  1.
         -5    1    5    5    0  501  0.47108405659E+02  0.36951893242E+02 -0.17523732410E+02  0.62560494687E+02  0.47000000000E+01 0.  1.
<mgrwt>
<rscale>  2 0.18500756E+03</rscale>
<asrwt>0</asrwt>
<pdfrwt beam="2">  1        1 0.46506126E-01 0.18500756E+03</pdfrwt>
<pdfrwt beam="1">  1       -1 0.21561949E-01 0.18500756E+03</pdfrwt>
<totfact> 0.15329210E+03</totfact>
</mgrwt>
</event>
<event>
12    1  0.5759937E-002  0.2209918E+03  0.7546771E-02  0.1133146E+00
          2   -1    0    0  503    0  0.00000000000E+00  0.00000000000E+00  0.41323362537E+03  0.41323362537E+03  0.00000000000E+00 0. -1.
         -2   -1    0    0    0  501 -0.00000000000E+00 -0.00000000000E+00 -0.12033131429E+03  0.12033131429E+03  0.00000000000E+00 0.  1.
          6    2    1    2  503    0 -0.12223897965E+03  0.64477068182E+02  0.18202175888E+03  0.28621724716E+03  0.17230418277E+03 0.  0.
         24    2    3    3    0    0 -0.62207283917E+01  0.66369399730E+02  0.73093800466E+02  0.12699662768E+03  0.79635702384E+02 0.  0.
         -6    2    1    2    0  501  0.12223897965E+03 -0.64477068182E+02  0.11088055220E+03  0.24734769250E+03  0.17258830686E+03 0.  0.
        -24    2    5    5    0    0  0.13215456452E+03 -0.67499488293E+02  0.14084698961E+03  0.21529256470E+03  0.67022414820E+02 0.  0.
          2    1    4    4  502    0  0.42610672056E+01  0.31094136536E+01  0.61632580990E+02  0.61857903186E+02  0.00000000000E+00 0. -1.
         -1    1    4    4    0  502 -0.10481795597E+02  0.63259986077E+02  0.11461219476E+02  0.65138724498E+02  0.00000000000E+00 0.  1.
          5    1    3    3  503    0 -0.11601825125E+03 -0.18923315479E+01  0.10892795842E+03  0.15922061948E+03  0.47000000000E+01 0. -1.
         11    1    6    6    0    0  0.71257577012E+02 -0.33707674706E+02  0.11817003725E+03  0.14204931299E+03  0.00000000000E+00 0. -1.
        -12    1    6    6    0    0  0.60896987512E+02 -0.33791813587E+02  0.22676952363E+02  0.73243251716E+02  0.00000000000E+00 0.  1.
         -5    1    5    5    0  501 -0.99155848768E+01  0.30224201105E+01 -0.29966437417E+02  0.32055127800E+02  0.47000000000E+01 0.  1.
<mgrwt>
<rscale>  2 0.22099177E+03</rscale>
<asrwt>0</asrwt>
<pdfrwt beam="1">  1        2 0.63574403E-01 0.22099177E+03</pdfrwt>
<pdfrwt beam="2">  1       -2 0.18512510E-01 0.22099177E+03</pdfrwt>
<totfact> 0.18378091E+03</totfact>
</mgrwt>
</event>
<event>
12    1  0.5759937E-002  0.1845800E+03  0.7546771E-02  0.1163443E+00
          1   -1    0    0  503    0  0.00000000000E+00  0.00000000000E+00  0.69113266476E+03  0.69113266476E+03  0.00000000000E+00 0.  1.
         -1   -1    0    0    0  501 -0.00000000000E+00 -0.00000000000E+00 -0.49300627506E+02  0.49300627506E+02  0.00000000000E+00 0. -1.
          6    2    1    2  503    0  0.68189524146E+02 -0.79519659517E+01  0.32579181762E+03  0.37490584753E+03  0.17233989995E+03 0.  0.
         24    2    3    3    0    0  0.24193862646E+02  0.41793485198E+02  0.27410818646E+03  0.29062348952E+03  0.83634181907E+02 0.  0.
         -6    2    1    2    0  501 -0.68189524146E+02  0.79519659517E+01  0.31604021963E+03  0.36552744473E+03  0.17034038707E+03 0.  0.
        -24    2    5    5    0    0  0.41086948173E+01 -0.20298296542E+02  0.95107574118E+02  0.13130867169E+03  0.88134070540E+02 0.  0.
          2    1    4    4  502    0  0.31509328095E+02  0.59478537640E+02  0.14210144993E+03  0.15723662509E+03  0.00000000000E+00 0. -1.
         -1    1    4    4    0  502 -0.73154654496E+01 -0.17685052442E+02  0.13200673652E+03  0.13338686443E+03  0.00000000000E+00 0.  1.
          5    1    3    3  503    0  0.43995661501E+02 -0.49745451149E+02  0.51683631168E+02  0.84282358010E+02  0.47000000000E+01 0. -1.
         13    1    6    6    0    0 -0.36805765347E+02 -0.69998573268E+00  0.16049418901E+02  0.40158911712E+02  0.00000000000E+00 0. -1.
        -14    1    6    6    0    0  0.40914460165E+02 -0.19598310810E+02  0.79058155217E+02  0.91149759975E+02  0.00000000000E+00 0.  1.
         -5    1    5    5    0  501 -0.72298218964E+02  0.28250262494E+02  0.22093264551E+03  0.23421877305E+03  0.47000000000E+01 0.  1.
<mgrwt>
<rscale>  2 0.18457997E+03</rscale>
<asrwt>0</asrwt>
<pdfrwt beam="1">  1        1 0.10632809E+00 0.18457997E+03</pdfrwt>
<pdfrwt beam="2">  1       -1 0.75847125E-02 0.18457997E+03</pdfrwt>
<totfact> 0.26553206E+03</totfact>
</mgrwt>
</event>
<event>
12    1  0.5759937E-002  0.1781654E+03  0.7546771E-02  0.1169590E+00
          1   -1    0    0  503    0  0.00000000000E+00  0.00000000000E+00  0.17041105260E+03  0.17041105260E+03  0.00000000000E+00 0. -1.
         -1   -1    0    0    0  501 -0.00000000000E+00 -0.00000000000E+00 -0.20548353916E+03  0.20548353916E+03  0.00000000000E+00 0.  1.
          6    2    1    2  503    0 -0.18150124148E+02  0.33061604951E+02  0.39877008467E+02  0.18313252439E+03  0.17471361984E+03 0.  0.
         24    2    3    3    0    0 -0.35454512056E+02  0.65032404746E+02 -0.20721725952E+02  0.11230971385E+03  0.81840367828E+02 0.  0.
         -6    2    1    2    0  501  0.18150124148E+02 -0.33061604951E+02 -0.74949495025E+02  0.19276206736E+03  0.17354334064E+03 0.  0.
        -24    2    5    5    0    0  0.28892850370E+02 -0.73919161738E+02 -0.87609551376E+01  0.11409975793E+03  0.81505589682E+02 0.  0.
          2    1    4    4  502    0 -0.27179628843E+02  0.84551946665E+02 -0.20304412552E+02  0.91104517331E+02  0.00000000000E+00 0. -1.
         -1    1    4    4    0  502 -0.82748832133E+01 -0.19519541919E+02 -0.41731339947E+00  0.21205196519E+02  0.00000000000E+00 0.  1.
          5    1    3    3  503    0  0.17304387909E+02 -0.31970799795E+02  0.60598734419E+02  0.70822810546E+02  0.47000000000E+01 0. -1.
         13    1    6    6    0    0  0.38242139847E+02 -0.66096339067E+02 -0.35876439067E+02  0.84370054986E+02  0.00000000000E+00 0. -1.
        -14    1    6    6    0    0 -0.93492894769E+01 -0.78228226711E+01  0.27115483929E+02  0.29729702941E+02  0.00000000000E+00 0.  1.
         -5    1    5    5    0  501 -0.10742726222E+02  0.40857556787E+02 -0.66188539887E+02  0.78662309435E+02  0.47000000000E+01 0.  1.
<mgrwt>
<rscale>  2 0.17816541E+03</rscale>
<asrwt>0</asrwt>
<pdfrwt beam="1">  1        1 0.26217085E-01 0.17816541E+03</pdfrwt>
<pdfrwt beam="2">  1       -1 0.31612852E-01 0.17816541E+03</pdfrwt>
<totfact> 0.16596737E+03</totfact>
</mgrwt>
</event>
<event>
12    1  0.5759937E-002  0.1937210E+03  0.7546771E-02  0.1155147E+00
         -2   -1    0    0    0  501 -0.00000000000E+00  0.00000000000E+00  0.10908253502E+03  0.10908253502E+03  0.00000000000E+00 0. -1.
          2   -1    0    0  503    0  0.00000000000E+00 -0.00000000000E+00 -0.69026123120E+03  0.69026123120E+03  0.00000000000E+00 0.  1.
          6    2    1    2  503    0  0.55490938483E+02  0.69391720462E+02 -0.57449738516E+03  0.60664713780E+03  0.17343312577E+03 0.  0.
         24    2    3    3    0    0  0.80148438455E+02  0.95084819901E+02 -0.52466130917E+03  0.54521545107E+03  0.80780589134E+02 0.  0.
         -6    2    1    2    0  501 -0.55490938483E+02 -0.69391720462E+02 -0.66813110236E+01  0.19269662842E+03  0.17085928587E+03 0.  0.
        -24    2    5    5    0    0 -0.29401334832E+02 -0.11252177666E+03 -0.15694061851E+02  0.14127495164E+03  0.78655703356E+02 0.  0.
          2    1    4    4  502    0  0.72912750831E+02  0.49498798681E+02 -0.21863566675E+03  0.23572856229E+03  0.00000000000E+00 0. -1.
         -1    1    4    4    0  502  0.72356876237E+01  0.45586021219E+02 -0.30602564242E+03  0.30948688878E+03  0.00000000000E+00 0.  1.
          5    1    3    3  503    0 -0.24657499972E+02 -0.25693099439E+02 -0.49836075990E+02  0.61431686724E+02  0.47000000000E+01 0. -1.
         11    1    6    6    0    0 -0.36885698919E+02 -0.12216998545E+02  0.29883227307E+01  0.38971013727E+02  0.00000000000E+00 0. -1.
        -12    1    6    6    0    0  0.74843640873E+01 -0.10030477811E+03 -0.18682384582E+02  0.10230393791E+03  0.00000000000E+00 0.  1.
         -5    1    5    5    0  501 -0.26089603651E+02  0.43130056196E+02  0.90127508276E+01  0.51421676788E+02  0.47000000000E+01 0.  1.
<mgrwt>
<rscale>  2 0.19372096E+03</rscale>
<asrwt>0</asrwt>
<pdfrwt beam="2">  1        2 0.10619403E+00 0.19372096E+03</pdfrwt>
<pdfrwt beam="1">  1       -2 0.16781929E-01 0.19372096E+03</pdfrwt>
<totfact> 0.12092434E+03</totfact>
</mgrwt>
</event>
<event>
12    1  0.5759937E-002  0.2016343E+03  0.7546771E-02  0.1148367E+00
          2   -1    0    0  503    0  0.00000000000E+00  0.00000000000E+00  0.18432892914E+04  0.18432892914E+04  0.00000000000E+00 0.  1.
         -2   -1    0    0    0  501 -0.00000000000E+00 -0.00000000000E+00 -0.22434763983E+02  0.22434763983E+02  0.00000000000E+00 0. -1.
          6    2    1    2  503    0  0.16738053975E+02 -0.10233834840E+03  0.78751173920E+03  0.81281551077E+03  0.17245583544E+03 0.  0.
         24    2    3    3    0    0  0.43405387442E+02 -0.11654983171E+03  0.45006747129E+03  0.47398836181E+03  0.81463780213E+02 0.  0.
         -6    2    1    2    0  501 -0.16738053975E+02  0.10233834840E+03  0.10333427882E+04  0.10529085446E+04  0.17339488268E+03 0.  0.
        -24    2    5    5    0    0 -0.30181220754E+02  0.13810895469E+03  0.81027624145E+03  0.82654372999E+03  0.81498225007E+02 0.  0.
          4    1    4    4  502    0  0.37010001076E+02 -0.12310627888E+03  0.44564975468E+03  0.46381957691E+03  0.00000000000E+00 0. -1.
         -3    1    4    4    0  502  0.63953863658E+01  0.65564471682E+01  0.44177166066E+01  0.10168784896E+02  0.00000000000E+00 0.  1.
          5    1    3    3  503    0 -0.26667333467E+02  0.14211483314E+02  0.33744426791E+03  0.33882714897E+03  0.47000000000E+01 0. -1.
         11    1    6    6    0    0  0.12536387557E+02 -0.76085321556E+00  0.25428401565E+02  0.28360950561E+02  0.00000000000E+00 0. -1.
        -12    1    6    6    0    0 -0.42717608311E+02  0.13886980791E+03  0.78484783989E+03  0.79818277943E+03  0.00000000000E+00 0.  1.
         -5    1    5    5    0  501  0.13443166779E+02 -0.35770606299E+02  0.22306654679E+03  0.22636481463E+03  0.47000000000E+01 0.  1.
<mgrwt>
<rscale>  2 0.20163426E+03</rscale>
<asrwt>0</asrwt>
<pdfrwt beam="1">  1        2 0.28358285E+00 0.20163426E+03</pdfrwt>
<pdfrwt beam="2">  1       -2 0.34515036E-02 0.20163426E+03</pdfrwt>
<totfact> 0.30834271E+03</totfact>
</mgrwt>
</event>
<event>
12    1  0.5759937E-002  0.2705265E+03  0.7546771E-02  0.1100979E+00
          2   -1    0    0  503    0  0.00000000000E+00  0.00000000000E+00  0.91888275741E+03  0.91888275741E+03  0.00000000000E+00 0. -1.
         -2   -1    0    0    0  501 -0.00000000000E+00 -0.00000000000E+00 -0.80078260596E+02  0.80078260596E+02  0.00000000000E+00 0.  1.
          6    2    1    2  503    0  0.14798876551E+03 -0.14503875681E+03  0.38139870257E+03  0.46711171784E+03  0.17260205946E+03 0.  0.
         24    2    3    3    0    0  0.20521143900E+02 -0.62801178850E+02  0.23419507188E+03  0.25568321296E+03  0.78495020777E+02 0.  0.
         -6    2    1    2    0  501 -0.14798876551E+03  0.14503875681E+03  0.45740579424E+03  0.53184930016E+03  0.17523327818E+03 0.  0.
        -24    2    5    5    0    0 -0.12144713133E+03  0.13531135881E+03  0.46221857467E+03  0.50279188335E+03  0.78071106410E+02 0.  0.
          2    1    4    4  502    0 -0.17516565679E+02 -0.10449958519E+02  0.10749780876E+02  0.23056224650E+02  0.00000000000E+00 0. -1.
         -1    1    4    4    0  502  0.38037709579E+02 -0.52351220331E+02  0.22344529100E+03  0.23262698831E+03  0.00000000000E+00 0.  1.
          5    1    3    3  503    0  0.12746762161E+03 -0.82237577959E+02  0.14720363070E+03  0.21142850488E+03  0.47000000000E+01 0. -1.
         13    1    6    6    0    0 -0.31651690400E+02  0.11060699321E+02  0.33110760569E+02  0.47122086542E+02  0.00000000000E+00 0. -1.
        -14    1    6    6    0    0 -0.89795440933E+02  0.12425065949E+03  0.42910781410E+03  0.45566979680E+03  0.00000000000E+00 0.  1.
         -5    1    5    5    0  501 -0.26541634176E+02  0.97273979983E+01 -0.48127804282E+01  0.29057416815E+02  0.47000000000E+01 0.  1.
<mgrwt>
<rscale>  2 0.27052647E+03</rscale>
<asrwt>0</asrwt>
<pdfrwt beam="1">  1        2 0.14136657E+00 0.27052647E+03</pdfrwt>
<pdfrwt beam="2">  1       -2 0.12319733E-01 0.27052647E+03</pdfrwt>
<totfact> 0.13995162E+03</totfact>
</mgrwt>
</event>
<event>
12    1  0.5759937E-002  0.2243605E+03  0.7546771E-02  0.1130673E+00
         -1   -1    0    0    0  501 -0.00000000000E+00  0.00000000000E+00  0.23973839667E+03  0.23973839667E+03  0.00000000000E+00 0. -1.
          1   -1    0    0  503    0  0.00000000000E+00 -0.00000000000E+00 -0.36189823620E+03  0.36189823620E+03  0.00000000000E+00 0.  1.
          6    2    1    2  503    0 -0.11533422178E+03  0.85831111732E+02  0.13406498659E+03  0.26003742542E+03  0.17022655356E+03 0.  0.
         24    2    3    3    0    0 -0.32951652336E+02 -0.11860758789E+02  0.90366253093E+02  0.12489950097E+03  0.78786652771E+02 0.  0.
         -6    2    1    2    0  501  0.11533422178E+03 -0.85831111732E+02 -0.25622482611E+03  0.34159920744E+03  0.17426960307E+03 0.  0.
        -24    2    5    5    0    0  0.57182143601E+01 -0.67662862749E+02 -0.75285493639E+02  0.12921538887E+03  0.80110861921E+02 0.  0.
          2    1    4    4  502    0 -0.33756616582E+02  0.20375706222E+02  0.82901092229E+02  0.91800161546E+02  0.00000000000E+00 0. -1.
         -1    1    4    4    0  502  0.80496424559E+00 -0.32236465011E+02  0.74651608643E+01  0.33099339428E+02  0.00000000000E+00 0.  1.
          5    1    3    3  503    0 -0.82382569449E+02  0.97691870522E+02  0.43698733494E+02  0.13513792445E+03  0.47000000000E+01 0. -1.
         13    1    6    6    0    0 -0.21378992018E+02 -0.21958188551E+02  0.68396388536E+01  0.31400700689E+02  0.00000000000E+00 0. -1.
        -14    1    6    6    0    0  0.27097206378E+02 -0.45704674198E+02 -0.82125132492E+02  0.97814688181E+02  0.00000000000E+00 0.  1.
         -5    1    5    5    0  501  0.10961600742E+03 -0.18168248984E+02 -0.18093933247E+03  0.21238381857E+03  0.47000000000E+01 0.  1.
<mgrwt>
<rscale>  2 0.22436050E+03</rscale>
<asrwt>0</asrwt>
<pdfrwt beam="2">  1        1 0.55676652E-01 0.22436050E+03</pdfrwt>
<pdfrwt beam="1">  1       -1 0.36882830E-01 0.22436050E+03</pdfrwt>
<totfact> 0.49511077E+02</totfact>
</mgrwt>
</event>
<event>
12    1  0.5759937E-002  0.1769621E+03  0.7546771E-02  0.1170776E+00
         -2   -1    0    0    0  501 -0.00000000000E+00  0.00000000000E+00  0.78887425656E+03  0.78887425656E+03  0.00000000000E+00 0.  1.
          2   -1    0    0  503    0  0.00000000000E+00 -0.00000000000E+00 -0.39772324897E+02  0.39772324897E+02  0.00000000000E+00 0. -1.
          6    2    1    2  503    0  0.42134652670E+02 -0.71242312026E+01  0.35389723201E+03  0.39507642470E+03  0.17034097246E+03 0.  0.
         24    2    3    3    0    0  0.88695680864E+02 -0.28261933219E+02  0.27879402595E+03  0.30409668325E+03  0.77993738107E+02 0.  0.
         -6    2    1    2    0  501 -0.42134652670E+02  0.71242312026E+01  0.39520469965E+03  0.43357015676E+03  0.17311915718E+03 0.  0.
        -24    2    5    5    0    0  0.17338420708E+02  0.43448836457E+02  0.13417864560E+03  0.16336058199E+03  0.80587521313E+02 0.  0.
          2    1    4    4  502    0  0.45753467900E+02 -0.14241414785E+02  0.44192665609E+02  0.65185806842E+02  0.00000000000E+00 0. -1.
         -1    1    4    4    0  502  0.42942212964E+02 -0.14020518435E+02  0.23460136034E+03  0.23891087641E+03  0.00000000000E+00 0.  1.
          5    1    3    3  503    0 -0.46561028195E+02  0.21137702017E+02  0.75103206061E+02  0.90979741446E+02  0.47000000000E+01 0. -1.
         11    1    6    6    0    0 -0.20747715949E+02 -0.39048979758E+01  0.67188962252E+01  0.22155349507E+02  0.00000000000E+00 0. -1.
        -12    1    6    6    0    0  0.38086136657E+02  0.47353734433E+02  0.12745974938E+03  0.14120523249E+03  0.00000000000E+00 0.  1.
         -5    1    5    5    0  501 -0.59473073378E+02 -0.36324605255E+02  0.26102605405E+03  0.27020957477E+03  0.47000000000E+01 0.  1.
<mgrwt>
<rscale>  2 0.17696213E+03</rscale>
<asrwt>0</asrwt>
<pdfrwt beam="2">  1        2 0.61188198E-02 0.17696213E+03</pdfrwt>
<pdfrwt beam="1">  1       -2 0.12136526E+00 0.17696213E+03</pdfrwt>
<totfact> 0.64201772E+02</totfact>
</mgrwt>
</event>
<event>
12    1  0.5759937E-002  0.1703788E+03  0.7546771E-02  0.1177453E+00
          2   -1    0    0  503    0  0.00000000000E+00  0.00000000000E+00  0.50686741523E+03  0.50686741523E+03  0.00000000000E+00 0.  1.
         -2   -1    0    0    0  501 -0.00000000000E+00 -0.00000000000E+00 -0.58518828270E+02  0.58518828270E+02  0.00000000000E+00 0. -1.
          6    2    1    2  503    0 -0.22809388340E+02 -0.50541761080E+02  0.18873254177E+03  0.25705579079E+03  0.16547800290E+03 0.  0.
         24    2    3    3    0    0 -0.11109925928E+02 -0.33735532238E+02  0.20952561480E+03  0.22749621307E+03  0.81191299492E+02 0.  0.
         -6    2    1    2    0  501  0.22809388340E+02  0.50541761080E+02  0.25961604519E+03  0.30833045271E+03  0.15681976706E+03 0.  0.
        -24    2    5    5    0    0  0.18600570161E+01  0.41804547765E+02  0.41007326467E+02  0.88496253190E+02  0.66324248800E+02 0.  0.
          4    1    4    4  502    0  0.20138342780E+01  0.59832056810E+01  0.16944615263E+03  0.16956371345E+03  0.00000000000E+00 0. -1.
         -3    1    4    4    0  502 -0.13123760206E+02 -0.39718737919E+02  0.40079462174E+02  0.57932499618E+02  0.00000000000E+00 0.  1.
          5    1    3    3  503    0 -0.11699462412E+02 -0.16806228841E+02 -0.20793073031E+02  0.29559577715E+02  0.47000000000E+01 0. -1.
         13    1    6    6    0    0  0.98639288214E+01  0.43577916396E+02 -0.19897623878E+01  0.44724613397E+02  0.00000000000E+00 0. -1.
        -14    1    6    6    0    0 -0.80038718053E+01 -0.17733686309E+01  0.42997088855E+02  0.43771639793E+02  0.00000000000E+00 0.  1.
         -5    1    5    5    0  501  0.20949331324E+02  0.87372133151E+01  0.21860871872E+03  0.21983419952E+03  0.47000000000E+01 0.  1.
<mgrwt>
<rscale>  2 0.17037878E+03</rscale>
<asrwt>0</asrwt>
<pdfrwt beam="1">  1        2 0.77979600E-01 0.17037878E+03</pdfrwt>
<pdfrwt beam="2">  1       -2 0.90028970E-02 0.17037878E+03</pdfrwt>
<totfact> 0.46946848E+03</totfact>
</mgrwt>
</event>
<event>
12    1  0.5759937E-002  0.1823513E+03  0.7546771E-02  0.1165547E+00
         -2   -1    0    0    0  501 -0.00000000000E+00  0.00000000000E+00  0.58960468714E+02  0.58960468714E+02  0.00000000000E+00 0. -1.
          2   -1    0    0  503    0  0.00000000000E+00 -0.00000000000E+00 -0.57332202311E+03  0.57332202311E+03  0.00000000000E+00 0.  1.
          6    2    1    2  503    0 -0.38336380094E+01  0.56361465858E+02 -0.21772615462E+03  0.28442104621E+03  0.17406706037E+03 0.  0.
         24    2    3    3    0    0  0.98259715200E+01  0.43010478722E+02 -0.23823609275E+03  0.25600307035E+03  0.82672154579E+02 0.  0.
         -6    2    1    2    0  501  0.38336380094E+01 -0.56361465858E+02 -0.29663539977E+03  0.34786144562E+03  0.17269543518E+03 0.  0.
        -24    2    5    5    0    0  0.26985537886E+01 -0.32126296526E+02 -0.53228535292E+02  0.10320326871E+03  0.82330168120E+02 0.  0.
          2    1    4    4  502    0  0.47030486864E+01 -0.11814117732E+02 -0.15903026271E+03  0.15953782155E+03  0.00000000000E+00 0. -1.
         -1    1    4    4    0  502  0.51229228336E+01  0.54824596455E+02 -0.79205830035E+02  0.96465248801E+02  0.00000000000E+00 0.  1.
          5    1    3    3  503    0 -0.13659609529E+02  0.13350987136E+02  0.20509938127E+02  0.28417975860E+02  0.47000000000E+01 0. -1.
         13    1    6    6    0    0  0.21534982974E+02 -0.30557893797E+02 -0.69072082796E+02  0.78539754181E+02  0.00000000000E+00 0. -1.
        -14    1    6    6    0    0 -0.18836429185E+02 -0.15684027288E+01  0.15843547504E+02  0.24663514532E+02  0.00000000000E+00 0.  1.
         -5    1    5    5    0  501  0.11350842209E+01 -0.24235169333E+02 -0.24340686448E+03  0.24465817690E+03  0.47000000000E+01 0.  1.
<mgrwt>
<rscale>  2 0.18235128E+03</rscale>
<asrwt>0</asrwt>
<pdfrwt beam="2">  1        2 0.88203390E-01 0.18235128E+03</pdfrwt>
<pdfrwt beam="1">  1       -2 0.90708411E-02 0.18235128E+03</pdfrwt>
<totfact> 0.40513024E+03</totfact>
</mgrwt>
</event>
<event>
12    1  0.5759937E-002  0.1873149E+03  0.7546771E-02  0.1160906E+00
          2   -1    0    0  503    0  0.00000000000E+00  0.00000000000E+00  0.94571043978E+03  0.94571043978E+03  0.00000000000E+00 0.  1.
         -2   -1    0    0    0  501 -0.00000000000E+00 -0.00000000000E+00 -0.38130759615E+02  0.38130759615E+02  0.00000000000E+00 0. -1.
          6    2    1    2  503    0  0.99752692191E+01  0.92885924617E+02  0.50790715246E+03  0.53817767183E+03  0.15145372214E+03 0.  0.
         24    2    3    3    0    0 -0.57914041516E+01  0.11221897847E+03  0.48463907561E+03  0.50374152279E+03  0.79081278955E+02 0.  0.
         -6    2    1    2    0  501 -0.99752692191E+01 -0.92885924617E+02  0.39967252770E+03  0.44566352756E+03  0.17363913560E+03 0.  0.
        -24    2    5    5    0    0 -0.51480569277E+02 -0.43166586278E+00  0.19805096471E+03  0.21995614054E+03  0.80660298713E+02 0.  0.
          4    1    4    4  502    0 -0.21857400698E+02  0.17791480048E+02  0.40181538184E+02  0.49079921948E+02  0.00000000000E+00 0. -1.
         -3    1    4    4    0  502  0.16065996546E+02  0.94427498426E+02  0.44445753743E+03  0.45466160084E+03  0.00000000000E+00 0.  1.
          5    1    3    3  503    0  0.15766673371E+02 -0.19333053857E+02  0.23268076853E+02  0.34436149045E+02  0.47000000000E+01 0. -1.
         13    1    6    6    0    0  0.21119844573E+02  0.28230929199E+01  0.29361539068E+02  0.36278336027E+02  0.00000000000E+00 0. -1.
        -14    1    6    6    0    0 -0.72600413850E+02 -0.32547587827E+01  0.16868942564E+03  0.18367780451E+03  0.00000000000E+00 0.  1.
         -5    1    5    5    0  501  0.41505300058E+02 -0.92454258754E+02  0.20162156299E+03  0.22570738702E+03  0.47000000000E+01 0.  1.
<mgrwt>
<rscale>  2 0.18731487E+03</rscale>
<asrwt>0</asrwt>
<pdfrwt beam="1">  1        2 0.14549390E+00 0.18731487E+03</pdfrwt>
<pdfrwt beam="2">  1       -2 0.58662714E-02 0.18731487E+03</pdfrwt>
<totfact> 0.42982083E+03</totfact>
</mgrwt>
</event>
<event>
12    1  0.5759937E-002  0.1857321E+03  0.7546771E-02  0.1162368E+00
         -2   -1    0    0    0  501 -0.00000000000E+00  0.00000000000E+00  0.19294599829E+02  0.19294599829E+02  0.00000000000E+00 0. -1.
          2   -1    0    0  503    0  0.00000000000E+00 -0.00000000000E+00 -0.18035000424E+04  0.18035000424E+04  0.00000000000E+00 0.  1.
          6    2    1    2  503    0  0.47123976236E+02  0.50393928397E+02 -0.81000253972E+03  0.83114967104E+03  0.17304751994E+03 0.  0.
         24    2    3    3    0    0 -0.10014667716E+02  0.32727715182E+02 -0.70402661082E+03  0.70937156452E+03  0.79894623660E+02 0.  0.
         -6    2    1    2    0  501 -0.47123976236E+02 -0.50393928397E+02 -0.97420290285E+03  0.99164497119E+03  0.17183781833E+03 0.  0.
        -24    2    5    5    0    0  0.28287395759E+02 -0.42484210516E+02 -0.34067183626E+03  0.35357511530E+03  0.79705565900E+02 0.  0.
          4    1    4    4  502    0 -0.46093040858E+01  0.58286104218E+02 -0.40386634347E+03  0.40807663375E+03  0.00000000000E+00 0. -1.
         -3    1    4    4    0  502 -0.54053636298E+01 -0.25558389037E+02 -0.30016026736E+03  0.30129493077E+03  0.00000000000E+00 0.  1.
          5    1    3    3  503    0  0.57138643952E+02  0.17666213215E+02 -0.10597592890E+03  0.12177810652E+03  0.47000000000E+01 0. -1.
         11    1    6    6    0    0 -0.26176790236E+02 -0.16728121471E+01 -0.10913643219E+03  0.11224430266E+03  0.00000000000E+00 0. -1.
        -12    1    6    6    0    0  0.54464185995E+02 -0.40811398369E+02 -0.23153540407E+03  0.24133081264E+03  0.00000000000E+00 0.  1.
         -5    1    5    5    0  501 -0.75411371995E+02 -0.79097178807E+01 -0.63353106659E+03  0.63806985589E+03  0.47000000000E+01 0.  1.
<mgrwt>
<rscale>  2 0.18573214E+03</rscale>
<asrwt>0</asrwt>
<pdfrwt beam="2">  1        2 0.27746166E+00 0.18573214E+03</pdfrwt>
<pdfrwt beam="1">  1       -2 0.29683988E-02 0.18573214E+03</pdfrwt>
<totfact> 0.40444567E+03</totfact>
</mgrwt>
</event>
<event>
12    1  0.5759937E-002  0.2574992E+03  0.7546771E-02  0.1108655E+00
         -1   -1    0    0    0  501 -0.00000000000E+00  0.00000000000E+00  0.70858238727E+02  0.70858238727E+02  0.00000000000E+00 0. -1.
          1   -1    0    0  503    0  0.00000000000E+00 -0.00000000000E+00 -0.11180251827E+04  0.11180251827E+04  0.00000000000E+00 0.  1.
          6    2    1    2  503    0 -0.18907788021E+03 -0.23280766030E+02 -0.76321484492E+03  0.80541048393E+03  0.17290664902E+03 0.  0.
         24    2    3    3    0    0 -0.18825079907E+03 -0.37467559084E+02 -0.49842270560E+03  0.54019563479E+03  0.80894678806E+02 0.  0.
         -6    2    1    2    0  501  0.18907788021E+03  0.23280766030E+02 -0.28395209902E+03  0.38347293745E+03  0.17358070276E+03 0.  0.
        -24    2    5    5    0    0  0.93399666247E+02  0.73559879908E+02 -0.12075773620E+03  0.18767508257E+03  0.80653283749E+02 0.  0.
          4    1    4    4  502    0 -0.17120445693E+03 -0.24820177576E+02 -0.35168038816E+03  0.39192614445E+03  0.00000000000E+00 0. -1.
         -3    1    4    4    0  502 -0.17046342141E+02 -0.12647381508E+02 -0.14674231744E+03  0.14826949034E+03  0.00000000000E+00 0.  1.
          5    1    3    3  503    0 -0.82708114723E+00  0.14186793054E+02 -0.26479213932E+03  0.26521484915E+03  0.47000000000E+01 0. -1.
         11    1    6    6    0    0  0.95544457959E+02  0.74882923253E+02 -0.13013543868E+03  0.17796468201E+03  0.00000000000E+00 0. -1.
        -12    1    6    6    0    0 -0.21447917119E+01 -0.13230433449E+01  0.93777024850E+01  0.97104005622E+01  0.00000000000E+00 0.  1.
         -5    1    5    5    0  501  0.95678213968E+02 -0.50279113878E+02 -0.16319436282E+03  0.19579785488E+03  0.47000000000E+01 0.  1.
<mgrwt>
<rscale>  2 0.25749917E+03</rscale>
<asrwt>0</asrwt>
<pdfrwt beam="2">  1        1 0.17200386E+00 0.25749917E+03</pdfrwt>
<pdfrwt beam="1">  1       -1 0.10901268E-01 0.25749917E+03</pdfrwt>
<totfact> 0.70004258E+02</totfact>
</mgrwt>
</event>
<event>
12    1  0.5759937E-002  0.2133469E+03  0.7546771E-02  0.1138943E+00
         -2   -1    0    0    0  501 -0.00000000000E+00  0.00000000000E+00  0.44147261334E+03  0.44147261334E+03  0.00000000000E+00 0. -1.
          2   -1    0    0  503    0  0.00000000000E+00 -0.00000000000E+00 -0.11143763290E+03  0.11143763290E+03  0.00000000000E+00 0.  1.
          6    2    1    2  503    0 -0.67514995406E+02  0.10291443248E+03  0.88697166189E+02  0.23011859576E+03  0.17302521725E+03 0.  0.
         24    2    3    3    0    0  0.90849314884E+00  0.11631637224E+03  0.43354398156E+02  0.14681528017E+03  0.78388767308E+02 0.  0.
         -6    2    1    2    0  501  0.67514995406E+02 -0.10291443248E+03  0.24133781425E+03  0.32279165048E+03  0.17550172083E+03 0.  0.
        -24    2    5    5    0    0 -0.13772394505E+02 -0.22893246230E+02  0.16411655509E+03  0.18496479216E+03  0.81018214689E+02 0.  0.
          2    1    4    4  502    0  0.32386167752E+02  0.30696091742E+02 -0.25473150193E+01  0.44694549150E+02  0.00000000000E+00 0. -1.
         -1    1    4    4    0  502 -0.31477674603E+02  0.85620280501E+02  0.45901713175E+02  0.10212073102E+03  0.00000000000E+00 0.  1.
          5    1    3    3  503    0 -0.68423488554E+02 -0.13401939761E+02  0.45342768034E+02  0.83303315590E+02  0.47000000000E+01 0. -1.
         11    1    6    6    0    0  0.30235367659E+02  0.53154193562E+01  0.41071177068E+02  0.51276434414E+02  0.00000000000E+00 0. -1.
        -12    1    6    6    0    0 -0.44007762164E+02 -0.28208665586E+02  0.12304537802E+03  0.13368835774E+03  0.00000000000E+00 0.  1.
         -5    1    5    5    0  501  0.81287389911E+02 -0.80021186252E+02  0.77221259160E+02  0.13782685832E+03  0.47000000000E+01 0.  1.
<mgrwt>
<rscale>  2 0.21334690E+03</rscale>
<asrwt>0</asrwt>
<pdfrwt beam="2">  1        2 0.17144252E-01 0.21334690E+03</pdfrwt>
<pdfrwt beam="1">  1       -2 0.67918862E-01 0.21334690E+03</pdfrwt>
<totfact> 0.67461752E+02</totfact>
</mgrwt>
</event>
<event>
12    1  0.5759937E-002  0.3937909E+03  0.7546771E-02  0.1045951E+00
          2   -1    0    0  503    0  0.00000000000E+00  0.00000000000E+00  0.26554535244E+04  0.26554535244E+04  0.00000000000E+00 0. -1.
         -2   -1    0    0    0  501 -0.00000000000E+00 -0.00000000000E+00 -0.79474310428E+02  0.79474310428E+02  0.00000000000E+00 0.  1.
          6    2    1    2  503    0 -0.43910014944E+02 -0.35080774197E+03  0.58358456604E+03  0.70397509166E+03  0.17325075102E+03 0.  0.
         24    2    3    3    0    0  0.40824277713E+02 -0.16855845902E+03  0.24493527448E+03  0.31014754798E+03  0.78228109265E+02 0.  0.
         -6    2    1    2    0  501  0.43910014944E+02  0.35080774197E+03  0.19923946479E+04  0.20309527431E+04  0.17360429313E+03 0.  0.
        -24    2    5    5    0    0  0.85659279246E+02  0.32049713735E+03  0.16923283365E+04  0.17264472176E+04  0.81171852025E+02 0.  0.
          4    1    4    4  502    0  0.52075433895E+02 -0.61611190308E+02  0.82884876084E+02  0.11566197417E+03  0.00000000000E+00 0. -1.
         -3    1    4    4    0  502 -0.11251156183E+02 -0.10694726871E+03  0.16205039839E+03  0.19448557381E+03  0.00000000000E+00 0.  1.
          5    1    3    3  503    0 -0.84734292656E+02 -0.18224928296E+03  0.33864929156E+03  0.39382754368E+03  0.47000000000E+01 0. -1.
         13    1    6    6    0    0  0.84878761694E+02  0.18240581748E+03  0.10987204085E+04  0.11169882822E+04  0.00000000000E+00 0. -1.
        -14    1    6    6    0    0  0.78051755195E+00  0.13809131987E+03  0.59360792796E+03  0.60945893543E+03  0.00000000000E+00 0.  1.
         -5    1    5    5    0  501 -0.41749264303E+02  0.30310604619E+02  0.30006631139E+03  0.30450552549E+03  0.47000000000E+01 0.  1.
<mgrwt>
<rscale>  2 0.39379092E+03</rscale>
<asrwt>0</asrwt>
<pdfrwt beam="1">  1        2 0.40853124E+00 0.39379092E+03</pdfrwt>
<pdfrwt beam="2">  1       -2 0.12226819E-01 0.39379092E+03</pdfrwt>
<totfact> 0.15333233E+02</totfact>
</mgrwt>
</event>
<event>
12    1  0.5759937E-002  0.1759829E+03  0.7546771E-02  0.1171748E+00
          2   -1    0    0  503    0  0.00000000000E+00  0.00000000000E+00  0.20636486769E+04  0.20636486769E+04  0.00000000000E+00 0. -1.
         -2   -1    0    0    0  501 -0.00000000000E+00 -0.00000000000E+00 -0.15938976430E+02  0.15938976430E+02  0.00000000000E+00 0.  1.
          6    2    1    2  503    0  0.16843949929E+02 -0.22114440590E+02  0.76791410957E+03  0.78763389761E+03  0.17292284364E+03 0.  0.
         24    2    3    3    0    0  0.21659696191E+02  0.32007683435E+02  0.66683964549E+03  0.67278385185E+03  0.80432358399E+02 0.  0.
         -6    2    1    2    0  501 -0.16843949929E+02  0.22114440590E+02  0.12797955909E+04  0.12919537557E+04  0.17462813436E+03 0.  0.
        -24    2    5    5    0    0 -0.28213159200E+02 -0.53857830002E+02  0.70515930973E+03  0.71218656930E+03  0.79141703199E+02 0.  0.
          2    1    4    4  502    0  0.25370849198E+02 -0.22557018017E+02  0.21867296540E+03  0.22129248710E+03  0.00000000000E+00 0. -1.
         -1    1    4    4    0  502 -0.37111530069E+01  0.54564701452E+02  0.44816668008E+03  0.45149136474E+03  0.00000000000E+00 0.  1.
          5    1    3    3  503    0 -0.48157462619E+01 -0.54122124025E+02  0.10107446408E+03  0.11485004576E+03  0.47000000000E+01 0. -1.
         13    1    6    6    0    0 -0.36477605660E+01 -0.73887917471E+01  0.51018096631E+03  0.51024750737E+03  0.00000000000E+00 0. -1.
        -14    1    6    6    0    0 -0.24565398634E+02 -0.46469038255E+02  0.19497834343E+03  0.20193906193E+03  0.00000000000E+00 0.  1.
         -5    1    5    5    0  501  0.11369209271E+02  0.75972270592E+02  0.57463628115E+03  0.57976718641E+03  0.47000000000E+01 0.  1.
<mgrwt>
<rscale>  2 0.17598295E+03</rscale>
<asrwt>0</asrwt>
<pdfrwt beam="1">  1        2 0.31748420E+00 0.17598295E+03</pdfrwt>
<pdfrwt beam="2">  1       -2 0.24521518E-02 0.17598295E+03</pdfrwt>
<totfact> 0.39308597E+03</totfact>
</mgrwt>
</event>
<event>
12    1  0.5759937E-002  0.1733839E+03  0.7546771E-02  0.1174364E+00
          1   -1    0    0  503    0  0.00000000000E+00  0.00000000000E+00  0.46689726875E+03  0.46689726875E+03  0.00000000000E+00 0. -1.
         -1   -1    0    0    0  501 -0.00000000000E+00 -0.00000000000E+00 -0.95386946088E+02  0.95386946088E+02  0.00000000000E+00 0.  1.
          6    2    1    2  503    0  0.20295402825E+02 -0.41920252182E+00  0.34631712313E+03  0.38747429505E+03  0.17259403363E+03 0.  0.
         24    2    3    3    0    0 -0.41109469775E+02  0.21951461750E+02  0.27792452343E+03  0.29276081823E+03  0.79341040989E+02 0.  0.
         -6    2    1    2    0  501 -0.20295402825E+02  0.41920252182E+00  0.25193199531E+02  0.17480991978E+03  0.17178978912E+03 0.  0.
        -24    2    5    5    0    0  0.54184037611E+02  0.96440173375E+01  0.11163137804E+02  0.98316672449E+02  0.80700901070E+02 0.  0.
          2    1    4    4  502    0 -0.23575692203E+02  0.35533584239E+02  0.26202319707E+03  0.26547053447E+03  0.00000000000E+00 0. -1.
         -1    1    4    4    0  502 -0.17533777572E+02 -0.13582122489E+02  0.15901326367E+02  0.27290283755E+02  0.00000000000E+00 0.  1.
          5    1    3    3  503    0  0.61404872600E+02 -0.22370664272E+02  0.68392599696E+02  0.94713476824E+02  0.47000000000E+01 0. -1.
         13    1    6    6    0    0 -0.43022708709E+01  0.16063020804E+02  0.31865264190E+02  0.35943361472E+02  0.00000000000E+00 0. -1.
        -14    1    6    6    0    0  0.58486308482E+02 -0.64190034669E+01 -0.20702126385E+02  0.62373310977E+02  0.00000000000E+00 0.  1.
         -5    1    5    5    0  501 -0.74479440436E+02 -0.92248148157E+01  0.14030061726E+02  0.76493247336E+02  0.47000000000E+01 0.  1.
<mgrwt>
<rscale>  2 0.17338390E+03</rscale>
<asrwt>0</asrwt>
<pdfrwt beam="1">  1        1 0.71830347E-01 0.17338390E+03</pdfrwt>
<pdfrwt beam="2">  1       -1 0.14674915E-01 0.17338390E+03</pdfrwt>
<totfact> 0.16327290E+03</totfact>
</mgrwt>
</event>
<event>
12    1  0.5759937E-002  0.1865122E+03  0.7546771E-02  0.1161645E+00
          2   -1    0    0  503    0  0.00000000000E+00  0.00000000000E+00  0.26527532846E+04  0.26527532846E+04  0.00000000000E+00 0. -1.
         -2   -1    0    0    0  501 -0.00000000000E+00 -0.00000000000E+00 -0.20869901082E+02  0.20869901082E+02  0.00000000000E+00 0.  1.
          6    2    1    2  503    0 -0.26395280234E+02 -0.68411043874E+02  0.49593470820E+03  0.52944663790E+03  0.17025194812E+03 0.  0.
         24    2    3    3    0    0 -0.76237906933E+02 -0.14489850598E+02  0.31777467516E+03  0.33669065253E+03  0.79735043152E+02 0.  0.
         -6    2    1    2    0  501  0.26395280234E+02  0.68411043874E+02  0.21359486753E+04  0.21441765478E+04  0.17274125951E+03 0.  0.
        -24    2    5    5    0    0 -0.26794790060E+01  0.85507629699E+02  0.87931296158E+03  0.88707947838E+03  0.79999888821E+02 0.  0.
          2    1    4    4  502    0 -0.56141673961E+02  0.28285105008E+02  0.20473928182E+03  0.21417308011E+03  0.00000000000E+00 0. -1.
         -1    1    4    4    0  502 -0.20096232972E+02 -0.42774955606E+02  0.11303539334E+03  0.12251757243E+03  0.00000000000E+00 0.  1.
          5    1    3    3  503    0  0.49842626699E+02 -0.53921193275E+02  0.17816003304E+03  0.19275598537E+03  0.47000000000E+01 0. -1.
         13    1    6    6    0    0 -0.17132653790E+02  0.49863761984E+02  0.75762960653E+03  0.75946200910E+03  0.00000000000E+00 0. -1.
        -14    1    6    6    0    0  0.14453174784E+02  0.35643867715E+02  0.12168335506E+03  0.12761746928E+03  0.00000000000E+00 0.  1.
         -5    1    5    5    0  501  0.29074759240E+02 -0.17096585825E+02  0.12566357138E+04  0.12570970694E+04  0.47000000000E+01 0.  1.
<mgrwt>
<rscale>  2 0.18651219E+03</rscale>
<asrwt>0</asrwt>
<pdfrwt beam="1">  1        2 0.40811562E+00 0.18651219E+03</pdfrwt>
<pdfrwt beam="2">  1       -2 0.32107561E-02 0.18651219E+03</pdfrwt>
<totfact> 0.12803130E+03</totfact>
</mgrwt>
</event>
<event>
12    1  0.5759937E-002  0.2424118E+03  0.7546771E-02  0.1118196E+00
          3   -1    0    0  503    0  0.00000000000E+00  0.00000000000E+00  0.33400887705E+03  0.33400887705E+03  0.00000000000E+00 0. -1.
         -3   -1    0    0    0  501 -0.00000000000E+00 -0.00000000000E+00 -0.18202184139E+03  0.18202184139E+03  0.00000000000E+00 0.  1.
          6    2    1    2  503    0 -0.16842526344E+03  0.33908695906E+02  0.12326231322E+03  0.27219563207E+03  0.17140593700E+03 0.  0.
         24    2    3    3    0    0 -0.93882166974E+02  0.42378402945E+02  0.25378406635E+01  0.12998136612E+03  0.79239665513E+02 0.  0.
         -6    2    1    2    0  501  0.16842526344E+03 -0.33908695906E+02  0.28724722449E+02  0.24383508637E+03  0.17062699271E+03 0.  0.
        -24    2    5    5    0    0  0.13587468800E+03 -0.78140873466E+02  0.51889572164E+02  0.18404607605E+03  0.81317301123E+02 0.  0.
          4    1    4    4  502    0 -0.70564180583E+02  0.44768254739E+02  0.34446511750E+02  0.90388397406E+02  0.00000000000E+00 0. -1.
         -3    1    4    4    0  502 -0.23317986391E+02 -0.23898517941E+01 -0.31908671086E+02  0.39592968712E+02  0.00000000000E+00 0.  1.
          5    1    3    3  503    0 -0.74543096463E+02 -0.84697070395E+01  0.12072447255E+03  0.14221426595E+03  0.47000000000E+01 0. -1.
         11    1    6    6    0    0  0.18957048899E+02 -0.37786034169E+02 -0.13188398600E+02  0.44284172554E+02  0.00000000000E+00 0. -1.
        -12    1    6    6    0    0  0.11691763911E+03 -0.40354839298E+02  0.65077970764E+02  0.13976190349E+03  0.00000000000E+00 0.  1.
         -5    1    5    5    0  501  0.32550575433E+02  0.44232177561E+02 -0.23164849715E+02  0.59789010320E+02  0.47000000000E+01 0.  1.
<mgrwt>
<rscale>  2 0.24241184E+03</rscale>
<asrwt>0</asrwt>
<pdfrwt beam="1">  1        3 0.51385981E-01 0.24241184E+03</pdfrwt>
<pdfrwt beam="2">  1       -3 0.28003360E-01 0.24241184E+03</pdfrwt>
<totfact> 0.11463199E+02</totfact>
</mgrwt>
</event>
<event>
12    1  0.5759937E-002  0.2079177E+03  0.7546771E-02  0.1143226E+00
         -1   -1    0    0    0  501 -0.00000000000E+00  0.00000000000E+00  0.26151884599E+03  0.26151884599E+03  0.00000000000E+00 0. -1.
          1   -1    0    0  503    0  0.00000000000E+00 -0.00000000000E+00 -0.44239034156E+03  0.44239034156E+03  0.00000000000E+00 0.  1.
          6    2    1    2  503    0 -0.81750673692E+02  0.81746877418E+02 -0.36882800286E+03  0.42294948162E+03  0.17171617191E+03 0.  0.
         24    2    3    3    0    0 -0.53071050778E+02  0.36011928163E+02 -0.35167268028E+03  0.36611110158E+03  0.79058644305E+02 0.  0.
         -6    2    1    2    0  501  0.81750673692E+02 -0.81746877418E+02  0.18795650729E+03  0.28095970593E+03  0.17391084815E+03 0.  0.
        -24    2    5    5    0    0  0.89906909377E+01  0.32566383687E+01  0.13270843979E+03  0.15608356029E+03  0.81603367477E+02 0.  0.
          4    1    4    4  502    0 -0.45766209523E+02 -0.12684176658E+02 -0.11592593854E+03  0.12527672369E+03  0.00000000000E+00 0. -1.
         -3    1    4    4    0  502 -0.73048412549E+01  0.48696104821E+02 -0.23574674174E+03  0.24083437789E+03  0.00000000000E+00 0.  1.
          5    1    3    3  503    0 -0.28679622914E+02  0.45734949255E+02 -0.17155322579E+02  0.56838380049E+02  0.47000000000E+01 0. -1.
         11    1    6    6    0    0 -0.13912888327E+01 -0.28048064796E+02  0.11292757358E+02  0.30268068855E+02  0.00000000000E+00 0. -1.
        -12    1    6    6    0    0  0.10381979770E+02  0.31304703165E+02  0.12141568243E+03  0.12581549143E+03  0.00000000000E+00 0.  1.
         -5    1    5    5    0  501  0.72759982754E+02 -0.85003515787E+02  0.55248067503E+02  0.12487614564E+03  0.47000000000E+01 0.  1.
<mgrwt>
<rscale>  2 0.20791771E+03</rscale>
<asrwt>0</asrwt>
<pdfrwt beam="2">  1        1 0.68060051E-01 0.20791771E+03</pdfrwt>
<pdfrwt beam="1">  1       -1 0.40233669E-01 0.20791771E+03</pdfrwt>
<totfact> 0.32877319E+02</totfact>
</mgrwt>
</event>
<event>
12    1  0.5759937E-002  0.1741005E+03  0.7546771E-02  0.1173638E+00
          2   -1    0    0  503    0  0.00000000000E+00  0.00000000000E+00  0.16267232542E+03  0.16267232542E+03  0.00000000000E+00 0. -1.
         -2   -1    0    0    0  501 -0.00000000000E+00 -0.00000000000E+00 -0.19362856622E+03  0.19362856622E+03  0.00000000000E+00 0.  1.
          6    2    1    2  503    0  0.15920162861E+01  0.15807795509E+02 -0.49997703010E+02  0.18048966692E+03  0.17269721667E+03 0.  0.
         24    2    3    3    0    0 -0.49393543807E+02 -0.28350382447E+02 -0.56065197584E+02  0.11260464274E+03  0.79328638154E+02 0.  0.
         -6    2    1    2    0  501 -0.15920162861E+01 -0.15807795509E+02  0.19041462213E+02  0.17581122472E+03  0.17405340714E+03 0.  0.
        -24    2    5    5    0    0  0.31771124740E+02  0.30216510980E+02  0.58611471433E+02  0.10639068311E+03  0.77209008324E+02 0.  0.
          4    1    4    4  502    0 -0.22712382976E+01  0.70339300282E+01 -0.53089004457E+02  0.53601092240E+02  0.00000000000E+00 0. -1.
         -3    1    4    4    0  502 -0.47122305510E+02 -0.35384312475E+02 -0.29761931263E+01  0.59003550498E+02  0.00000000000E+00 0.  1.
          5    1    3    3  503    0  0.50985560093E+02  0.44158177956E+02  0.60674945731E+01  0.67885024187E+02  0.47000000000E+01 0. -1.
         13    1    6    6    0    0 -0.15026723934E+02  0.35033326592E+02  0.41448536886E+02  0.56312677207E+02  0.00000000000E+00 0. -1.
        -14    1    6    6    0    0  0.46797848674E+02 -0.48168156114E+01  0.17162934547E+02  0.50078005905E+02  0.00000000000E+00 0.  1.
         -5    1    5    5    0  501 -0.33363141026E+02 -0.46024306489E+02 -0.39570009220E+02  0.69420541604E+02  0.47000000000E+01 0.  1.
<mgrwt>
<rscale>  2 0.17410045E+03</rscale>
<asrwt>0</asrwt>
<pdfrwt beam="1">  1        2 0.25026512E-01 0.17410045E+03</pdfrwt>
<pdfrwt beam="2">  1       -2 0.29789010E-01 0.17410045E+03</pdfrwt>
<totfact> 0.21837861E+03</totfact>
</mgrwt>
</event>
<event>
12    1  0.5759937E-002  0.1782446E+03  0.7546771E-02  0.1169513E+00
         -1   -1    0    0    0  501 -0.00000000000E+00  0.00000000000E+00  0.48699008042E+02  0.48699008042E+02  0.00000000000E+00 0.  1.
          1   -1    0    0  503    0  0.00000000000E+00 -0.00000000000E+00 -0.69914249253E+03  0.69914249253E+03  0.00000000000E+00 0. -1.
          6    2    1    2  503    0  0.15861810884E+02  0.40151943851E+02 -0.22798717370E+03  0.28919546177E+03  0.17260384728E+03 0.  0.
         24    2    3    3    0    0 -0.46342371924E+02  0.15010348708E+02 -0.18128809439E+03  0.20731534102E+03  0.87984950146E+02 0.  0.
         -6    2    1    2    0  501 -0.15861810884E+02 -0.40151943851E+02 -0.42245631079E+03  0.45864603880E+03  0.17327169055E+03 0.  0.
        -24    2    5    5    0    0 -0.36612385154E+02 -0.52183122580E+02 -0.42198095423E+03  0.43419912575E+03  0.79983811085E+02 0.  0.
          4    1    4    4  502    0 -0.28348123849E+02 -0.31403183946E+02 -0.12603200792E+03  0.13294300699E+03  0.00000000000E+00 0. -1.
         -3    1    4    4    0  502 -0.17994248075E+02  0.46413532654E+02 -0.55256086468E+02  0.74372334029E+02  0.00000000000E+00 0.  1.
          5    1    3    3  503    0  0.62204182808E+02  0.25141595142E+02 -0.46699079311E+02  0.81880120748E+02  0.47000000000E+01 0. -1.
         13    1    6    6    0    0 -0.12858076709E+02  0.16424930767E+02 -0.18950453590E+03  0.19064909550E+03  0.00000000000E+00 0. -1.
        -14    1    6    6    0    0 -0.23754308446E+02 -0.68608053347E+02 -0.23247641833E+03  0.24355003025E+03  0.00000000000E+00 0.  1.
         -5    1    5    5    0  501  0.20750574270E+02  0.12031178730E+02 -0.47535655711E+00  0.24446913057E+02  0.47000000000E+01 0.  1.
<mgrwt>
<rscale>  2 0.17824463E+03</rscale>
<asrwt>0</asrwt>
<pdfrwt beam="2">  1        1 0.10756038E+00 0.17824463E+03</pdfrwt>
<pdfrwt beam="1">  1       -1 0.74921552E-02 0.17824463E+03</pdfrwt>
<totfact> 0.26582237E+03</totfact>
</mgrwt>
</event>
<event>
12    1  0.5759937E-002  0.2452331E+03  0.7546771E-02  0.1116355E+00
         -1   -1    0    0    0  501 -0.00000000000E+00  0.00000000000E+00  0.10467325514E+03  0.10467325514E+03  0.00000000000E+00 0.  1.
          1   -1    0    0  503    0  0.00000000000E+00 -0.00000000000E+00 -0.71119540781E+03  0.71119540781E+03  0.00000000000E+00 0. -1.
          6    2    1    2  503    0  0.15824840629E+03 -0.70540148976E+02 -0.12512555096E+03  0.27591417193E+03  0.17451004572E+03 0.  0.
         24    2    3    3    0    0  0.11243579174E+03 -0.11197132240E+02 -0.77513706368E+01  0.13656146297E+03  0.76300500575E+02 0.  0.
         -6    2    1    2    0  501 -0.15824840629E+03  0.70540148976E+02 -0.48139660170E+03  0.53995449102E+03  0.17259691055E+03 0.  0.
        -24    2    5    5    0    0 -0.53022536899E+02 -0.97965204439E+01 -0.26667119484E+03  0.28765396706E+03  0.93401913101E+02 0.  0.
          4    1    4    4  502    0  0.70989684637E+02  0.17204687988E+02 -0.33205222567E+02  0.80237917591E+02  0.00000000000E+00 0. -1.
         -3    1    4    4    0  502  0.41446107101E+02 -0.28401820228E+02  0.25453851931E+02  0.56323545380E+02  0.00000000000E+00 0.  1.
          5    1    3    3  503    0  0.45812614553E+02 -0.59343016735E+02 -0.11737418033E+03  0.13935270896E+03  0.47000000000E+01 0. -1.
         13    1    6    6    0    0 -0.61260938106E+02 -0.40373691845E+02 -0.21364020014E+03  0.22588730077E+03  0.00000000000E+00 0. -1.
        -14    1    6    6    0    0  0.82384012069E+01  0.30577171401E+02 -0.53030994703E+02  0.61766666289E+02  0.00000000000E+00 0.  1.
         -5    1    5    5    0  501 -0.10522586939E+03  0.80336669419E+02 -0.21472540686E+03  0.25230052396E+03  0.47000000000E+01 0.  1.
<mgrwt>
<rscale>  2 0.24523311E+03</rscale>
<asrwt>0</asrwt>
<pdfrwt beam="2">  1        1 0.10941468E+00 0.24523311E+03</pdfrwt>
<pdfrwt beam="1">  1       -1 0.16103577E-01 0.24523311E+03</pdfrwt>
<totfact> 0.79262402E+02</totfact>
</mgrwt>
</event>
<event>
12    1  0.5759937E-002  0.1934006E+03  0.7546771E-02  0.1155429E+00
          2   -1    0    0  503    0  0.00000000000E+00  0.00000000000E+00  0.93328103239E+03  0.93328103239E+03  0.00000000000E+00 0. -1.
         -2   -1    0    0    0  501 -0.00000000000E+00 -0.00000000000E+00 -0.43531410115E+02  0.43531410115E+02  0.00000000000E+00 0.  1.
          6    2    1    2  503    0 -0.20259468560E+02  0.84321064975E+02  0.58287759392E+03  0.61419018247E+03  0.17309766804E+03 0.  0.
         24    2    3    3    0    0 -0.77252587038E+02  0.35431961896E+02  0.31036771222E+03  0.33148523809E+03  0.79567330939E+02 0.  0.
         -6    2    1    2    0  501  0.20259468560E+02 -0.84321064975E+02  0.30687202835E+03  0.36262226003E+03  0.17263827392E+03 0.  0.
        -24    2    5    5    0    0  0.19349148211E+02 -0.12704017372E+03  0.26301004270E+03  0.30120797244E+03  0.70981440008E+02 0.  0.
          2    1    4    4  502    0 -0.52604050533E+02  0.11569110332E+02  0.28162393659E+03  0.28672821993E+03  0.00000000000E+00 0. -1.
         -1    1    4    4    0  502 -0.24648536505E+02  0.23862851563E+02  0.28743775636E+02  0.44757018158E+02  0.00000000000E+00 0.  1.
          5    1    3    3  503    0  0.56993118478E+02  0.48889103080E+02  0.27250988170E+03  0.28270494438E+03  0.47000000000E+01 0. -1.
         11    1    6    6    0    0 -0.11331039922E+02 -0.76855781008E+02  0.20217657404E+03  0.21658848222E+03  0.00000000000E+00 0. -1.
        -12    1    6    6    0    0  0.30680188133E+02 -0.50184392713E+02  0.60833468656E+02  0.84619490217E+02  0.00000000000E+00 0.  1.
         -5    1    5    5    0  501  0.91032034864E+00  0.42719108746E+02  0.43861985654E+02  0.61414287594E+02  0.47000000000E+01 0.  1.
<mgrwt>
<rscale>  2 0.19340060E+03</rscale>
<asrwt>0</asrwt>
<pdfrwt beam="1">  1        2 0.14358168E+00 0.19340060E+03</pdfrwt>
<pdfrwt beam="2">  1       -2 0.66971407E-02 0.19340060E+03</pdfrwt>
<totfact> 0.35749423E+03</totfact>
</mgrwt>
</event>
<event>
12    1  0.5759937E-002  0.2013028E+03  0.7546771E-02  0.1148644E+00
          1   -1    0    0  503    0  0.00000000000E+00  0.00000000000E+00  0.67974927304E+02  0.67974927304E+02  0.00000000000E+00 0.  1.
         -1   -1    0    0    0  501 -0.00000000000E+00 -0.00000000000E+00 -0.59691487384E+03  0.59691487384E+03  0.00000000000E+00 0. -1.
          6    2    1    2  503    0  0.78824279998E+02 -0.59948530511E+02 -0.25009502265E+03  0.31959534658E+03  0.17258786682E+03 0.  0.
         24    2    3    3    0    0  0.14089965799E+02  0.28786175018E+02 -0.13155508517E+03  0.15792226231E+03  0.81274408584E+02 0.  0.
         -6    2    1    2    0  501 -0.78824279998E+02  0.59948530511E+02 -0.27884492389E+03  0.34529445456E+03  0.17795132859E+03 0.  0.
        -24    2    5    5    0    0 -0.17119208128E+02  0.81055574159E+01 -0.24286383042E+03  0.25690928137E+03  0.81613548979E+02 0.  0.
          4    1    4    4  502    0  0.47731533648E+02  0.13800770242E+02 -0.86235636288E+02  0.99525602383E+02  0.00000000000E+00 0. -1.
         -3    1    4    4    0  502 -0.33641567849E+02  0.14985404777E+02 -0.45319448880E+02  0.58396659925E+02  0.00000000000E+00 0.  1.
          5    1    3    3  503    0  0.64734314199E+02 -0.88734705529E+02 -0.11853993748E+03  0.16167308427E+03  0.47000000000E+01 0. -1.
         13    1    6    6    0    0  0.15051678600E+02 -0.25898988319E+02 -0.48640905921E+02  0.57124848826E+02  0.00000000000E+00 0. -1.
        -14    1    6    6    0    0 -0.32170886728E+02  0.34004545735E+02 -0.19422292450E+03  0.19978443254E+03  0.00000000000E+00 0.  1.
         -5    1    5    5    0  501 -0.61705071869E+02  0.51842973095E+02 -0.35981093462E+02  0.88385173194E+02  0.47000000000E+01 0.  1.
<mgrwt>
<rscale>  2 0.20130279E+03</rscale>
<asrwt>0</asrwt>
<pdfrwt beam="1">  1        1 0.10457681E-01 0.20130279E+03</pdfrwt>
<pdfrwt beam="2">  1       -1 0.91833056E-01 0.20130279E+03</pdfrwt>
<totfact> 0.73239079E+02</totfact>
</mgrwt>
</event>
<event>
12    1  0.5759937E-002  0.2117181E+03  0.7546771E-02  0.1140213E+00
         -1   -1    0    0    0  501 -0.00000000000E+00  0.00000000000E+00  0.19993813036E+03  0.19993813036E+03  0.00000000000E+00 0. -1.
          1   -1    0    0  503    0  0.00000000000E+00 -0.00000000000E+00 -0.23839034305E+03  0.23839034305E+03  0.00000000000E+00 0.  1.
          6    2    1    2  503    0 -0.29595892393E+02 -0.11843736788E+03 -0.72731852715E+02  0.22408438081E+03  0.17326442326E+03 0.  0.
         24    2    3    3    0    0 -0.23727896341E+02 -0.54456412762E+02 -0.11036192061E+03  0.14947802716E+03  0.81458045197E+02 0.  0.
         -6    2    1    2    0  501  0.29595892393E+02  0.11843736788E+03  0.34279640019E+02  0.21424409261E+03  0.17269079460E+03 0.  0.
        -24    2    5    5    0    0  0.81006189003E+02  0.69537239273E+02  0.26817240844E+02  0.14274571097E+03  0.90883129852E+02 0.  0.
          2    1    4    4  502    0  0.15708807091E+02 -0.31898136705E+01 -0.73090734309E+02  0.74827782095E+02  0.00000000000E+00 0. -1.
         -1    1    4    4    0  502 -0.39436703432E+02 -0.51266599091E+02 -0.37271186301E+02  0.74650245065E+02  0.00000000000E+00 0.  1.
          5    1    3    3  503    0 -0.58679960515E+01 -0.63980955114E+02  0.37630067896E+02  0.74606353649E+02  0.47000000000E+01 0. -1.
         11    1    6    6    0    0  0.87471920060E+02  0.68883264144E+02 -0.38425995543E+01  0.11140469671E+03  0.00000000000E+00 0. -1.
        -12    1    6    6    0    0 -0.64657310573E+01  0.65397512988E+00  0.30659840399E+02  0.31341014260E+02  0.00000000000E+00 0.  1.
         -5    1    5    5    0  501 -0.51410296610E+02  0.48900128602E+02  0.74623991749E+01  0.71498381634E+02  0.47000000000E+01 0.  1.
<mgrwt>
<rscale>  2 0.21171810E+03</rscale>
<asrwt>0</asrwt>
<pdfrwt beam="2">  1        1 0.36675437E-01 0.21171810E+03</pdfrwt>
<pdfrwt beam="1">  1       -1 0.30759712E-01 0.21171810E+03</pdfrwt>
<totfact> 0.11448069E+03</totfact>
</mgrwt>
</event>
<event>
12    1  0.5759937E-002  0.2820225E+03  0.7546771E-02  0.1094589E+00
         -2   -1    0    0    0  501 -0.00000000000E+00  0.00000000000E+00  0.10339513244E+03  0.10339513244E+03  0.00000000000E+00 0.  1.
          2   -1    0    0  503    0  0.00000000000E+00 -0.00000000000E+00 -0.10485867478E+04  0.10485867478E+04  0.00000000000E+00 0. -1.
          6    2    1    2  503    0  0.15429013206E+02  0.22259548114E+03 -0.76934009315E+03  0.81925111206E+03  0.17175972465E+03 0.  0.
         24    2    3    3    0    0 -0.31972195282E+02  0.10225090881E+03 -0.24505846461E+03  0.27922981000E+03  0.80238183501E+02 0.  0.
         -6    2    1    2    0  501 -0.15429013206E+02 -0.22259548114E+03 -0.17585152224E+03  0.33273076820E+03  0.17320278161E+03 0.  0.
        -24    2    5    5    0    0  0.49934873266E+02 -0.73770919473E+02 -0.75583894666E+02  0.14168921526E+03  0.80170246723E+02 0.  0.
          4    1    4    4  502    0 -0.52070208766E+02  0.76931752035E+02 -0.21837605360E+03  0.23731393111E+03  0.00000000000E+00 0. -1.
         -3    1    4    4    0  502  0.20098013484E+02  0.25319156772E+02 -0.26682411003E+02  0.41915878883E+02  0.00000000000E+00 0.  1.
          5    1    3    3  503    0  0.47401208488E+02  0.12034457234E+03 -0.52428162854E+03  0.54002130207E+03  0.47000000000E+01 0. -1.
         13    1    6    6    0    0  0.41129284188E+02 -0.68671809413E+02 -0.92265626877E+02  0.12214901280E+03  0.00000000000E+00 0. -1.
        -14    1    6    6    0    0  0.88055890781E+01 -0.50991100595E+01  0.16681732211E+02  0.19540202455E+02  0.00000000000E+00 0.  1.
         -5    1    5    5    0  501 -0.65363886472E+02 -0.14882456167E+03 -0.10026762757E+03  0.19104155294E+03  0.47000000000E+01 0.  1.
<mgrwt>
<rscale>  2 0.28202255E+03</rscale>
<asrwt>0</asrwt>
<pdfrwt beam="2">  1        2 0.16132104E+00 0.28202255E+03</pdfrwt>
<pdfrwt beam="1">  1       -2 0.15906943E-01 0.28202255E+03</pdfrwt>
<totfact> 0.76277054E+02</totfact>
</mgrwt>
</event>
<event>
12    1  0.5759937E-002  0.1913272E+03  0.7546771E-02  0.1157270E+00
         -4   -1    0    0    0  501 -0.00000000000E+00  0.00000000000E+00  0.78487220424E+03  0.78487220424E+03  0.00000000000E+00 0. -1.
          4   -1    0    0  503    0  0.00000000000E+00 -0.00000000000E+00 -0.48936412677E+02  0.48936412677E+02  0.00000000000E+00 0.  1.
          6    2    1    2  503    0  0.77836645808E+02 -0.27434081615E+02  0.27733831959E+03  0.33683523347E+03  0.17242464651E+03 0.  0.
         24    2    3    3    0    0  0.30384138924E+02  0.38151976853E+02  0.21788580559E+03  0.23628692221E+03  0.77320864546E+02 0.  0.
         -6    2    1    2    0  501 -0.77836645808E+02  0.27434081615E+02  0.45859747197E+03  0.49697338345E+03  0.17279968257E+03 0.  0.
        -24    2    5    5    0    0 -0.62043185775E+02  0.81557197772E+02  0.26839872435E+03  0.29853851082E+03  0.81156846887E+02 0.  0.
          4    1    4    4  502    0  0.96734299619E+01 -0.19857674063E+02  0.10873221789E+03  0.11095313278E+03  0.00000000000E+00 0. -1.
         -3    1    4    4    0  502  0.20710708963E+02  0.58009650916E+02  0.10915358770E+03  0.12533378943E+03  0.00000000000E+00 0.  1.
          5    1    3    3  503    0  0.47452506883E+02 -0.65586058468E+02  0.59452514000E+02  0.10054831125E+03  0.47000000000E+01 0. -1.
         13    1    6    6    0    0  0.10427359920E+02  0.28624407070E+02  0.13050300588E+03  0.13401164523E+03  0.00000000000E+00 0. -1.
        -14    1    6    6    0    0 -0.72470545695E+02  0.52932790702E+02  0.13789571848E+03  0.16452686558E+03  0.00000000000E+00 0.  1.
         -5    1    5    5    0  501 -0.15793460033E+02 -0.54123116157E+02  0.19019874762E+03  0.19843487263E+03  0.47000000000E+01 0.  1.
<mgrwt>
<rscale>  2 0.19132723E+03</rscale>
<asrwt>0</asrwt>
<pdfrwt beam="2">  1        4 0.75286794E-02 0.19132723E+03</pdfrwt>
<pdfrwt beam="1">  1       -4 0.12074956E+00 0.19132723E+03</pdfrwt>
<totfact> 0.11793875E+02</totfact>
</mgrwt>
</event>
<event>
12    1  0.5759937E-002  0.2215722E+03  0.7546771E-02  0.1132716E+00
          1   -1    0    0  503    0  0.00000000000E+00  0.00000000000E+00  0.60062078422E+03  0.60062078422E+03  0.00000000000E+00 0.  1.
         -1   -1    0    0    0  501 -0.00000000000E+00 -0.00000000000E+00 -0.86246917860E+02  0.86246917860E+02  0.00000000000E+00 0. -1.
          6    2    1    2  503    0  0.97752087647E+02  0.97599367728E+02  0.17884001947E+03  0.28486069217E+03  0.17343804127E+03 0.  0.
         24    2    3    3    0    0  0.37236869344E+02  0.81396945367E+02  0.18618380185E+03  0.22161014848E+03  0.80215975237E+02 0.  0.
         -6    2    1    2    0  501 -0.97752087647E+02 -0.97599367728E+02  0.33553384690E+03  0.40200700992E+03  0.17304787311E+03 0.  0.
        -24    2    5    5    0    0 -0.11367860157E+03 -0.94421462528E+02  0.18445519418E+03  0.24998529360E+03  0.81429056929E+02 0.  0.
          4    1    4    4  502    0  0.92181047470E+01  0.13631390930E+02 -0.47100271278E+01  0.17116443245E+02  0.00000000000E+00 0. -1.
         -3    1    4    4    0  502  0.28018764597E+02  0.67765554437E+02  0.19089382898E+03  0.20449370524E+03  0.00000000000E+00 0.  1.
          5    1    3    3  503    0  0.60515218303E+02  0.16202422361E+02 -0.73437823880E+01  0.63250543685E+02  0.47000000000E+01 0. -1.
         13    1    6    6    0    0 -0.79990895203E+02 -0.10625404857E+03  0.14712470297E+03  0.19832837511E+03  0.00000000000E+00 0. -1.
        -14    1    6    6    0    0 -0.33687706369E+02  0.11832586038E+02  0.37330491218E+02  0.51656918485E+02  0.00000000000E+00 0.  1.
         -5    1    5    5    0  501  0.15926513925E+02 -0.31779052007E+01  0.15107865271E+03  0.15202171632E+03  0.47000000000E+01 0.  1.
<mgrwt>
<rscale>  2 0.22157216E+03</rscale>
<asrwt>0</asrwt>
<pdfrwt beam="1">  1        1 0.92403195E-01 0.22157216E+03</pdfrwt>
<pdfrwt beam="2">  1       -1 0.13268757E-01 0.22157216E+03</pdfrwt>
<totfact> 0.13705228E+03</totfact>
</mgrwt>
</event>
<event>
12    1  0.5759937E-002  0.2623689E+03  0.7546771E-02  0.1105728E+00
          1   -1    0    0  503    0  0.00000000000E+00  0.00000000000E+00  0.40314660453E+03  0.40314660453E+03  0.00000000000E+00 0.  1.
         -1   -1    0    0    0  501 -0.00000000000E+00 -0.00000000000E+00 -0.17449736282E+03  0.17449736282E+03  0.00000000000E+00 0. -1.
          6    2    1    2  503    0  0.18572719276E+03 -0.67170494137E+02  0.72119876802E+02  0.27236561558E+03  0.17313372436E+03 0.  0.
         24    2    3    3    0    0  0.19975446694E+03 -0.84266163187E+02  0.84480650430E+02  0.24659926066E+03  0.81679751098E+02 0.  0.
         -6    2    1    2    0  501 -0.18572719276E+03  0.67170494137E+02  0.15652936490E+03  0.30527835177E+03  0.17229905562E+03 0.  0.
        -24    2    5    5    0    0 -0.11071017603E+03  0.10258389092E+03  0.73695447910E+02  0.18795312313E+03  0.84351406017E+02 0.  0.
          2    1    4    4  502    0  0.20165282898E+03 -0.72158498732E+02  0.65428190320E+02  0.22394544082E+03  0.00000000000E+00 0. -1.
         -1    1    4    4    0  502 -0.18983620419E+01 -0.12107664455E+02  0.19052460110E+02  0.22653819838E+02  0.00000000000E+00 0.  1.
          5    1    3    3  503    0 -0.14027274184E+02  0.17095669050E+02 -0.12360773628E+02  0.25766354923E+02  0.47000000000E+01 0. -1.
         13    1    6    6    0    0  0.61772176520E+01  0.20422786304E+02  0.33174669024E+02  0.39443717918E+02  0.00000000000E+00 0. -1.
        -14    1    6    6    0    0 -0.11688739368E+03  0.82161104620E+02  0.40520778886E+02  0.14850940521E+03  0.00000000000E+00 0.  1.
         -5    1    5    5    0  501 -0.75017016727E+02 -0.35413396787E+02  0.82833916994E+02  0.11732522864E+03  0.47000000000E+01 0.  1.
<mgrwt>
<rscale>  2 0.26236890E+03</rscale>
<asrwt>0</asrwt>
<pdfrwt beam="1">  1        1 0.62022554E-01 0.26236890E+03</pdfrwt>
<pdfrwt beam="2">  1       -1 0.26845748E-01 0.26236890E+03</pdfrwt>
<totfact> 0.74301078E+02</totfact>
</mgrwt>
</event>
<event>
12    1  0.5759937E-002  0.1873887E+03  0.7546771E-02  0.1160838E+00
          2   -1    0    0  503    0  0.00000000000E+00  0.00000000000E+00  0.32862694124E+03  0.32862694124E+03  0.00000000000E+00 0.  1.
         -2   -1    0    0    0  501 -0.00000000000E+00 -0.00000000000E+00 -0.15469955009E+03  0.15469955009E+03  0.00000000000E+00 0. -1.
          6    2    1    2  503    0  0.62590237319E+01 -0.71995903100E+02 -0.47324766111E+02  0.19360368151E+03  0.17326328684E+03 0.  0.
         24    2    3    3    0    0 -0.56754561286E+02 -0.71283227744E+02 -0.29779593061E+02  0.12802058232E+03  0.84853205888E+02 0.  0.
         -6    2    1    2    0  501 -0.62590237319E+01  0.71995903100E+02  0.22125215726E+03  0.28972280981E+03  0.17252305351E+03 0.  0.
        -24    2    5    5    0    0 -0.29577229139E+02  0.64527280916E+02  0.54565865816E+02  0.12118222486E+03  0.81664652358E+02 0.  0.
          2    1    4    4  502    0 -0.57292124508E+02 -0.69708308926E+01 -0.14231998427E+01  0.57732187831E+02  0.00000000000E+00 0. -1.
         -1    1    4    4    0  502  0.53756322206E+00 -0.64312396851E+02 -0.28356393218E+02  0.70288394485E+02  0.00000000000E+00 0.  1.
          5    1    3    3  503    0  0.63013585018E+02 -0.71267535640E+00 -0.17545173050E+02  0.65583099198E+02  0.47000000000E+01 0. -1.
         11    1    6    6    0    0  0.26601385054E+02  0.12771268138E+02  0.26935349920E+02  0.39953123182E+02  0.00000000000E+00 0. -1.
        -12    1    6    6    0    0 -0.56178614193E+02  0.51756012778E+02  0.27630515896E+02  0.81229101682E+02  0.00000000000E+00 0.  1.
         -5    1    5    5    0  501  0.23318205407E+02  0.74686221847E+01  0.16668629144E+03  0.16854058495E+03  0.47000000000E+01 0.  1.
<mgrwt>
<rscale>  2 0.18738873E+03</rscale>
<asrwt>0</asrwt>
<pdfrwt beam="1">  1        2 0.50557991E-01 0.18738873E+03</pdfrwt>
<pdfrwt beam="2">  1       -2 0.23799931E-01 0.18738873E+03</pdfrwt>
<totfact> 0.15223294E+03</totfact>
</mgrwt>
</event>
<event>
12    1  0.5759937E-002  0.1755636E+03  0.7546771E-02  0.1172167E+00
         -2   -1    0    0    0  501 -0.00000000000E+00  0.00000000000E+00  0.16431302489E+03  0.16431302489E+03  0.00000000000E+00 0. -1.
          2   -1    0    0  503    0  0.00000000000E+00 -0.00000000000E+00 -0.20182407942E+03  0.20182407942E+03  0.00000000000E+00 0.  1.
          6    2    1    2  503    0  0.69339380863E+01 -0.27491903731E+02 -0.67326231399E+02  0.18753412251E+03  0.17272041397E+03 0.  0.
         24    2    3    3    0    0 -0.14262866912E+02  0.39989243109E+02 -0.23453382466E+01  0.91369595807E+02  0.80872328330E+02 0.  0.
         -6    2    1    2    0  501 -0.69339380863E+01  0.27491903731E+02  0.29815176865E+02  0.17860298180E+03  0.17379929824E+03 0.  0.
        -24    2    5    5    0    0 -0.50607262141E+02  0.29398205698E+02  0.67888697896E+02  0.12044220271E+03  0.80449359298E+02 0.  0.
          2    1    4    4  502    0 -0.22410590386E+02 -0.65361716138E+01  0.27054467818E+02  0.35733742173E+02  0.00000000000E+00 0. -1.
         -1    1    4    4    0  502  0.81477234741E+01  0.46525414723E+02 -0.29399806064E+02  0.55635853634E+02  0.00000000000E+00 0.  1.
          5    1    3    3  503    0  0.21196804998E+02 -0.67481146839E+02 -0.64980893153E+02  0.96164526702E+02  0.47000000000E+01 0. -1.
         11    1    6    6    0    0 -0.12526312976E+02 -0.27959518480E+02  0.21081958855E+02  0.37189947292E+02  0.00000000000E+00 0. -1.
        -12    1    6    6    0    0 -0.38080949165E+02  0.57357724178E+02  0.46806739041E+02  0.83252255416E+02  0.00000000000E+00 0.  1.
         -5    1    5    5    0  501  0.43673324054E+02 -0.19063019675E+01 -0.38073521032E+02  0.58160779095E+02  0.47000000000E+01 0.  1.
<mgrwt>
<rscale>  2 0.17556362E+03</rscale>
<asrwt>0</asrwt>
<pdfrwt beam="2">  1        2 0.31049858E-01 0.17556362E+03</pdfrwt>
<pdfrwt beam="1">  1       -2 0.25278927E-01 0.17556362E+03</pdfrwt>
<totfact> 0.23091417E+03</totfact>
</mgrwt>
</event>
<event>
12    1  0.5759937E-002  0.1780684E+03  0.7546771E-02  0.1169686E+00
          2   -1    0    0  503    0  0.00000000000E+00  0.00000000000E+00  0.76107096824E+03  0.76107096824E+03  0.00000000000E+00 0.  1.
         -2   -1    0    0    0  501 -0.00000000000E+00 -0.00000000000E+00 -0.68536437612E+02  0.68536437612E+02  0.00000000000E+00 0. -1.
          6    2    1    2  503    0  0.75610920043E+01 -0.38331259774E+02  0.85553527370E+02  0.19681224230E+03  0.17288492441E+03 0.  0.
         24    2    3    3    0    0  0.35482941549E+02 -0.29314728868E+02 -0.13028767698E+02  0.93848722491E+02  0.80743058252E+02 0.  0.
         -6    2    1    2    0  501 -0.75610920043E+01  0.38331259774E+02  0.60698100325E+03  0.63279516354E+03  0.17457756186E+03 0.  0.
        -24    2    5    5    0    0 -0.49177689549E+02  0.67197353236E+01  0.53881912266E+03  0.54677562137E+03  0.78574379999E+02 0.  0.
          4    1    4    4  502    0  0.55160297619E+02 -0.32906602855E+02 -0.26765333894E+02  0.69583662187E+02  0.00000000000E+00 0. -1.
         -3    1    4    4    0  502 -0.19677356070E+02  0.35918739872E+01  0.13736566196E+02  0.24265060303E+02  0.00000000000E+00 0.  1.
          5    1    3    3  503    0 -0.27921849545E+02 -0.90165309061E+01  0.98582295067E+02  0.10296351981E+03  0.47000000000E+01 0. -1.
         11    1    6    6    0    0 -0.12444188282E+02 -0.53552720713E+01  0.44624410024E+03  0.44644969903E+03  0.00000000000E+00 0. -1.
        -12    1    6    6    0    0 -0.36733501267E+02  0.12075007395E+02  0.92575022417E+02  0.10032592235E+03  0.00000000000E+00 0.  1.
         -5    1    5    5    0  501  0.41616597544E+02  0.31611524450E+02  0.68161880598E+02  0.86019542174E+02  0.47000000000E+01 0.  1.
<mgrwt>
<rscale>  2 0.17806839E+03</rscale>
<asrwt>0</asrwt>
<pdfrwt beam="1">  1        2 0.11708784E+00 0.17806839E+03</pdfrwt>
<pdfrwt beam="2">  1       -2 0.10544068E-01 0.17806839E+03</pdfrwt>
<totfact> 0.22835643E+03</totfact>
</mgrwt>
</event>
<event>
12    1  0.5759937E-002  0.1748120E+03  0.7546771E-02  0.1172921E+00
          2   -1    0    0  503    0  0.00000000000E+00  0.00000000000E+00  0.14198849114E+04  0.14198849114E+04  0.00000000000E+00 0. -1.
         -2   -1    0    0    0  501 -0.00000000000E+00 -0.00000000000E+00 -0.25250250031E+02  0.25250250031E+02  0.00000000000E+00 0.  1.
          6    2    1    2  503    0  0.35145524388E+01 -0.22630076813E+02  0.97534884774E+03  0.99091125978E+03  0.17342225210E+03 0.  0.
         24    2    3    3    0    0  0.10989210167E+02  0.49739429664E+02  0.68226311118E+03  0.68889378521E+03  0.80603478921E+02 0.  0.
         -6    2    1    2    0  501 -0.35145524388E+01  0.22630076813E+02  0.41928581361E+03  0.45422390163E+03  0.17318858756E+03 0.  0.
        -24    2    5    5    0    0 -0.43233638101E+02  0.60674026205E+02  0.34442244615E+03  0.36121013040E+03  0.79343884266E+02 0.  0.
          4    1    4    4  502    0  0.19823747943E+02  0.24400913626E+02  0.62351598730E+03  0.62430807458E+03  0.00000000000E+00 0. -1.
         -3    1    4    4    0  502 -0.88345377765E+01  0.25338516038E+02  0.58747123885E+02  0.64585710630E+02  0.00000000000E+00 0.  1.
          5    1    3    3  503    0 -0.74746577281E+01 -0.72369506477E+02  0.29308573656E+03  0.30201747458E+03  0.47000000000E+01 0. -1.
         13    1    6    6    0    0 -0.13332910253E+02  0.50714991540E+02  0.31054051085E+03  0.31493679643E+03  0.00000000000E+00 0. -1.
        -14    1    6    6    0    0 -0.29900727848E+02  0.99590346655E+01  0.33881935298E+02  0.46273333972E+02  0.00000000000E+00 0.  1.
         -5    1    5    5    0  501  0.39719085663E+02 -0.38043949392E+02  0.74863367461E+02  0.93013771232E+02  0.47000000000E+01 0.  1.
<mgrwt>
<rscale>  2 0.17481198E+03</rscale>
<asrwt>0</asrwt>
<pdfrwt beam="1">  1        2 0.21844377E+00 0.17481198E+03</pdfrwt>
<pdfrwt beam="2">  1       -2 0.38846549E-02 0.17481198E+03</pdfrwt>
<totfact> 0.42986523E+03</totfact>
</mgrwt>
</event>
<event>
12    1  0.5759937E-002  0.1752609E+03  0.7546771E-02  0.1172470E+00
         -1   -1    0    0    0  501 -0.00000000000E+00  0.00000000000E+00  0.65831051611E+02  0.65831051611E+02  0.00000000000E+00 0.  1.
          1   -1    0    0  503    0  0.00000000000E+00 -0.00000000000E+00 -0.48363629660E+03  0.48363629660E+03  0.00000000000E+00 0. -1.
          6    2    1    2  503    0 -0.17259690482E+02  0.15829227170E+02 -0.25969045948E+03  0.31292270631E+03  0.17301162975E+03 0.  0.
         24    2    3    3    0    0 -0.21128284377E+02  0.45019957185E+02 -0.61738201566E+02  0.11273716449E+03  0.80155235512E+02 0.  0.
         -6    2    1    2    0  501  0.17259690482E+02 -0.15829227170E+02 -0.15811478551E+03  0.23654464190E+03  0.17436920849E+03 0.  0.
        -24    2    5    5    0    0  0.48230004294E+02 -0.69199093708E+02 -0.98054941291E+02  0.15030788710E+03  0.76570500377E+02 0.  0.
          2    1    4    4  502    0  0.47971285254E+01  0.60840251525E+02 -0.53771896325E+02  0.81338585445E+02  0.00000000000E+00 0. -1.
         -1    1    4    4    0  502 -0.25925412902E+02 -0.15820294340E+02 -0.79663052411E+01  0.31398579050E+02  0.00000000000E+00 0.  1.
          5    1    3    3  503    0  0.38685938956E+01 -0.29190730015E+02 -0.19795225792E+03  0.20018554182E+03  0.47000000000E+01 0. -1.
         13    1    6    6    0    0 -0.58470322381E+01 -0.52859782137E+02 -0.67974435371E+02  0.86306826019E+02  0.00000000000E+00 0. -1.
        -14    1    6    6    0    0  0.54077036532E+02 -0.16339311571E+02 -0.30080505920E+02  0.64001061078E+02  0.00000000000E+00 0.  1.
         -5    1    5    5    0  501 -0.30970313813E+02  0.53369866537E+02 -0.60059844216E+02  0.86236754804E+02  0.47000000000E+01 0.  1.
<mgrwt>
<rscale>  2 0.17526089E+03</rscale>
<asrwt>0</asrwt>
<pdfrwt beam="2">  1        1 0.74405580E-01 0.17526089E+03</pdfrwt>
<pdfrwt beam="1">  1       -1 0.10127855E-01 0.17526089E+03</pdfrwt>
<totfact> 0.27764570E+03</totfact>
</mgrwt>
</event>
<event>
12    1  0.5759937E-002  0.2646700E+03  0.7546771E-02  0.1104369E+00
         -4   -1    0    0    0  501 -0.00000000000E+00  0.00000000000E+00  0.41331032497E+03  0.41331032497E+03  0.00000000000E+00 0. -1.
          4   -1    0    0  503    0  0.00000000000E+00 -0.00000000000E+00 -0.17005131052E+03  0.17005131052E+03  0.00000000000E+00 0.  1.
          6    2    1    2  503    0  0.19468610017E+03 -0.42373322912E+02  0.13824899500E+03  0.29822415936E+03  0.17357041369E+03 0.  0.
         24    2    3    3    0    0  0.21597892158E+03 -0.48997208361E+02  0.10415573969E+03  0.25721562172E+03  0.79144405702E+02 0.  0.
         -6    2    1    2    0  501 -0.19468610017E+03  0.42373322912E+02  0.10501001945E+03  0.28513747614E+03  0.17486594870E+03 0.  0.
        -24    2    5    5    0    0 -0.12830808620E+03  0.88174272156E+02  0.10566631414E+03  0.20435202935E+03  0.79729007885E+02 0.  0.
          2    1    4    4  502    0  0.21829178580E+03 -0.51885411821E+02  0.11031869190E+03  0.25002722550E+03  0.00000000000E+00 0. -1.
         -1    1    4    4    0  502 -0.23128642263E+01  0.28882034599E+01 -0.61629522162E+01  0.71883962171E+01  0.00000000000E+00 0.  1.
          5    1    3    3  503    0 -0.21292821400E+02  0.66238854487E+01  0.34093255309E+02  0.41008537638E+02  0.47000000000E+01 0. -1.
         11    1    6    6    0    0 -0.36925996398E+02  0.28914346653E+02  0.79556244553E+02  0.92351311305E+02  0.00000000000E+00 0. -1.
        -12    1    6    6    0    0 -0.91382089806E+02  0.59259925502E+02  0.26110069588E+02  0.11200071804E+03  0.00000000000E+00 0.  1.
         -5    1    5    5    0  501 -0.66378013970E+02 -0.45800949244E+02 -0.65629468998E+00  0.80785446790E+02  0.47000000000E+01 0.  1.
<mgrwt>
<rscale>  2 0.26467000E+03</rscale>
<asrwt>0</asrwt>
<pdfrwt beam="2">  1        4 0.26161740E-01 0.26467000E+03</pdfrwt>
<pdfrwt beam="1">  1       -4 0.63586204E-01 0.26467000E+03</pdfrwt>
<totfact> 0.59236852E+01</totfact>
</mgrwt>
</event>
<event>
12    1  0.5759937E-002  0.2804415E+03  0.7546771E-02  0.1095448E+00
         -2   -1    0    0    0  501 -0.00000000000E+00  0.00000000000E+00  0.16273722208E+03  0.16273722208E+03  0.00000000000E+00 0.  1.
          2   -1    0    0  503    0  0.00000000000E+00 -0.00000000000E+00 -0.48832502792E+03  0.48832502792E+03  0.00000000000E+00 0. -1.
          6    2    1    2  503    0  0.19318184022E+02  0.21997319459E+03 -0.19571073505E+03  0.34173210663E+03  0.17238544694E+03 0.  0.
         24    2    3    3    0    0  0.58457880339E+02  0.94557894624E+02 -0.51097152488E+02  0.14629390270E+03  0.80202666825E+02 0.  0.
         -6    2    1    2    0  501 -0.19318184022E+02 -0.21997319459E+03 -0.12987707078E+03  0.30933014337E+03  0.17336575644E+03 0.  0.
        -24    2    5    5    0    0 -0.55311432398E+02 -0.75198568695E+02 -0.96659858916E+02  0.15642272237E+03  0.80067224631E+02 0.  0.
          4    1    4    4  502    0  0.73059773459E+02  0.45946733013E+02 -0.33276947028E+02  0.92499664734E+02  0.00000000000E+00 0. -1.
         -3    1    4    4    0  502 -0.14601893120E+02  0.48611161611E+02 -0.17820205460E+02  0.53794237968E+02  0.00000000000E+00 0.  1.
          5    1    3    3  503    0 -0.39139696316E+02  0.12541529997E+03 -0.14461358257E+03  0.19543820393E+03  0.47000000000E+01 0. -1.
         11    1    6    6    0    0 -0.51757408564E+02 -0.16438187579E+02 -0.16090434124E+02  0.56638727232E+02  0.00000000000E+00 0. -1.
        -12    1    6    6    0    0 -0.35540238341E+01 -0.58760381116E+02 -0.80569424792E+02  0.99783995138E+02  0.00000000000E+00 0.  1.
         -5    1    5    5    0  501  0.35993248376E+02 -0.14477462589E+03 -0.33217211869E+02  0.15290742100E+03  0.47000000000E+01 0.  1.
<mgrwt>
<rscale>  2 0.28044149E+03</rscale>
<asrwt>0</asrwt>
<pdfrwt beam="2">  1        2 0.75126925E-01 0.28044149E+03</pdfrwt>
<pdfrwt beam="1">  1       -2 0.25036496E-01 0.28044149E+03</pdfrwt>
<totfact> 0.90860567E+02</totfact>
</mgrwt>
</event>
<event>
12    1  0.5759937E-002  0.2681136E+03  0.7546771E-02  0.1102364E+00
          2   -1    0    0  503    0  0.00000000000E+00  0.00000000000E+00  0.11193911851E+04  0.11193911851E+04  0.00000000000E+00 0. -1.
         -2   -1    0    0    0  501 -0.00000000000E+00 -0.00000000000E+00 -0.13160845823E+03  0.13160845823E+03  0.00000000000E+00 0.  1.
          6    2    1    2  503    0 -0.20436310597E+03 -0.10557075325E+02  0.46413117682E+02  0.27222886142E+03  0.17343195950E+03 0.  0.
         24    2    3    3    0    0 -0.10473632937E+03 -0.27268592737E+02 -0.38156027880E+02  0.14040018544E+03  0.80889151109E+02 0.  0.
         -6    2    1    2    0  501  0.20436310597E+03  0.10557075325E+02  0.94136960919E+03  0.97877078192E+03  0.17303112875E+03 0.  0.
        -24    2    5    5    0    0  0.13101937252E+03  0.75736677939E+02  0.61543830888E+03  0.63835781749E+03  0.76382398159E+02 0.  0.
          2    1    4    4  502    0 -0.46408170615E+02  0.50731411786E+01 -0.54470708105E+02  0.71739201994E+02  0.00000000000E+00 0. -1.
         -1    1    4    4    0  502 -0.58328158756E+02 -0.32341733915E+02  0.16314680225E+02  0.68660983443E+02  0.00000000000E+00 0.  1.
          5    1    3    3  503    0 -0.99626776602E+02  0.16711517412E+02  0.84569145562E+02  0.13182867598E+03  0.47000000000E+01 0. -1.
         11    1    6    6    0    0  0.46426524826E+02 -0.71409225363E+01  0.24458953692E+03  0.24905914268E+03  0.00000000000E+00 0. -1.
        -12    1    6    6    0    0  0.84592847693E+02  0.82877600475E+02  0.37084877196E+03  0.38929867481E+03  0.00000000000E+00 0.  1.
         -5    1    5    5    0  501  0.73343733453E+02 -0.65179602614E+02  0.32593130031E+03  0.34041296443E+03  0.47000000000E+01 0.  1.
<mgrwt>
<rscale>  2 0.26811361E+03</rscale>
<asrwt>0</asrwt>
<pdfrwt beam="1">  1        2 0.17221402E+00 0.26811361E+03</pdfrwt>
<pdfrwt beam="2">  1       -2 0.20247456E-01 0.26811361E+03</pdfrwt>
<totfact> 0.46056700E+02</totfact>
</mgrwt>
</event>
<event>
12    1  0.5759937E-002  0.1809764E+03  0.7546771E-02  0.1166861E+00
         -1   -1    0    0    0  501 -0.00000000000E+00  0.00000000000E+00  0.81126576194E+02  0.81126576194E+02  0.00000000000E+00 0. -1.
          1   -1    0    0  503    0  0.00000000000E+00 -0.00000000000E+00 -0.66202136082E+03  0.66202136082E+03  0.00000000000E+00 0.  1.
          6    2    1    2  503    0  0.35204021532E+02 -0.55110836259E+01 -0.51825628541E+03  0.54757901649E+03  0.17315746231E+03 0.  0.
         24    2    3    3    0    0  0.69865226918E+02 -0.33862802244E+02 -0.22827294203E+03  0.25412092997E+03  0.80256287447E+02 0.  0.
         -6    2    1    2    0  501 -0.35204021532E+02  0.55110836259E+01 -0.62638499213E+02  0.19556892052E+03  0.18180738686E+03 0.  0.
        -24    2    5    5    0    0 -0.27497367232E+02  0.56450441634E+02  0.13747451362E+02  0.10331322065E+03  0.80881837120E+02 0.  0.
          2    1    4    4  502    0  0.10140200820E+02 -0.30603212280E+02 -0.16059575323E+03  0.16379980534E+03  0.00000000000E+00 0. -1.
         -1    1    4    4    0  502  0.59725026099E+02 -0.32595899645E+01 -0.67677188802E+02  0.90321124624E+02  0.00000000000E+00 0.  1.
          5    1    3    3  503    0 -0.34661205387E+02  0.28351718618E+02 -0.28998334338E+03  0.29345808652E+03  0.47000000000E+01 0. -1.
         11    1    6    6    0    0  0.67023343202E+01  0.60629182439E+02  0.26591905867E+02  0.66542832118E+02  0.00000000000E+00 0. -1.
        -12    1    6    6    0    0 -0.34199701553E+02 -0.41787408053E+01 -0.12844454505E+02  0.36770388528E+02  0.00000000000E+00 0.  1.
         -5    1    5    5    0  501 -0.77066542995E+01 -0.50939358008E+02 -0.76385950576E+02  0.92255699879E+02  0.47000000000E+01 0.  1.
<mgrwt>
<rscale>  2 0.18097638E+03</rscale>
<asrwt>0</asrwt>
<pdfrwt beam="2">  1        1 0.10184944E+00 0.18097638E+03</pdfrwt>
<pdfrwt beam="1">  1       -1 0.12481011E-01 0.18097638E+03</pdfrwt>
<totfact> 0.13135337E+03</totfact>
</mgrwt>
</event>
<event>
12    1  0.5759937E-002  0.2138913E+03  0.7546771E-02  0.1138521E+00
         -2   -1    0    0    0  501 -0.00000000000E+00  0.00000000000E+00  0.23775558271E+02  0.23775558271E+02  0.00000000000E+00 0. -1.
          2   -1    0    0  503    0  0.00000000000E+00 -0.00000000000E+00 -0.19949183267E+04  0.19949183267E+04  0.00000000000E+00 0.  1.
          6    2    1    2  503    0  0.47646008311E+02 -0.11784906483E+03 -0.79378150035E+03  0.82198928966E+03  0.17151903049E+03 0.  0.
         24    2    3    3    0    0  0.53184424648E+02 -0.11930145951E+02 -0.50858618512E+03  0.51767374740E+03  0.79720070497E+02 0.  0.
         -6    2    1    2    0  501 -0.47646008311E+02  0.11784906483E+03 -0.11773612681E+04  0.11967045953E+04  0.17252184987E+03 0.  0.
        -24    2    5    5    0    0 -0.48688146546E+02  0.15825437696E+03 -0.94213184560E+03  0.95798164606E+03  0.51975342738E+02 0.  0.
          2    1    4    4  502    0  0.70532034267E+02  0.59432730755E+01 -0.34326354519E+03  0.35048530898E+03  0.00000000000E+00 0. -1.
         -1    1    4    4    0  502 -0.17347609619E+02 -0.17873419027E+02 -0.16532263993E+03  0.16718843842E+03  0.00000000000E+00 0.  1.
          5    1    3    3  503    0 -0.55384163366E+01 -0.10591891888E+03 -0.28519531523E+03  0.30431554226E+03  0.47000000000E+01 0. -1.
         11    1    6    6    0    0 -0.31894887437E+02  0.55521173365E+02 -0.25020068459E+03  0.25826394853E+03  0.00000000000E+00 0. -1.
        -12    1    6    6    0    0 -0.16793259110E+02  0.10273320360E+03 -0.69193116100E+03  0.69971769753E+03  0.00000000000E+00 0.  1.
         -5    1    5    5    0  501  0.10421382350E+01 -0.40405312133E+02 -0.23522942246E+03  0.23872294923E+03  0.47000000000E+01 0.  1.
<mgrwt>
<rscale>  2 0.21389133E+03</rscale>
<asrwt>0</asrwt>
<pdfrwt beam="2">  1        2 0.30691054E+00 0.21389133E+03</pdfrwt>
<pdfrwt beam="1">  1       -2 0.36577778E-02 0.21389133E+03</pdfrwt>
<totfact> 0.23569185E+03</totfact>
</mgrwt>
</event>
<event>
12    1  0.5759937E-002  0.1787098E+03  0.7546771E-02  0.1169058E+00
         -2   -1    0    0    0  501 -0.00000000000E+00  0.00000000000E+00  0.94960902193E+02  0.94960902193E+02  0.00000000000E+00 0. -1.
          2   -1    0    0  503    0  0.00000000000E+00 -0.00000000000E+00 -0.17054444300E+04  0.17054444300E+04  0.00000000000E+00 0.  1.
          6    2    1    2  503    0 -0.25993897529E+02 -0.29247576713E+02  0.20894014011E+00  0.17996617306E+03  0.17566068524E+03 0.  0.
         24    2    3    3    0    0 -0.98507513887E+01  0.34391357564E+02 -0.48673316148E+02  0.97977880587E+02  0.77141238009E+02 0.  0.
         -6    2    1    2    0  501  0.25993897529E+02  0.29247576713E+02 -0.16106924679E+04  0.16204391591E+04  0.17309459464E+03 0.  0.
        -24    2    5    5    0    0  0.77657119806E+01  0.45256336646E+01 -0.34998466114E+03  0.35934847827E+03  0.81001717007E+02 0.  0.
          4    1    4    4  502    0 -0.27405148663E+02 -0.86658997960E+01 -0.42160230055E+02  0.51025728715E+02  0.00000000000E+00 0. -1.
         -3    1    4    4    0  502  0.17554397274E+02  0.43057257360E+02 -0.65130860923E+01  0.46952151872E+02  0.00000000000E+00 0.  1.
          5    1    3    3  503    0 -0.16143146140E+02 -0.63638934276E+02  0.48882256288E+02  0.81988292475E+02  0.47000000000E+01 0. -1.
         13    1    6    6    0    0  0.20815970789E+02 -0.32635160910E+02 -0.22498646732E+03  0.22829206916E+03  0.00000000000E+00 0. -1.
        -14    1    6    6    0    0 -0.13050258808E+02  0.37160794574E+02 -0.12499819382E+03  0.13105640911E+03  0.00000000000E+00 0.  1.
         -5    1    5    5    0  501  0.18228185549E+02  0.24721943048E+02 -0.12607078068E+04  0.12610906808E+04  0.47000000000E+01 0.  1.
<mgrwt>
<rscale>  2 0.17870975E+03</rscale>
<asrwt>0</asrwt>
<pdfrwt beam="2">  1        2 0.26237604E+00 0.17870975E+03</pdfrwt>
<pdfrwt beam="1">  1       -2 0.14609371E-01 0.17870975E+03</pdfrwt>
<totfact> 0.38865714E+02</totfact>
</mgrwt>
</event>
<event>
12    1  0.5759937E-002  0.2178021E+03  0.7546771E-02  0.1135532E+00
          2   -1    0    0  503    0  0.00000000000E+00  0.00000000000E+00  0.46015961883E+03  0.46015961883E+03  0.00000000000E+00 0. -1.
         -2   -1    0    0    0  501 -0.00000000000E+00 -0.00000000000E+00 -0.17160628166E+03  0.17160628166E+03  0.00000000000E+00 0.  1.
          6    2    1    2  503    0  0.45336013650E+02  0.12425448401E+03  0.34386700005E+03  0.40703002327E+03  0.17301559234E+03 0.  0.
         24    2    3    3    0    0 -0.41864527353E+02  0.62787489474E+02  0.14056941719E+03  0.17739090865E+03  0.77542671716E+02 0.  0.
         -6    2    1    2    0  501 -0.45336013650E+02 -0.12425448401E+03 -0.55313662883E+02  0.22473587722E+03  0.17306669893E+03 0.  0.
        -24    2    5    5    0    0 -0.47504642188E+02 -0.39848662009E+02  0.31297416440E+02  0.10368789170E+03  0.76987295809E+02 0.  0.
          2    1    4    4  502    0 -0.60935211641E+02  0.25033449222E+02  0.87574981450E+02  0.10958627183E+03  0.00000000000E+00 0. -1.
         -1    1    4    4    0  502  0.19070684288E+02  0.37754040252E+02  0.52994435740E+02  0.67804636818E+02  0.00000000000E+00 0.  1.
          5    1    3    3  503    0  0.87200541003E+02  0.61466994534E+02  0.20329758286E+03  0.22963911462E+03  0.47000000000E+01 0. -1.
         11    1    6    6    0    0  0.15184271607E+02 -0.30761996370E+02  0.18812898644E+02  0.39125281856E+02  0.00000000000E+00 0. -1.
        -12    1    6    6    0    0 -0.62688913795E+02 -0.90866656391E+01  0.12484517796E+02  0.64562609844E+02  0.00000000000E+00 0.  1.
         -5    1    5    5    0  501  0.21686285380E+01 -0.84405822000E+02 -0.86611079323E+02  0.12104798552E+03  0.47000000000E+01 0.  1.
<mgrwt>
<rscale>  2 0.21780213E+03</rscale>
<asrwt>0</asrwt>
<pdfrwt beam="1">  1        2 0.70793787E-01 0.21780213E+03</pdfrwt>
<pdfrwt beam="2">  1       -2 0.26400967E-01 0.21780213E+03</pdfrwt>
<totfact> 0.88241530E+02</totfact>
</mgrwt>
</event>
<event>
12    1  0.5759937E-002  0.1839684E+03  0.7546771E-02  0.1164017E+00
         -2   -1    0    0    0  501 -0.00000000000E+00  0.00000000000E+00  0.38450038132E+02  0.38450038132E+02  0.00000000000E+00 0. -1.
          2   -1    0    0  503    0  0.00000000000E+00 -0.00000000000E+00 -0.94254340177E+03  0.94254340177E+03  0.00000000000E+00 0.  1.
          6    2    1    2  503    0  0.59580270540E+02 -0.12628317027E+02 -0.58214853352E+03  0.61106328923E+03  0.17547690830E+03 0.  0.
         24    2    3    3    0    0  0.65421352258E+02  0.53778173284E+02 -0.33138746410E+03  0.35155000610E+03  0.81226289893E+02 0.  0.
         -6    2    1    2    0  501 -0.59580270540E+02  0.12628317027E+02 -0.32194483013E+03  0.36993015067E+03  0.17172815641E+03 0.  0.
        -24    2    5    5    0    0  0.15075048472E+02  0.18941081844E+02 -0.25738897875E+03  0.27092098138E+03  0.81012777418E+02 0.  0.
          2    1    4    4  502    0 -0.27591449954E-01  0.38392344728E+02 -0.54814450057E+02  0.66922319371E+02  0.00000000000E+00 0. -1.
         -1    1    4    4    0  502  0.65448943708E+02  0.15385828556E+02 -0.27657301405E+03  0.28462768673E+03  0.00000000000E+00 0.  1.
          5    1    3    3  503    0 -0.58410817188E+01 -0.66406490310E+02 -0.25076106941E+03  0.25951328314E+03  0.47000000000E+01 0. -1.
         13    1    6    6    0    0  0.78019296734E+01 -0.16753272072E+02 -0.10292283105E+02  0.21153565261E+02  0.00000000000E+00 0. -1.
        -14    1    6    6    0    0  0.72731187984E+01  0.35694353916E+02 -0.24709669564E+03  0.24976741612E+03  0.00000000000E+00 0.  1.
         -5    1    5    5    0  501 -0.74655319011E+02 -0.63127648171E+01 -0.64555851380E+02  0.99009169291E+02  0.47000000000E+01 0.  1.
<mgrwt>
<rscale>  2 0.18396842E+03</rscale>
<asrwt>0</asrwt>
<pdfrwt beam="2">  1        2 0.14500668E+00 0.18396842E+03</pdfrwt>
<pdfrwt beam="1">  1       -2 0.59153902E-02 0.18396842E+03</pdfrwt>
<totfact> 0.42608905E+03</totfact>
</mgrwt>
</event>
<event>
12    1  0.5759937E-002  0.3633503E+03  0.7546771E-02  0.1057265E+00
          2   -1    0    0  503    0  0.00000000000E+00  0.00000000000E+00  0.15704480036E+04  0.15704480036E+04  0.00000000000E+00 0. -1.
         -2   -1    0    0    0  501 -0.00000000000E+00 -0.00000000000E+00 -0.87680547016E+02  0.87680547016E+02  0.00000000000E+00 0.  1.
          6    2    1    2  503    0  0.12872240767E+03  0.29192731295E+03  0.90904293727E+03  0.97884923999E+03  0.17319283631E+03 0.  0.
         24    2    3    3    0    0  0.29208469009E+02  0.22798158324E+03  0.59844126139E+03  0.64645253213E+03  0.83307838822E+02 0.  0.
         -6    2    1    2    0  501 -0.12872240767E+03 -0.29192731295E+03  0.57372451927E+03  0.67927931058E+03  0.17455527344E+03 0.  0.
        -24    2    5    5    0    0 -0.82004738613E+02 -0.26149933895E+03  0.36572424504E+03  0.46388523851E+03  0.79552559170E+02 0.  0.
          2    1    4    4  502    0 -0.12639282683E+02  0.16990154299E+03  0.46122233148E+03  0.49168315492E+03  0.00000000000E+00 0. -1.
         -1    1    4    4    0  502  0.41847751692E+02  0.58080040244E+02  0.13721892991E+03  0.15476937721E+03  0.00000000000E+00 0.  1.
          5    1    3    3  503    0  0.99513938662E+02  0.63945729715E+02  0.31060167588E+03  0.33239670786E+03  0.47000000000E+01 0. -1.
         11    1    6    6    0    0 -0.45879026815E+02 -0.15363765003E+03  0.27522866701E+03  0.31852822756E+03  0.00000000000E+00 0. -1.
        -12    1    6    6    0    0 -0.36125711798E+02 -0.10786168891E+03  0.90495578027E+02  0.14535701094E+03  0.00000000000E+00 0.  1.
         -5    1    5    5    0  501 -0.46717669058E+02 -0.30427974003E+02  0.20800027423E+03  0.21539407207E+03  0.47000000000E+01 0.  1.
<mgrwt>
<rscale>  2 0.36335032E+03</rscale>
<asrwt>0</asrwt>
<pdfrwt beam="1">  1        2 0.24160736E+00 0.36335032E+03</pdfrwt>
<pdfrwt beam="2">  1       -2 0.13489316E-01 0.36335032E+03</pdfrwt>
<totfact> 0.50686373E+02</totfact>
</mgrwt>
</event>
<event>
12    1  0.5759937E-002  0.3524740E+03  0.7546771E-02  0.1061604E+00
          1   -1    0    0  503    0  0.00000000000E+00  0.00000000000E+00  0.10290170523E+04  0.10290170523E+04  0.00000000000E+00 0. -1.
         -1   -1    0    0    0  501 -0.00000000000E+00 -0.00000000000E+00 -0.12214423504E+03  0.12214423504E+03  0.00000000000E+00 0.  1.
          6    2    1    2  503    0 -0.93077255748E+02 -0.29150533083E+03  0.39053722505E+03  0.52550915609E+03  0.17321032172E+03 0.  0.
         24    2    3    3    0    0 -0.13311220861E+03 -0.24505144459E+03  0.32181814408E+03  0.43328571501E+03  0.80003264885E+02 0.  0.
         -6    2    1    2    0  501  0.93077255748E+02  0.29150533083E+03  0.51633559225E+03  0.62565213127E+03  0.17663355318E+03 0.  0.
        -24    2    5    5    0    0  0.11134840679E+03  0.14746673177E+03  0.23836069857E+03  0.31200729314E+03  0.79923861719E+02 0.  0.
          4    1    4    4  502    0 -0.11480831248E+03 -0.13820426311E+03  0.17525924900E+03  0.25099237302E+03  0.00000000000E+00 0. -1.
         -3    1    4    4    0  502 -0.18303896130E+02 -0.10684718147E+03  0.14655889509E+03  0.18229334198E+03  0.00000000000E+00 0.  1.
          5    1    3    3  503    0  0.40034952860E+02 -0.46453886239E+02  0.68719080968E+02  0.92223441089E+02  0.47000000000E+01 0. -1.
         11    1    6    6    0    0  0.68528975833E+02  0.12505706260E+03  0.21582787979E+03  0.25868351924E+03  0.00000000000E+00 0. -1.
        -12    1    6    6    0    0  0.42819430957E+02  0.22409669178E+02  0.22532818788E+02  0.53323773898E+02  0.00000000000E+00 0.  1.
         -5    1    5    5    0  501 -0.18271151042E+02  0.14403859905E+03  0.27797489367E+03  0.31364483813E+03  0.47000000000E+01 0.  1.
<mgrwt>
<rscale>  2 0.35247398E+03</rscale>
<asrwt>0</asrwt>
<pdfrwt beam="1">  1        1 0.15831031E+00 0.35247398E+03</pdfrwt>
<pdfrwt beam="2">  1       -1 0.18791422E-01 0.35247398E+03</pdfrwt>
<totfact> 0.33879153E+02</totfact>
</mgrwt>
</event>
<event>
12    1  0.5759937E-002  0.2308371E+03  0.7546771E-02  0.1126052E+00
          1   -1    0    0  503    0  0.00000000000E+00  0.00000000000E+00  0.97497346156E+03  0.97497346156E+03  0.00000000000E+00 0.  1.
         -1   -1    0    0    0  501 -0.00000000000E+00 -0.00000000000E+00 -0.92819777009E+02  0.92819777009E+02  0.00000000000E+00 0. -1.
          6    2    1    2  503    0  0.82438465817E+02 -0.12942080572E+03  0.10039530803E+03  0.25308132993E+03  0.17442791086E+03 0.  0.
         24    2    3    3    0    0  0.78578789414E+02 -0.12301390455E+03  0.13709898928E+03  0.21532956571E+03  0.79143175000E+02 0.  0.
         -6    2    1    2    0  501 -0.82438465817E+02  0.12942080572E+03  0.78175837652E+03  0.81471190864E+03  0.17048017249E+03 0.  0.
        -24    2    5    5    0    0 -0.10861054784E+03  0.11380357941E+03  0.74928657794E+03  0.76993040198E+03  0.81332295109E+02 0.  0.
          4    1    4    4  502    0  0.91782917504E+02 -0.97136328737E+02  0.94135787362E+02  0.16346594987E+03  0.00000000000E+00 0. -1.
         -3    1    4    4    0  502 -0.13204128090E+02 -0.25877575815E+02  0.42963201916E+02  0.51863615836E+02  0.00000000000E+00 0.  1.
          5    1    3    3  503    0  0.38596764030E+01 -0.64069011638E+01 -0.36703681250E+02  0.37751764221E+02  0.47000000000E+01 0. -1.
         13    1    6    6    0    0 -0.16764520140E+02  0.73868807977E+02  0.36758132229E+03  0.37530478072E+03  0.00000000000E+00 0. -1.
        -14    1    6    6    0    0 -0.91846027702E+02  0.39934771432E+02  0.38170525564E+03  0.39462562127E+03  0.00000000000E+00 0.  1.
         -5    1    5    5    0  501  0.26172082025E+02  0.15617226308E+02  0.32471798585E+02  0.44781506656E+02  0.47000000000E+01 0.  1.
<mgrwt>
<rscale>  2 0.23083715E+03</rscale>
<asrwt>0</asrwt>
<pdfrwt beam="1">  1        1 0.14999591E+00 0.23083715E+03</pdfrwt>
<pdfrwt beam="2">  1       -1 0.14279966E-01 0.23083715E+03</pdfrwt>
<totfact> 0.58500315E+02</totfact>
</mgrwt>
</event>
<event>
12    1  0.5759937E-002  0.2063915E+03  0.7546771E-02  0.1144456E+00
         -2   -1    0    0    0  501 -0.00000000000E+00  0.00000000000E+00  0.27724092442E+02  0.27724092442E+02  0.00000000000E+00 0. -1.
          2   -1    0    0  503    0  0.00000000000E+00 -0.00000000000E+00 -0.15388004556E+04  0.15388004556E+04  0.00000000000E+00 0.  1.
          6    2    1    2  503    0 -0.16459515283E+02  0.11554244154E+03 -0.73810270385E+03  0.76722520213E+03  0.17383307485E+03 0.  0.
         24    2    3    3    0    0 -0.77731838466E+01  0.11525768813E+02 -0.50537335560E+03  0.51211746000E+03  0.81662712114E+02 0.  0.
         -6    2    1    2    0  501  0.16459515283E+02 -0.11554244154E+03 -0.77297365926E+03  0.79929934587E+03  0.16664391663E+03 0.  0.
        -24    2    5    5    0    0  0.22372914566E+02 -0.81266570087E+02 -0.29587163742E+03  0.32090804901E+03  0.91307980894E+02 0.  0.
          4    1    4    4  502    0  0.31836302612E+02 -0.13233411559E+01 -0.34346752395E+03  0.34494237403E+03  0.00000000000E+00 0. -1.
         -3    1    4    4    0  502 -0.39609486459E+02  0.12849109969E+02 -0.16190583165E+03  0.16717508596E+03  0.00000000000E+00 0.  1.
          5    1    3    3  503    0 -0.86863314365E+01  0.10401667273E+03 -0.23272934825E+03  0.25510774214E+03  0.47000000000E+01 0. -1.
         11    1    6    6    0    0 -0.17966994892E+02  0.24152166508E+01 -0.10845687641E+02  0.21125224669E+02  0.00000000000E+00 0. -1.
        -12    1    6    6    0    0  0.40339909459E+02 -0.83681786737E+02 -0.28502594977E+03  0.29978282434E+03  0.00000000000E+00 0.  1.
         -5    1    5    5    0  501 -0.59133992831E+01 -0.34275871455E+02 -0.47710202185E+03  0.47839129686E+03  0.47000000000E+01 0.  1.
<mgrwt>
<rscale>  2 0.20639152E+03</rscale>
<asrwt>0</asrwt>
<pdfrwt beam="2">  1        2 0.23673846E+00 0.20639152E+03</pdfrwt>
<pdfrwt beam="1">  1       -2 0.42652464E-02 0.20639152E+03</pdfrwt>
<totfact> 0.32384718E+03</totfact>
</mgrwt>
</event>
<event>
12    1  0.5759937E-002  0.1754244E+03  0.7546771E-02  0.1172306E+00
          1   -1    0    0  503    0  0.00000000000E+00  0.00000000000E+00  0.66978863361E+03  0.66978863361E+03  0.00000000000E+00 0. -1.
         -1   -1    0    0    0  501 -0.00000000000E+00 -0.00000000000E+00 -0.46106196090E+02  0.46106196090E+02  0.00000000000E+00 0.  1.
          6    2    1    2  503    0  0.79463421562E+01  0.50702159714E+02  0.32121738486E+03  0.36361753196E+03  0.16249076238E+03 0.  0.
         24    2    3    3    0    0  0.39322220064E+02  0.78950132052E-01  0.99526757719E+02  0.13401792563E+03  0.80678284967E+02 0.  0.
         -6    2    1    2    0  501 -0.79463421562E+01 -0.50702159714E+02  0.30246505267E+03  0.35227729775E+03  0.17314829791E+03 0.  0.
        -24    2    5    5    0    0 -0.10229010890E+02  0.36333870177E+02  0.11354942320E+03  0.14421075519E+03  0.80489052775E+02 0.  0.
          2    1    4    4  502    0  0.33723952939E+02  0.35680149293E+02  0.35641677010E+02  0.60668832159E+02  0.00000000000E+00 0. -1.
         -1    1    4    4    0  502  0.55982671246E+01 -0.35601199160E+02  0.63885080709E+02  0.73349093475E+02  0.00000000000E+00 0.  1.
          5    1    3    3  503    0 -0.31375877908E+02  0.50623209582E+02  0.22169062714E+03  0.22959960632E+03  0.47000000000E+01 0. -1.
         11    1    6    6    0    0  0.94026796353E+00  0.31681996874E+02  0.12414533293E+03  0.12812765790E+03  0.00000000000E+00 0. -1.
        -12    1    6    6    0    0 -0.11169278853E+02  0.46518733029E+01 -0.10595909732E+02  0.16083097288E+02  0.00000000000E+00 0.  1.
         -5    1    5    5    0  501  0.22826687334E+01 -0.87036029891E+02  0.18891562947E+03  0.20806654256E+03  0.47000000000E+01 0.  1.
<mgrwt>
<rscale>  2 0.17542438E+03</rscale>
<asrwt>0</asrwt>
<pdfrwt beam="1">  1        1 0.10304440E+00 0.17542438E+03</pdfrwt>
<pdfrwt beam="2">  1       -1 0.70932614E-02 0.17542438E+03</pdfrwt>
<totfact> 0.30690459E+03</totfact>
</mgrwt>
</event>
<event>
12    1  0.5759937E-002  0.4643948E+03  0.7546771E-02  0.1023514E+00
         -1   -1    0    0    0  501 -0.00000000000E+00  0.00000000000E+00  0.97393181138E+03  0.97393181138E+03  0.00000000000E+00 0.  1.
          1   -1    0    0  503    0  0.00000000000E+00 -0.00000000000E+00 -0.23895141782E+03  0.23895141782E+03  0.00000000000E+00 0. -1.
          6    2    1    2  503    0  0.39600329047E+03  0.16900716110E+03  0.20354094690E+03  0.50734732518E+03  0.17490101410E+03 0.  0.
         24    2    3    3    0    0  0.16035593451E+03  0.69808941968E+02  0.22811606094E+02  0.19420973932E+03  0.81300303578E+02 0.  0.
         -6    2    1    2    0  501 -0.39600329047E+03 -0.16900716110E+03  0.53143944665E+03  0.70553590403E+03  0.17312134427E+03 0.  0.
        -24    2    5    5    0    0 -0.16871130421E+03 -0.39134335478E+02  0.14336644965E+03  0.23739987801E+03  0.76221800104E+02 0.  0.
          4    1    4    4  502    0  0.90621587133E+02 -0.11722454547E+01 -0.53790329625E+01  0.90788656833E+02  0.00000000000E+00 0. -1.
         -3    1    4    4    0  502  0.69734347380E+02  0.70981187422E+02  0.28190639056E+02  0.10342108249E+03  0.00000000000E+00 0.  1.
          5    1    3    3  503    0  0.23564735596E+03  0.99198219128E+02  0.18072934081E+03  0.31313758586E+03  0.47000000000E+01 0. -1.
         13    1    6    6    0    0 -0.15886748524E+03 -0.53351330014E+02  0.11195121832E+03  0.20153986595E+03  0.00000000000E+00 0. -1.
        -14    1    6    6    0    0 -0.98438189622E+01  0.14216994535E+02  0.31415231331E+02  0.35860012060E+02  0.00000000000E+00 0.  1.
         -5    1    5    5    0  501 -0.22729198627E+03 -0.12987282562E+03  0.38807299700E+03  0.46813602602E+03  0.47000000000E+01 0.  1.
<mgrwt>
<rscale>  2 0.46439475E+03</rscale>
<asrwt>0</asrwt>
<pdfrwt beam="2">  1        1 0.36761757E-01 0.46439475E+03</pdfrwt>
<pdfrwt beam="1">  1       -1 0.14983566E+00 0.46439475E+03</pdfrwt>
<totfact> 0.43363374E+01</totfact>
</mgrwt>
</event>
<event>
12    1  0.5759937E-002  0.1725937E+03  0.7546771E-02  0.1175170E+00
          2   -1    0    0  503    0  0.00000000000E+00  0.00000000000E+00  0.57543850783E+03  0.57543850783E+03  0.00000000000E+00 0.  1.
         -2   -1    0    0    0  501 -0.00000000000E+00 -0.00000000000E+00 -0.52664693503E+02  0.52664693503E+02  0.00000000000E+00 0. -1.
          6    2    1    2  503    0 -0.17229716381E+02 -0.17062670154E+02  0.22285416394E+03  0.28285617148E+03  0.17249822468E+03 0.  0.
         24    2    3    3    0    0  0.15110208293E+02  0.41074804323E+02  0.68489288069E+02  0.11470016781E+03  0.80931378160E+02 0.  0.
         -6    2    1    2    0  501  0.17229716381E+02  0.17062670154E+02  0.29991965039E+03  0.34524702986E+03  0.16927999615E+03 0.  0.
        -24    2    5    5    0    0  0.27672496450E+02  0.71421530306E+02  0.23147214460E+03  0.25709325296E+03  0.81552344793E+02 0.  0.
          2    1    4    4  502    0  0.32108645627E+02  0.20520576057E+02 -0.31703814954E+01  0.38237553329E+02  0.00000000000E+00 0. -1.
         -1    1    4    4    0  502 -0.16998437334E+02  0.20554228265E+02  0.71659669564E+02  0.76462614482E+02  0.00000000000E+00 0.  1.
          5    1    3    3  503    0 -0.32339924674E+02 -0.58137474477E+02  0.15436487587E+03  0.16815600367E+03  0.47000000000E+01 0. -1.
         13    1    6    6    0    0  0.13972240416E+02  0.87717634631E+02  0.20264274399E+03  0.22125480474E+03  0.00000000000E+00 0. -1.
        -14    1    6    6    0    0  0.13700256033E+02 -0.16296104325E+02  0.28829400611E+02  0.35838448224E+02  0.00000000000E+00 0.  1.
         -5    1    5    5    0  501 -0.10442780069E+02 -0.54358860152E+02  0.68447505791E+02  0.88153776899E+02  0.47000000000E+01 0.  1.
<mgrwt>
<rscale>  2 0.17259374E+03</rscale>
<asrwt>0</asrwt>
<pdfrwt beam="1">  1        2 0.88528997E-01 0.17259374E+03</pdfrwt>
<pdfrwt beam="2">  1       -2 0.81022609E-02 0.17259374E+03</pdfrwt>
<totfact> 0.48017728E+03</totfact>
</mgrwt>
</event>
<event>
12    1  0.5759937E-002  0.1796431E+03  0.7546771E-02  0.1168149E+00
          2   -1    0    0  503    0  0.00000000000E+00  0.00000000000E+00  0.28519717386E+03  0.28519717386E+03  0.00000000000E+00 0.  1.
         -2   -1    0    0    0  501 -0.00000000000E+00 -0.00000000000E+00 -0.27841434806E+03  0.27841434806E+03  0.00000000000E+00 0. -1.
          6    2    1    2  503    0 -0.43384371569E+02  0.29688437315E+02  0.22049783486E+03  0.28399025542E+03  0.17107765193E+03 0.  0.
         24    2    3    3    0    0  0.76530236947E+01 -0.14019277162E+02  0.44718818174E+02  0.95746974729E+02  0.83142056548E+02 0.  0.
         -6    2    1    2    0  501  0.43384371569E+02 -0.29688437315E+02 -0.21371500906E+03  0.27962126649E+03  0.17248287036E+03 0.  0.
        -24    2    5    5    0    0 -0.47701074970E+01  0.43659401096E+02 -0.11444902155E+03  0.14705209386E+03  0.81220948944E+02 0.  0.
          4    1    4    4  502    0 -0.92316233665E+01  0.25237152215E+02 -0.78541637379E+01  0.27996867859E+02  0.00000000000E+00 0. -1.
         -3    1    4    4    0  502  0.16884647061E+02 -0.39256429376E+02  0.52572981912E+02  0.67750106870E+02  0.00000000000E+00 0.  1.
          5    1    3    3  503    0 -0.51037395264E+02  0.43707714477E+02  0.17577901668E+03  0.18824328069E+03  0.47000000000E+01 0. -1.
         11    1    6    6    0    0  0.27062012907E+02 -0.49588159425E+01 -0.65600979938E+02  0.71136706185E+02  0.00000000000E+00 0. -1.
        -12    1    6    6    0    0 -0.31832120404E+02  0.48618217038E+02 -0.48848041608E+02  0.75915387678E+02  0.00000000000E+00 0.  1.
         -5    1    5    5    0  501  0.48154479066E+02 -0.73347838411E+02 -0.99265987514E+02  0.13256917263E+03  0.47000000000E+01 0.  1.
<mgrwt>
<rscale>  2 0.17964314E+03</rscale>
<asrwt>0</asrwt>
<pdfrwt beam="1">  1        2 0.43876488E-01 0.17964314E+03</pdfrwt>
<pdfrwt beam="2">  1       -2 0.42832977E-01 0.17964314E+03</pdfrwt>
<totfact> 0.60363818E+02</totfact>
</mgrwt>
</event>
<event>
12    1  0.5759937E-002  0.1745847E+03  0.7546771E-02  0.1173149E+00
          3   -1    0    0  503    0  0.00000000000E+00  0.00000000000E+00  0.59833978564E+03  0.59833978564E+03  0.00000000000E+00 0.  1.
         -3   -1    0    0    0  501 -0.00000000000E+00 -0.00000000000E+00 -0.12818559540E+03  0.12818559540E+03  0.00000000000E+00 0. -1.
          6    2    1    2  503    0 -0.12693853963E+02 -0.19081003335E+02 -0.47666017741E+02  0.17960816552E+03  0.17164447342E+03 0.  0.
         24    2    3    3    0    0 -0.45360348087E+02  0.32926441042E+02 -0.62227157716E+02  0.11631526776E+03  0.80717474308E+02 0.  0.
         -6    2    1    2    0  501  0.12693853963E+02  0.19081003335E+02  0.51782020798E+03  0.54691721551E+03  0.17451491115E+03 0.  0.
        -24    2    5    5    0    0 -0.31342624466E+02 -0.32905964642E+02  0.18198992892E+03  0.20421337456E+03  0.80731688339E+02 0.  0.
          4    1    4    4  502    0 -0.48949022230E+02  0.26307004206E+02 -0.79773959131E+02  0.97221138663E+02  0.00000000000E+00 0. -1.
         -3    1    4    4    0  502  0.35886741431E+01  0.66194368363E+01  0.17546801415E+02  0.19094129098E+02  0.00000000000E+00 0.  1.
          5    1    3    3  503    0  0.32666494124E+02 -0.52007444378E+02  0.14561139975E+02  0.63292897756E+02  0.47000000000E+01 0. -1.
         13    1    6    6    0    0  0.21520563789E+01 -0.35935823307E+02  0.25415415351E+02  0.44067653453E+02  0.00000000000E+00 0. -1.
        -14    1    6    6    0    0 -0.33494680845E+02  0.30298586642E+01  0.15657451357E+03  0.16014572110E+03  0.00000000000E+00 0.  1.
         -5    1    5    5    0  501  0.44036478429E+02  0.51986967978E+02  0.33583027906E+03  0.34270384096E+03  0.47000000000E+01 0.  1.
<mgrwt>
<rscale>  2 0.17458468E+03</rscale>
<asrwt>0</asrwt>
<pdfrwt beam="1">  1        3 0.92052273E-01 0.17458468E+03</pdfrwt>
<pdfrwt beam="2">  1       -3 0.19720861E-01 0.17458468E+03</pdfrwt>
<totfact> 0.60790200E+01</totfact>
</mgrwt>
</event>
<event>
12    1  0.5759937E-002  0.2407261E+03  0.7546771E-02  0.1119310E+00
         -2   -1    0    0    0  501 -0.00000000000E+00  0.00000000000E+00  0.13579192765E+03  0.13579192765E+03  0.00000000000E+00 0. -1.
          2   -1    0    0  503    0  0.00000000000E+00 -0.00000000000E+00 -0.75430873097E+03  0.75430873097E+03  0.00000000000E+00 0.  1.
          6    2    1    2  503    0 -0.16760429069E+03 -0.24491137029E+02 -0.60205352667E+03  0.64815094237E+03  0.17011813859E+03 0.  0.
         24    2    3    3    0    0 -0.16977072018E+03  0.24525987296E+02 -0.50660858671E+03  0.54073028115E+03  0.79456625551E+02 0.  0.
         -6    2    1    2    0  501  0.16760429069E+03  0.24491137029E+02 -0.16463276658E+02  0.24194971625E+03  0.17198142825E+03 0.  0.
        -24    2    5    5    0    0  0.16784719690E+03  0.32211311546E+02 -0.59636655113E+02  0.19783973206E+03  0.79835949602E+02 0.  0.
          4    1    4    4  502    0 -0.25753573633E+02  0.34349990660E+02 -0.14971911551E+03  0.15575295169E+03  0.00000000000E+00 0. -1.
         -3    1    4    4    0  502 -0.14401714654E+03 -0.98240033642E+01 -0.35688947120E+03  0.38497732946E+03  0.00000000000E+00 0.  1.
          5    1    3    3  503    0  0.21664294916E+01 -0.49017124326E+02 -0.95444939960E+02  0.10742066122E+03  0.47000000000E+01 0. -1.
         13    1    6    6    0    0  0.90222381288E+02 -0.16271237505E+02 -0.62619028075E+01  0.91891472303E+02  0.00000000000E+00 0. -1.
        -14    1    6    6    0    0  0.77624815610E+02  0.48482549051E+02 -0.53374752305E+02  0.10594825975E+03  0.00000000000E+00 0.  1.
         -5    1    5    5    0  501 -0.24290621205E+00 -0.77201745163E+01  0.43173378455E+02  0.44109984190E+02  0.47000000000E+01 0.  1.
<mgrwt>
<rscale>  2 0.24072606E+03</rscale>
<asrwt>0</asrwt>
<pdfrwt beam="2">  1        2 0.11604749E+00 0.24072606E+03</pdfrwt>
<pdfrwt beam="1">  1       -2 0.20891066E-01 0.24072606E+03</pdfrwt>
<totfact> 0.74841742E+02</totfact>
</mgrwt>
</event>
<event>
12    1  0.5759937E-002  0.2864243E+03  0.7546771E-02  0.1092231E+00
         -2   -1    0    0    0  501 -0.00000000000E+00  0.00000000000E+00  0.69342806462E+02  0.69342806462E+02  0.00000000000E+00 0. -1.
          2   -1    0    0  503    0  0.00000000000E+00 -0.00000000000E+00 -0.15750237743E+04  0.15750237743E+04  0.00000000000E+00 0.  1.
          6    2    1    2  503    0  0.22320523244E+03  0.48773419002E+02 -0.11631186237E+04  0.11978832387E+04  0.17285802975E+03 0.  0.
         24    2    3    3    0    0  0.51733046881E+02  0.61084877912E+02 -0.51274573530E+03  0.52515649888E+03  0.80457993973E+02 0.  0.
         -6    2    1    2    0  501 -0.22320523244E+03 -0.48773419002E+02 -0.34256234407E+03  0.44648334204E+03  0.17262384817E+03 0.  0.
        -24    2    5    5    0    0 -0.97437523467E+02 -0.88530858684E+02 -0.19076718619E+03  0.24533158196E+03  0.80397026434E+02 0.  0.
          4    1    4    4  502    0  0.20111486598E+02  0.11454614784E+02 -0.25769178539E+02  0.34637128282E+02  0.00000000000E+00 0. -1.
         -3    1    4    4    0  502  0.31621560282E+02  0.49630263127E+02 -0.48697655677E+03  0.49051937060E+03  0.00000000000E+00 0.  1.
          5    1    3    3  503    0  0.17147218556E+03 -0.12311458909E+02 -0.65037288842E+03  0.67272673979E+03  0.47000000000E+01 0. -1.
         11    1    6    6    0    0  0.99014333857E+01 -0.26840254556E+02 -0.22338481900E+02  0.36296630991E+02  0.00000000000E+00 0. -1.
        -12    1    6    6    0    0 -0.10733895685E+03 -0.61690604128E+02 -0.16842870429E+03  0.20903495097E+03  0.00000000000E+00 0.  1.
         -5    1    5    5    0  501 -0.12576770898E+03  0.39757439681E+02 -0.15179515788E+03  0.20115176009E+03  0.47000000000E+01 0.  1.
<mgrwt>
<rscale>  2 0.28642426E+03</rscale>
<asrwt>0</asrwt>
<pdfrwt beam="2">  1        2 0.24231134E+00 0.28642426E+03</pdfrwt>
<pdfrwt beam="1">  1       -2 0.10668125E-01 0.28642426E+03</pdfrwt>
<totfact> 0.74464391E+02</totfact>
</mgrwt>
</event>
<event>
12    1  0.5759937E-002  0.1732456E+03  0.7546771E-02  0.1174505E+00
          2   -1    0    0  503    0  0.00000000000E+00  0.00000000000E+00  0.10239030605E+04  0.10239030605E+04  0.00000000000E+00 0.  1.
         -2   -1    0    0    0  501 -0.00000000000E+00 -0.00000000000E+00 -0.33685589228E+02  0.33685589228E+02  0.00000000000E+00 0. -1.
          6    2    1    2  503    0  0.93779856909E+01  0.17744720982E+02  0.68362022934E+03  0.70503594592E+03  0.17127826870E+03 0.  0.
         24    2    3    3    0    0 -0.24158730725E+01  0.48666814862E+02  0.20730835744E+03  0.22755258463E+03  0.80181845788E+02 0.  0.
         -6    2    1    2    0  501 -0.93779856909E+01 -0.17744720982E+02  0.30659724190E+03  0.35255270378E+03  0.17288354018E+03 0.  0.
        -24    2    5    5    0    0 -0.99627255591E+01  0.43640116738E+02  0.25739475804E+03  0.27374017533E+03  0.81718458343E+02 0.  0.
          4    1    4    4  502    0  0.30832660405E+02  0.35085194212E+02  0.60596442009E+02  0.76508513152E+02  0.00000000000E+00 0. -1.
         -3    1    4    4    0  502 -0.33248533478E+02  0.13581620650E+02  0.14671191544E+03  0.15104407148E+03  0.00000000000E+00 0.  1.
          5    1    3    3  503    0  0.11793858763E+02 -0.30922093880E+02  0.47631187190E+03  0.47748336129E+03  0.47000000000E+01 0. -1.
         11    1    6    6    0    0  0.25206350297E+02 -0.43157631895E+01  0.13805653052E+03  0.14040509793E+03  0.00000000000E+00 0. -1.
        -12    1    6    6    0    0 -0.35169075856E+02  0.47955879928E+02  0.11933822753E+03  0.13333507740E+03  0.00000000000E+00 0.  1.
         -5    1    5    5    0  501  0.58473986819E+00 -0.61384837721E+02  0.49202483854E+02  0.78812528446E+02  0.47000000000E+01 0.  1.
<mgrwt>
<rscale>  2 0.17324558E+03</rscale>
<asrwt>0</asrwt>
<pdfrwt beam="1">  1        2 0.15752352E+00 0.17324558E+03</pdfrwt>
<pdfrwt beam="2">  1       -2 0.51823991E-02 0.17324558E+03</pdfrwt>
<totfact> 0.46389100E+03</totfact>
</mgrwt>
</event>
<event>
12    1  0.5759937E-002  0.1949940E+03  0.7546771E-02  0.1154033E+00
         -1   -1    0    0    0  501 -0.00000000000E+00  0.00000000000E+00  0.16998038382E+03  0.16998038382E+03  0.00000000000E+00 0. -1.
          1   -1    0    0  503    0  0.00000000000E+00 -0.00000000000E+00 -0.22411023935E+03  0.22411023935E+03  0.00000000000E+00 0.  1.
          6    2    1    2  503    0 -0.48586826233E+02  0.78510799351E+02 -0.35002349740E+02  0.19593287532E+03  0.16923327642E+03 0.  0.
         24    2    3    3    0    0 -0.77429885445E+02  0.47045410506E+02 -0.71056553461E+02  0.13986159599E+03  0.79395052955E+02 0.  0.
         -6    2    1    2    0  501  0.48586826233E+02 -0.78510799351E+02 -0.19127505784E+02  0.19815774784E+03  0.17428713738E+03 0.  0.
        -24    2    5    5    0    0  0.17406254979E+02 -0.85886428642E+02  0.44262687617E+02  0.12697464205E+03  0.80522778587E+02 0.  0.
          2    1    4    4  502    0 -0.67809208006E+02  0.32058055096E+02 -0.92897277918E+01  0.75578479935E+02  0.00000000000E+00 0. -1.
         -1    1    4    4    0  502 -0.96206774395E+01  0.14987355409E+02 -0.61766825670E+02  0.64283116056E+02  0.00000000000E+00 0.  1.
          5    1    3    3  503    0  0.28843059212E+02  0.31465388845E+02  0.36054203721E+02  0.56071279331E+02  0.47000000000E+01 0. -1.
         11    1    6    6    0    0 -0.21332514616E+02 -0.19963280595E+02  0.41126010779E+02  0.50447571940E+02  0.00000000000E+00 0. -1.
        -12    1    6    6    0    0  0.38738769596E+02 -0.65923148046E+02  0.31366768379E+01  0.76527070111E+02  0.00000000000E+00 0.  1.
         -5    1    5    5    0  501  0.31180571254E+02  0.73756292911E+01 -0.63390193401E+02  0.71183105794E+02  0.47000000000E+01 0.  1.
<mgrwt>
<rscale>  2 0.19499403E+03</rscale>
<asrwt>0</asrwt>
<pdfrwt beam="2">  1        1 0.34478498E-01 0.19499403E+03</pdfrwt>
<pdfrwt beam="1">  1       -1 0.26150828E-01 0.19499403E+03</pdfrwt>
<totfact> 0.16233388E+03</totfact>
</mgrwt>
</event>
<event>
12    1  0.5759937E-002  0.1945590E+03  0.7546771E-02  0.1154412E+00
          1   -1    0    0  503    0  0.00000000000E+00  0.00000000000E+00  0.33320494980E+03  0.33320494980E+03  0.00000000000E+00 0.  1.
         -1   -1    0    0    0  501 -0.00000000000E+00 -0.00000000000E+00 -0.11427815613E+03  0.11427815613E+03  0.00000000000E+00 0. -1.
          6    2    1    2  503    0 -0.22920411689E+02  0.86394591990E+02  0.12670476477E+03  0.23225358487E+03  0.17291113172E+03 0.  0.
         24    2    3    3    0    0 -0.43801995408E+02  0.77075425878E+02  0.15484655231E+03  0.19568942753E+03  0.80359574463E+02 0.  0.
         -6    2    1    2    0  501  0.22920411689E+02 -0.86394591990E+02  0.92222028898E+02  0.21522952106E+03  0.17271211111E+03 0.  0.
        -24    2    5    5    0    0 -0.32856154461E+02 -0.12072921104E+02  0.79152776821E+02  0.12127404520E+03  0.84952631800E+02 0.  0.
          2    1    4    4  502    0  0.19052372793E+02  0.93730061580E+00  0.39457898690E+02  0.43826900535E+02  0.00000000000E+00 0. -1.
         -1    1    4    4    0  502 -0.62854368201E+02  0.76138125263E+02  0.11538865362E+03  0.15186252700E+03  0.00000000000E+00 0.  1.
          5    1    3    3  503    0  0.20881583720E+02  0.93191661112E+01 -0.28141787547E+02  0.36564157340E+02  0.47000000000E+01 0. -1.
         11    1    6    6    0    0 -0.49014031583E+02  0.21542208575E+02  0.37514603349E+02  0.65374211328E+02  0.00000000000E+00 0. -1.
        -12    1    6    6    0    0  0.16157877122E+02 -0.33615129679E+02  0.41638173472E+02  0.55899833868E+02  0.00000000000E+00 0.  1.
         -5    1    5    5    0  501  0.55776566150E+02 -0.74321670886E+02  0.13069252077E+02  0.93955475863E+02  0.47000000000E+01 0.  1.
<mgrwt>
<rscale>  2 0.19455904E+03</rscale>
<asrwt>0</asrwt>
<pdfrwt beam="1">  1        1 0.51262299E-01 0.19455904E+03</pdfrwt>
<pdfrwt beam="2">  1       -1 0.17581255E-01 0.19455904E+03</pdfrwt>
<totfact> 0.18888254E+03</totfact>
</mgrwt>
</event>
<event>
12    1  0.5759937E-002  0.3103423E+03  0.7546771E-02  0.1080182E+00
         -1   -1    0    0    0  501 -0.00000000000E+00  0.00000000000E+00  0.89552162190E+03  0.89552162190E+03  0.00000000000E+00 0.  1.
          1   -1    0    0  503    0  0.00000000000E+00 -0.00000000000E+00 -0.11008783709E+03  0.11008783709E+03  0.00000000000E+00 0. -1.
          6    2    1    2  503    0 -0.53455250185E+02 -0.25258554802E+03  0.31608873694E+03  0.44281933381E+03  0.17181370708E+03 0.  0.
         24    2    3    3    0    0 -0.79112948420E+02 -0.12745808377E+03  0.15938430558E+03  0.24059775091E+03  0.99897443157E+02 0.  0.
         -6    2    1    2    0  501  0.53455250185E+02  0.25258554802E+03  0.46934504788E+03  0.56279012518E+03  0.17260077690E+03 0.  0.
        -24    2    5    5    0    0  0.76583115535E+02  0.25121283511E+03  0.37179871842E+03  0.46242001565E+03  0.81394850824E+02 0.  0.
          4    1    4    4  502    0 -0.74736567879E+01 -0.40478735834E+02 -0.48240432984E+01  0.41444601509E+02  0.00000000000E+00 0. -1.
         -3    1    4    4    0  502 -0.71639291632E+02 -0.86979347940E+02  0.16420834888E+03  0.19915314940E+03  0.00000000000E+00 0.  1.
          5    1    3    3  503    0  0.25657698235E+02 -0.12512746424E+03  0.15670443135E+03  0.20222158290E+03  0.47000000000E+01 0. -1.
         13    1    6    6    0    0  0.32088802626E+02  0.53870965901E+02  0.41828863988E+02  0.75375235214E+02  0.00000000000E+00 0. -1.
        -14    1    6    6    0    0  0.44494312909E+02  0.19734186921E+03  0.32996985444E+03  0.38704478043E+03  0.00000000000E+00 0.  1.
         -5    1    5    5    0  501 -0.23127865351E+02  0.13727129050E+01  0.97546329455E+02  0.10037010953E+03  0.47000000000E+01 0.  1.
<mgrwt>
<rscale>  2 0.31034226E+03</rscale>
<asrwt>0</asrwt>
<pdfrwt beam="2">  1        1 0.16936591E-01 0.31034226E+03</pdfrwt>
<pdfrwt beam="1">  1       -1 0.13777255E+00 0.31034226E+03</pdfrwt>
<totfact> 0.14950543E+02</totfact>
</mgrwt>
</event>
<event>
12    1  0.5759937E-002  0.1851832E+03  0.7546771E-02  0.1162879E+00
          1   -1    0    0  503    0  0.00000000000E+00  0.00000000000E+00  0.54866137622E+03  0.54866137622E+03  0.00000000000E+00 0.  1.
         -1   -1    0    0    0  501 -0.00000000000E+00 -0.00000000000E+00 -0.91349545351E+02  0.91349545351E+02  0.00000000000E+00 0. -1.
          6    2    1    2  503    0 -0.41639038463E+02  0.49105785802E+02  0.49188198915E+02  0.19201372779E+03  0.17408217894E+03 0.  0.
         24    2    3    3    0    0  0.20740375689E+01  0.31786343096E+02  0.93970231821E+02  0.12691137313E+03  0.79129128149E+02 0.  0.
         -6    2    1    2    0  501  0.41639038463E+02 -0.49105785802E+02  0.40812363196E+03  0.44799719378E+03  0.17318024989E+03 0.  0.
        -24    2    5    5    0    0  0.27201695752E+02 -0.28279288712E+01  0.38494074253E+03  0.39405636260E+03  0.79706412616E+02 0.  0.
          4    1    4    4  502    0 -0.26450389194E+02 -0.14196967240E+02  0.23855588550E+02  0.38344048722E+02  0.00000000000E+00 0. -1.
         -3    1    4    4    0  502  0.28524426763E+02  0.45983310335E+02  0.70114643271E+02  0.88567324407E+02  0.00000000000E+00 0.  1.
          5    1    3    3  503    0 -0.43713076031E+02  0.17319442706E+02 -0.44782032906E+02  0.65102354666E+02  0.47000000000E+01 0. -1.
         11    1    6    6    0    0 -0.84884439334E+01  0.16359128792E+01  0.13102041317E+01  0.87433704156E+01  0.00000000000E+00 0. -1.
        -12    1    6    6    0    0  0.35690139686E+02 -0.44638417505E+01  0.38363053839E+03  0.38531299218E+03  0.00000000000E+00 0.  1.
         -5    1    5    5    0  501  0.14437342710E+02 -0.46277856931E+02  0.23182889432E+02  0.53940831186E+02  0.47000000000E+01 0.  1.
<mgrwt>
<rscale>  2 0.18518324E+03</rscale>
<asrwt>0</asrwt>
<pdfrwt beam="1">  1        1 0.84409441E-01 0.18518324E+03</pdfrwt>
<pdfrwt beam="2">  1       -1 0.14053776E-01 0.18518324E+03</pdfrwt>
<totfact> 0.14138168E+03</totfact>
</mgrwt>
</event>
<event>
12    1  0.5759937E-002  0.2405371E+03  0.7546771E-02  0.1119436E+00
          2   -1    0    0  503    0  0.00000000000E+00  0.00000000000E+00  0.24031563421E+04  0.24031563421E+04  0.00000000000E+00 0.  1.
         -2   -1    0    0    0  501 -0.00000000000E+00 -0.00000000000E+00 -0.36086974029E+02  0.36086974029E+02  0.00000000000E+00 0. -1.
          6    2    1    2  503    0  0.15711412670E+03  0.29231653571E+02  0.46350277577E+03  0.51988315379E+03  0.17292869072E+03 0.  0.
         24    2    3    3    0    0  0.15853290375E+03 -0.25718474488E+02  0.33385426386E+03  0.37898476437E+03  0.79853995681E+02 0.  0.
         -6    2    1    2    0  501 -0.15711412670E+03 -0.29231653571E+02  0.19035665923E+04  0.19193601623E+04  0.18665026937E+03 0.  0.
        -24    2    5    5    0    0 -0.54906912052E+01  0.18865803659E+02  0.83156701887E+03  0.83561286383E+03  0.79743871777E+02 0.  0.
          4    1    4    4  502    0  0.14410553034E+03  0.39292431527E+01  0.29249937957E+03  0.32609466398E+03  0.00000000000E+00 0. -1.
         -3    1    4    4    0  502  0.14427373406E+02 -0.29647717641E+02  0.41354884290E+02  0.52890100391E+02  0.00000000000E+00 0.  1.
          5    1    3    3  503    0 -0.14187770492E+01  0.54950128059E+02  0.12964851191E+03  0.14089838942E+03  0.47000000000E+01 0. -1.
         11    1    6    6    0    0  0.36273837785E+01  0.13197722888E+02  0.21578964731E+02  0.25553659647E+02  0.00000000000E+00 0. -1.
        -12    1    6    6    0    0 -0.91180749837E+01  0.56680807712E+01  0.80998805414E+03  0.81005920419E+03  0.00000000000E+00 0.  1.
         -5    1    5    5    0  501 -0.15162343549E+03 -0.48097457230E+02  0.10719995734E+04  0.10837472985E+04  0.47000000000E+01 0.  1.
<mgrwt>
<rscale>  2 0.24053710E+03</rscale>
<asrwt>0</asrwt>
<pdfrwt beam="1">  1        2 0.36971624E+00 0.24053710E+03</pdfrwt>
<pdfrwt beam="2">  1       -2 0.55518440E-02 0.24053710E+03</pdfrwt>
<totfact> 0.75971078E+02</totfact>
</mgrwt>
</event>
<event>
12    1  0.5759937E-002  0.2025394E+03  0.7546771E-02  0.1147614E+00
         -2   -1    0    0    0  501 -0.00000000000E+00  0.00000000000E+00  0.95399625911E+02  0.95399625911E+02  0.00000000000E+00 0.  1.
          2   -1    0    0  503    0  0.00000000000E+00 -0.00000000000E+00 -0.18930365662E+04  0.18930365662E+04  0.00000000000E+00 0. -1.
          6    2    1    2  503    0 -0.94903576174E+02  0.17979096951E+02 -0.29121772469E+02  0.20882967974E+03  0.18284370596E+03 0.  0.
         24    2    3    3    0    0 -0.36946378228E+02  0.31407702710E+02  0.52854742845E+02  0.10743143858E+03  0.79977568734E+02 0.  0.
         -6    2    1    2    0  501  0.94903576174E+02 -0.17979096951E+02 -0.17685151678E+04  0.17796065123E+04  0.17327291589E+03 0.  0.
        -24    2    5    5    0    0  0.14792539165E+02 -0.54081458332E+02 -0.61168896528E+03  0.61943837299E+03  0.79980524779E+02 0.  0.
          4    1    4    4  502    0 -0.23449114169E+02  0.18310170560E+02 -0.17561035315E+02  0.34547261289E+02  0.00000000000E+00 0. -1.
         -3    1    4    4    0  502 -0.13497264059E+02  0.13097532151E+02  0.70415778160E+02  0.72884177291E+02  0.00000000000E+00 0.  1.
          5    1    3    3  503    0 -0.57957197947E+02 -0.13428605759E+02 -0.81976515314E+02  0.10139824116E+03  0.47000000000E+01 0. -1.
         11    1    6    6    0    0  0.29114047901E+02 -0.34095881433E+02 -0.56404614625E+03  0.56582524865E+03  0.00000000000E+00 0. -1.
        -12    1    6    6    0    0 -0.14321508736E+02 -0.19985576899E+02 -0.47642819033E+02  0.53613124343E+02  0.00000000000E+00 0.  1.
         -5    1    5    5    0  501  0.80111037009E+02  0.36102361381E+02 -0.11568262025E+04  0.11601681393E+04  0.47000000000E+01 0.  1.
<mgrwt>
<rscale>  2 0.20253942E+03</rscale>
<asrwt>0</asrwt>
<pdfrwt beam="2">  1        2 0.29123640E+00 0.20253942E+03</pdfrwt>
<pdfrwt beam="1">  1       -2 0.14676866E-01 0.20253942E+03</pdfrwt>
<totfact> 0.30641588E+02</totfact>
</mgrwt>
</event>
<event>
12    1  0.5759937E-002  0.2012163E+03  0.7546771E-02  0.1148717E+00
         -1   -1    0    0    0  501 -0.00000000000E+00  0.00000000000E+00  0.17710828130E+03  0.17710828130E+03  0.00000000000E+00 0.  1.
          1   -1    0    0  503    0  0.00000000000E+00 -0.00000000000E+00 -0.24927884976E+03  0.24927884976E+03  0.00000000000E+00 0. -1.
          6    2    1    2  503    0  0.88975962423E+02  0.50258666732E+02 -0.97540356274E+02  0.22394742569E+03  0.17376902170E+03 0.  0.
         24    2    3    3    0    0 -0.38669252565E+01  0.16973413242E+02 -0.94817712818E+02  0.12516882133E+03  0.79835990008E+02 0.  0.
         -6    2    1    2    0  501 -0.88975962423E+02 -0.50258666732E+02  0.25369787814E+02  0.20243970536E+03  0.17290330448E+03 0.  0.
        -24    2    5    5    0    0 -0.16033706626E+02  0.31963409061E+02  0.22838400656E+02  0.92396348679E+02  0.82077728025E+02 0.  0.
          2    1    4    4  502    0 -0.22679017216E+01  0.88540186484E+01 -0.10865880594E+03  0.10904252901E+03  0.00000000000E+00 0. -1.
         -1    1    4    4    0  502 -0.15990235349E+01  0.81193945937E+01  0.13841093127E+02  0.16126292314E+02  0.00000000000E+00 0.  1.
          5    1    3    3  503    0  0.92842887680E+02  0.33285253490E+02 -0.27226434563E+01  0.98778604364E+02  0.47000000000E+01 0. -1.
         13    1    6    6    0    0 -0.48451962922E+02  0.11674211347E+02  0.46718646371E+01  0.50057029883E+02  0.00000000000E+00 0. -1.
        -14    1    6    6    0    0  0.32418256296E+02  0.20289197714E+02  0.18166536019E+02  0.42339318796E+02  0.00000000000E+00 0.  1.
         -5    1    5    5    0  501 -0.72942255797E+02 -0.82222075793E+02  0.25313871579E+01  0.11004335668E+03  0.47000000000E+01 0.  1.
<mgrwt>
<rscale>  2 0.20121628E+03</rscale>
<asrwt>0</asrwt>
<pdfrwt beam="2">  1        1 0.38350592E-01 0.20121628E+03</pdfrwt>
<pdfrwt beam="1">  1       -1 0.27247428E-01 0.20121628E+03</pdfrwt>
<totfact> 0.13274979E+03</totfact>
</mgrwt>
</event>
<event>
12    1  0.5759937E-002  0.1728264E+03  0.7546771E-02  0.1174932E+00
          2   -1    0    0  503    0  0.00000000000E+00  0.00000000000E+00  0.17070660680E+04  0.17070660680E+04  0.00000000000E+00 0.  1.
         -2   -1    0    0    0  501 -0.00000000000E+00 -0.00000000000E+00 -0.54497960377E+02  0.54497960377E+02  0.00000000000E+00 0. -1.
          6    2    1    2  503    0  0.22291261531E+01  0.55649253556E+01  0.10178574783E+03  0.20127008774E+03  0.17353204995E+03 0.  0.
         24    2    3    3    0    0 -0.10591598089E+02 -0.14436697058E+02  0.13561038967E+03  0.15966921919E+03  0.82361894086E+02 0.  0.
         -6    2    1    2    0  501 -0.22291261531E+01 -0.55649253556E+01  0.15507823598E+04  0.15602939407E+04  0.17191659702E+03 0.  0.
        -24    2    5    5    0    0  0.11807679413E+02  0.22142688639E+02  0.38783311132E+03  0.39692048885E+03  0.80632699820E+02 0.  0.
          4    1    4    4  502    0 -0.42675604764E+02  0.77715407470E+01  0.54451893921E+02  0.69617618741E+02  0.00000000000E+00 0. -1.
         -3    1    4    4    0  502  0.32084006675E+02 -0.22208237805E+02  0.81158495747E+02  0.90051600444E+02  0.00000000000E+00 0.  1.
          5    1    3    3  503    0  0.12820724242E+02  0.20001622414E+02 -0.33824641839E+02  0.41600868558E+02  0.47000000000E+01 0. -1.
         11    1    6    6    0    0  0.12347796930E+00  0.52173774147E+02  0.24629635162E+03  0.25176181358E+03  0.00000000000E+00 0. -1.
        -12    1    6    6    0    0  0.11684201444E+02 -0.30031085508E+02  0.14153675970E+03  0.14515867527E+03  0.00000000000E+00 0.  1.
         -5    1    5    5    0  501 -0.14036805566E+02 -0.27707613995E+02  0.11629492485E+04  0.11633734518E+04  0.47000000000E+01 0.  1.
<mgrwt>
<rscale>  2 0.17282644E+03</rscale>
<asrwt>0</asrwt>
<pdfrwt beam="1">  1        2 0.26262551E+00 0.17282644E+03</pdfrwt>
<pdfrwt beam="2">  1       -2 0.83843029E-02 0.17282644E+03</pdfrwt>
<totfact> 0.94226499E+02</totfact>
</mgrwt>
</event>
<event>
12    1  0.5759937E-002  0.2161488E+03  0.7546771E-02  0.1136787E+00
          2   -1    0    0  503    0  0.00000000000E+00  0.00000000000E+00  0.24763237818E+04  0.24763237818E+04  0.00000000000E+00 0. -1.
         -2   -1    0    0    0  501 -0.00000000000E+00 -0.00000000000E+00 -0.21698349206E+02  0.21698349206E+02  0.00000000000E+00 0.  1.
          6    2    1    2  503    0  0.93890318641E+02 -0.89575683006E+02  0.78153093194E+03  0.81116186628E+03  0.17422336467E+03 0.  0.
         24    2    3    3    0    0  0.67503450476E+02  0.54201084309E+00  0.23295611561E+03  0.25458852460E+03  0.77393510409E+02 0.  0.
         -6    2    1    2    0  501 -0.93890318641E+02  0.89575683006E+02  0.16730945007E+04  0.16868602647E+04  0.17150262299E+03 0.  0.
        -24    2    5    5    0    0 -0.95184604313E+02 -0.14977163377E+00  0.91060310636E+03  0.91909236442E+03  0.80452630050E+02 0.  0.
          4    1    4    4  502    0 -0.36240124485E+01  0.10061237486E+02 -0.14117188897E+00  0.10694947194E+02  0.00000000000E+00 0. -1.
         -3    1    4    4    0  502  0.71127462925E+02 -0.95192266430E+01  0.23309728750E+03  0.24389357740E+03  0.00000000000E+00 0.  1.
          5    1    3    3  503    0  0.26386868165E+02 -0.90117693849E+02  0.54857481633E+03  0.55657334168E+03  0.47000000000E+01 0. -1.
         11    1    6    6    0    0 -0.57123314605E+02  0.23237109848E+01  0.80108730544E+03  0.80312473728E+03  0.00000000000E+00 0. -1.
        -12    1    6    6    0    0 -0.38061289708E+02 -0.24734826186E+01  0.10951580092E+03  0.11596762713E+03  0.00000000000E+00 0.  1.
         -5    1    5    5    0  501  0.12942856719E+01  0.89725454640E+02  0.76249139429E+03  0.76776790032E+03  0.47000000000E+01 0.  1.
<mgrwt>
<rscale>  2 0.21614878E+03</rscale>
<asrwt>0</asrwt>
<pdfrwt beam="1">  1        2 0.38097267E+00 0.21614878E+03</pdfrwt>
<pdfrwt beam="2">  1       -2 0.33382095E-02 0.21614878E+03</pdfrwt>
<totfact> 0.15013620E+03</totfact>
</mgrwt>
</event>
<event>
12    1  0.5759937E-002  0.1725339E+03  0.7546771E-02  0.1175231E+00
         -2   -1    0    0    0  501 -0.00000000000E+00  0.00000000000E+00  0.72210836451E+02  0.72210836451E+02  0.00000000000E+00 0.  1.
          2   -1    0    0  503    0  0.00000000000E+00 -0.00000000000E+00 -0.45024250056E+03  0.45024250056E+03  0.00000000000E+00 0. -1.
          6    2    1    2  503    0 -0.70001192933E+00 -0.21094092410E+01 -0.11276477414E+03  0.20581864671E+03  0.17216411190E+03 0.  0.
         24    2    3    3    0    0  0.25159602244E+01 -0.12432573640E+02  0.77079831588E+01  0.84770369359E+02  0.83460790637E+02 0.  0.
         -6    2    1    2    0  501  0.70001192933E+00  0.21094092410E+01 -0.26526688997E+03  0.31663469029E+03  0.17287586460E+03 0.  0.
        -24    2    5    5    0    0 -0.13468491865E+02  0.46426786284E+02 -0.75159983884E+02  0.12086058029E+03  0.81372046381E+02 0.  0.
          2    1    4    4  502    0 -0.24786231234E+02  0.25859820174E+02  0.11416364006E+02  0.37595490758E+02  0.00000000000E+00 0. -1.
         -1    1    4    4    0  502  0.27302191458E+02 -0.38292393815E+02 -0.37083808473E+01  0.47174878601E+02  0.00000000000E+00 0.  1.
          5    1    3    3  503    0 -0.32159721538E+01  0.10323164399E+02 -0.12047275730E+03  0.12104827736E+03  0.47000000000E+01 0. -1.
         13    1    6    6    0    0  0.83102185741E+01  0.19784359349E+02 -0.82864065644E+02  0.85597511545E+02  0.00000000000E+00 0. -1.
        -14    1    6    6    0    0 -0.21778710439E+02  0.26642426935E+02  0.77040817604E+01  0.35263068742E+02  0.00000000000E+00 0.  1.
         -5    1    5    5    0  501  0.14168503794E+02 -0.44317377043E+02 -0.19010690608E+03  0.19577411001E+03  0.47000000000E+01 0.  1.
<mgrwt>
<rscale>  2 0.17253394E+03</rscale>
<asrwt>0</asrwt>
<pdfrwt beam="2">  1        2 0.69268076E-01 0.17253394E+03</pdfrwt>
<pdfrwt beam="1">  1       -2 0.11109360E-01 0.17253394E+03</pdfrwt>
<totfact> 0.38383891E+03</totfact>
</mgrwt>
</event>
<event>
12    1  0.5759937E-002  0.1953465E+03  0.7546771E-02  0.1153726E+00
         -2   -1    0    0    0  501 -0.00000000000E+00  0.00000000000E+00  0.33195175752E+03  0.33195175752E+03  0.00000000000E+00 0.  1.
          2   -1    0    0  503    0  0.00000000000E+00 -0.00000000000E+00 -0.12516110901E+03  0.12516110901E+03  0.00000000000E+00 0. -1.
          6    2    1    2  503    0  0.14359436618E+01 -0.91714752257E+02  0.38317065934E+02  0.19943150545E+03  0.17289034128E+03 0.  0.
         24    2    3    3    0    0  0.10533768219E+02 -0.22618140515E+02  0.80313587292E+02  0.11792745664E+03  0.82668447266E+02 0.  0.
         -6    2    1    2    0  501 -0.14359436618E+01  0.91714752257E+02  0.16847358258E+03  0.25768136107E+03  0.17205428824E+03 0.  0.
        -24    2    5    5    0    0 -0.12778956913E+02 -0.19958298999E+02  0.80268215305E+02  0.11484645238E+03  0.78645316432E+02 0.  0.
          2    1    4    4  502    0 -0.16550068722E+02 -0.10054036465E+02 -0.10712403413E+02  0.22130160660E+02  0.00000000000E+00 0. -1.
         -1    1    4    4    0  502  0.27083836941E+02 -0.12564104050E+02  0.91025990705E+02  0.95797295984E+02  0.00000000000E+00 0.  1.
          5    1    3    3  503    0 -0.90978245569E+01 -0.69096611742E+02 -0.41996521358E+02  0.81504048808E+02  0.47000000000E+01 0. -1.
         11    1    6    6    0    0  0.64835627756E+01  0.53112425065E+00 -0.14554101722E+02  0.15941786480E+02  0.00000000000E+00 0. -1.
        -12    1    6    6    0    0 -0.19262519688E+02 -0.20489423250E+02  0.94822317027E+02  0.98904665898E+02  0.00000000000E+00 0.  1.
         -5    1    5    5    0  501  0.11343013251E+02  0.11167305126E+03  0.88205367270E+02  0.14283490869E+03  0.47000000000E+01 0.  1.
<mgrwt>
<rscale>  2 0.19534651E+03</rscale>
<asrwt>0</asrwt>
<pdfrwt beam="2">  1        2 0.19255555E-01 0.19534651E+03</pdfrwt>
<pdfrwt beam="1">  1       -2 0.51069501E-01 0.19534651E+03</pdfrwt>
<totfact> 0.10596552E+03</totfact>
</mgrwt>
</event>
<event>
12    1  0.5759937E-002  0.1929598E+03  0.7546771E-02  0.1155819E+00
         -2   -1    0    0    0  501 -0.00000000000E+00  0.00000000000E+00  0.18301271982E+02  0.18301271982E+02  0.00000000000E+00 0. -1.
          2   -1    0    0  503    0  0.00000000000E+00 -0.00000000000E+00 -0.20409087331E+04  0.20409087331E+04  0.00000000000E+00 0.  1.
          6    2    1    2  503    0 -0.51848620433E+02  0.70174374367E+02 -0.10656314218E+04  0.10828457443E+04  0.17138219492E+03 0.  0.
         24    2    3    3    0    0  0.12526549937E+02 -0.61875584894E+01 -0.32190680846E+03  0.33243006101E+03  0.81795793297E+02 0.  0.
         -6    2    1    2    0  501  0.51848620433E+02 -0.70174374367E+02 -0.95697603938E+03  0.97636426076E+03  0.17283317821E+03 0.  0.
        -24    2    5    5    0    0  0.84698050858E+02 -0.55758936877E+02 -0.45721758621E+03  0.47529790644E+03  0.81100923969E+02 0.  0.
          4    1    4    4  502    0  0.39339462127E+02  0.10780916925E+02 -0.25660898981E+03  0.25983070469E+03  0.00000000000E+00 0. -1.
         -3    1    4    4    0  502 -0.26812912190E+02 -0.16968475414E+02 -0.65297818646E+02  0.72599356319E+02  0.00000000000E+00 0.  1.
          5    1    3    3  503    0 -0.64375170370E+02  0.76361932857E+02 -0.74372461330E+03  0.75041568332E+03  0.47000000000E+01 0. -1.
         11    1    6    6    0    0  0.35326817395E+02  0.17147409148E+02 -0.10114862435E+03  0.10850374130E+03  0.00000000000E+00 0. -1.
        -12    1    6    6    0    0  0.49371233463E+02 -0.72906346025E+02 -0.35606896186E+03  0.36679416514E+03  0.00000000000E+00 0.  1.
         -5    1    5    5    0  501 -0.32849430425E+02 -0.14415437490E+02 -0.49975845317E+03  0.50106635432E+03  0.47000000000E+01 0.  1.
<mgrwt>
<rscale>  2 0.19295975E+03</rscale>
<asrwt>0</asrwt>
<pdfrwt beam="2">  1        2 0.31398591E+00 0.19295975E+03</pdfrwt>
<pdfrwt beam="1">  1       -2 0.28155807E-02 0.19295975E+03</pdfrwt>
<totfact> 0.32945033E+03</totfact>
</mgrwt>
</event>
<event>
12    1  0.5759937E-002  0.2493034E+03  0.7546771E-02  0.1113746E+00
         -1   -1    0    0    0  501 -0.00000000000E+00  0.00000000000E+00  0.22566158704E+03  0.22566158704E+03  0.00000000000E+00 0.  1.
          1   -1    0    0  503    0  0.00000000000E+00 -0.00000000000E+00 -0.27642546801E+03  0.27642546801E+03  0.00000000000E+00 0. -1.
          6    2    1    2  503    0  0.12837305258E+03  0.12490916950E+03 -0.10324802912E+02  0.25008046025E+03  0.17421737511E+03 0.  0.
         24    2    3    3    0    0  0.11452375120E+03  0.13229837461E+03 -0.56678026128E+02  0.20091629847E+03  0.80848072537E+02 0.  0.
         -6    2    1    2    0  501 -0.12837305258E+03 -0.12490916950E+03 -0.40439078062E+02  0.25200659481E+03  0.17259798242E+03 0.  0.
        -24    2    5    5    0    0 -0.64990371601E+02 -0.10169394404E+03 -0.87564813748E+02  0.16954911543E+03  0.80708731131E+02 0.  0.
          4    1    4    4  502    0  0.12630779267E+03  0.11014302242E+03 -0.51175857941E+02  0.17522588940E+03  0.00000000000E+00 0. -1.
         -3    1    4    4    0  502 -0.11784041471E+02  0.22155352183E+02 -0.55021681869E+01  0.25690409076E+02  0.00000000000E+00 0.  1.
          5    1    3    3  503    0  0.13849301381E+02 -0.73892051068E+01  0.46353223216E+02  0.49164161779E+02  0.47000000000E+01 0. -1.
         11    1    6    6    0    0 -0.92374909908E+01  0.13967945827E+02 -0.11440287654E+02  0.20280900672E+02  0.00000000000E+00 0. -1.
        -12    1    6    6    0    0 -0.55752880610E+02 -0.11566188986E+03 -0.76124526093E+02  0.14926821476E+03  0.00000000000E+00 0.  1.
         -5    1    5    5    0  501 -0.63382680981E+02 -0.23215225463E+02  0.47125735686E+02  0.82457479379E+02  0.47000000000E+01 0.  1.
<mgrwt>
<rscale>  2 0.24930340E+03</rscale>
<asrwt>0</asrwt>
<pdfrwt beam="2">  1        1 0.42526995E-01 0.24930340E+03</pdfrwt>
<pdfrwt beam="1">  1       -1 0.34717167E-01 0.24930340E+03</pdfrwt>
<totfact> 0.77298902E+02</totfact>
</mgrwt>
</event>
<event>
12    1  0.5759937E-002  0.2085241E+03  0.7546771E-02  0.1142740E+00
         -1   -1    0    0    0  501 -0.00000000000E+00  0.00000000000E+00  0.24681276934E+03  0.24681276934E+03  0.00000000000E+00 0. -1.
          1   -1    0    0  503    0  0.00000000000E+00 -0.00000000000E+00 -0.25234716829E+03  0.25234716829E+03  0.00000000000E+00 0.  1.
          6    2    1    2  503    0  0.11678000199E+03  0.49453409306E+01 -0.13989379294E+03  0.25209814645E+03  0.17412977023E+03 0.  0.
         24    2    3    3    0    0  0.20843421101E+01  0.19141760156E+02 -0.10095763371E+03  0.13005410846E+03  0.79692382689E+02 0.  0.
         -6    2    1    2    0  501 -0.11678000199E+03 -0.49453409306E+01  0.13435939399E+03  0.24706179119E+03  0.17124560330E+03 0.  0.
        -24    2    5    5    0    0 -0.70662099498E+02  0.36952801730E+02  0.14465271369E+03  0.18373440597E+03  0.80469140027E+02 0.  0.
          4    1    4    4  502    0 -0.22553681401E+02 -0.11791756689E+02 -0.82642413897E+02  0.86472438645E+02  0.00000000000E+00 0. -1.
         -3    1    4    4    0  502  0.24638023511E+02  0.30933516844E+02 -0.18315219813E+02  0.43581669813E+02  0.00000000000E+00 0.  1.
          5    1    3    3  503    0  0.11469565988E+03 -0.14196419225E+02 -0.38936159229E+02  0.12204403799E+03  0.47000000000E+01 0. -1.
         13    1    6    6    0    0  0.86407278203E+01  0.30920378615E+02  0.28301249052E+02  0.42798279041E+02  0.00000000000E+00 0. -1.
        -14    1    6    6    0    0 -0.79302827319E+02  0.60324231150E+01  0.11635146464E+03  0.14093612692E+03  0.00000000000E+00 0.  1.
         -5    1    5    5    0  501 -0.46117902490E+02 -0.41898142661E+02 -0.10293319697E+02  0.63327385221E+02  0.47000000000E+01 0.  1.
<mgrwt>
<rscale>  2 0.20852407E+03</rscale>
<asrwt>0</asrwt>
<pdfrwt beam="2">  1        1 0.38822641E-01 0.20852407E+03</pdfrwt>
<pdfrwt beam="1">  1       -1 0.37971195E-01 0.20852407E+03</pdfrwt>
<totfact> 0.74057576E+02</totfact>
</mgrwt>
</event>
<event>
12    1  0.5759937E-002  0.1821608E+03  0.7546771E-02  0.1165728E+00
         -2   -1    0    0    0  501 -0.00000000000E+00  0.00000000000E+00  0.35711020934E+02  0.35711020934E+02  0.00000000000E+00 0. -1.
          2   -1    0    0  503    0  0.00000000000E+00 -0.00000000000E+00 -0.13395839473E+04  0.13395839473E+04  0.00000000000E+00 0.  1.
          6    2    1    2  503    0 -0.43411442188E+02 -0.40536712149E+02 -0.10329699624E+04  0.10489385411E+04  0.17238718474E+03 0.  0.
         24    2    3    3    0    0  0.31115689953E+00 -0.65113346651E+02 -0.91027068596E+03  0.91630039022E+03  0.82303333219E+02 0.  0.
         -6    2    1    2    0  501  0.43411442188E+02  0.40536712149E+02 -0.27090296397E+03  0.32635642713E+03  0.17202419393E+03 0.  0.
        -24    2    5    5    0    0 -0.63836155997E+01  0.54309319441E+02 -0.73942626644E+02  0.12267850252E+03  0.81192673439E+02 0.  0.
          4    1    4    4  502    0 -0.13204037678E+02 -0.80229751290E+02 -0.61779458118E+03  0.62312222247E+03  0.00000000000E+00 0. -1.
         -3    1    4    4    0  502  0.13515194577E+02  0.15116404640E+02 -0.29247610478E+03  0.29317816775E+03  0.00000000000E+00 0.  1.
          5    1    3    3  503    0 -0.43722599088E+02  0.24576634501E+02 -0.12269927646E+03  0.13263815091E+03  0.47000000000E+01 0. -1.
         11    1    6    6    0    0  0.33075170781E+02  0.37210383618E+01 -0.30933489251E+02  0.45438901901E+02  0.00000000000E+00 0. -1.
        -12    1    6    6    0    0 -0.39458786380E+02  0.50588281079E+02 -0.43009137393E+02  0.77239600623E+02  0.00000000000E+00 0.  1.
         -5    1    5    5    0  501  0.49795057788E+02 -0.13772607292E+02 -0.19696033733E+03  0.20367792460E+03  0.47000000000E+01 0.  1.
<mgrwt>
<rscale>  2 0.18216079E+03</rscale>
<asrwt>0</asrwt>
<pdfrwt beam="2">  1        2 0.20608983E+00 0.18216079E+03</pdfrwt>
<pdfrwt beam="1">  1       -2 0.54940034E-02 0.18216079E+03</pdfrwt>
<totfact> 0.28182606E+03</totfact>
</mgrwt>
</event>
<event>
12    1  0.5759937E-002  0.2065694E+03  0.7546771E-02  0.1144312E+00
          2   -1    0    0  503    0  0.00000000000E+00  0.00000000000E+00  0.12307778710E+04  0.12307778710E+04  0.00000000000E+00 0. -1.
         -2   -1    0    0    0  501 -0.00000000000E+00 -0.00000000000E+00 -0.74428170534E+02  0.74428170534E+02  0.00000000000E+00 0.  1.
          6    2    1    2  503    0  0.51052641334E+02  0.10200433641E+03  0.10199300703E+03  0.23092039203E+03  0.17294622614E+03 0.  0.
         24    2    3    3    0    0  0.15033945747E+02  0.78303418672E+02 -0.69649517648E+01  0.11364717804E+03  0.80682870697E+02 0.  0.
         -6    2    1    2    0  501 -0.51052641334E+02 -0.10200433641E+03  0.10543566934E+04  0.10742856495E+04  0.17149449817E+03 0.  0.
        -24    2    5    5    0    0  0.25998763398E+02 -0.44742630921E+02  0.72697820019E+03  0.73308982637E+03  0.79028800122E+02 0.  0.
          2    1    4    4  502    0  0.58144878716E+01  0.54233531424E+02 -0.42921162008E+02  0.69406846550E+02  0.00000000000E+00 0. -1.
         -1    1    4    4    0  502  0.92194578757E+01  0.24069887248E+02  0.35956210243E+02  0.44240331494E+02  0.00000000000E+00 0.  1.
          5    1    3    3  503    0  0.36018695587E+02  0.23700917743E+02  0.10895795879E+03  0.11727321398E+03  0.47000000000E+01 0. -1.
         13    1    6    6    0    0  0.66683855182E+01 -0.44298316807E+02  0.68916883341E+03  0.69062326140E+03  0.00000000000E+00 0. -1.
        -14    1    6    6    0    0  0.19330377880E+02 -0.44431411407E+00  0.37809366784E+02  0.42466564973E+02  0.00000000000E+00 0.  1.
         -5    1    5    5    0  501 -0.77051404733E+02 -0.57261705494E+02  0.32737849322E+03  0.34119582312E+03  0.47000000000E+01 0.  1.
<mgrwt>
<rscale>  2 0.20656937E+03</rscale>
<asrwt>0</asrwt>
<pdfrwt beam="1">  1        2 0.18935043E+00 0.20656937E+03</pdfrwt>
<pdfrwt beam="2">  1       -2 0.11450489E-01 0.20656937E+03</pdfrwt>
<totfact> 0.10294577E+03</totfact>
</mgrwt>
</event>
<event>
12    1  0.5759937E-002  0.1979548E+03  0.7546771E-02  0.1151476E+00
          2   -1    0    0  503    0  0.00000000000E+00  0.00000000000E+00  0.14459883441E+04  0.14459883441E+04  0.00000000000E+00 0.  1.
         -2   -1    0    0    0  501 -0.00000000000E+00 -0.00000000000E+00 -0.31308915894E+02  0.31308915894E+02  0.00000000000E+00 0. -1.
          6    2    1    2  503    0 -0.24934018346E+02  0.89269872376E+02  0.43209032556E+03  0.47467855599E+03  0.17328262085E+03 0.  0.
         24    2    3    3    0    0 -0.38462677104E+02  0.12221233319E+03  0.27877902122E+03  0.31721530196E+03  0.80576505320E+02 0.  0.
         -6    2    1    2    0  501  0.24934018346E+02 -0.89269872376E+02  0.98258910269E+03  0.10026187040E+04  0.17655623919E+03 0.  0.
        -24    2    5    5    0    0  0.20636685800E+02 -0.12916738936E+03  0.56212472486E+03  0.58021763639E+03  0.59650750312E+02 0.  0.
          2    1    4    4  502    0 -0.21574196585E+02  0.13043469424E+03  0.25086247725E+03  0.28356769547E+03  0.00000000000E+00 0. -1.
         -1    1    4    4    0  502 -0.16888480519E+02 -0.82223610475E+01  0.27916543970E+02  0.33647606493E+02  0.00000000000E+00 0.  1.
          5    1    3    3  503    0  0.13528658758E+02 -0.32942460814E+02  0.15331130433E+03  0.15746325403E+03  0.47000000000E+01 0. -1.
         13    1    6    6    0    0 -0.36552765138E+01 -0.33705427874E+02  0.63780430205E+02  0.72231296483E+02  0.00000000000E+00 0. -1.
        -14    1    6    6    0    0  0.24291962314E+02 -0.95461961484E+02  0.49834429465E+03  0.50798633991E+03  0.00000000000E+00 0.  1.
         -5    1    5    5    0  501  0.42973325463E+01  0.39897516983E+02  0.42046437783E+03  0.42240106765E+03  0.47000000000E+01 0.  1.
<mgrwt>
<rscale>  2 0.19795484E+03</rscale>
<asrwt>0</asrwt>
<pdfrwt beam="1">  1        2 0.22245969E+00 0.19795484E+03</pdfrwt>
<pdfrwt beam="2">  1       -2 0.48167574E-02 0.19795484E+03</pdfrwt>
<totfact> 0.30182731E+03</totfact>
</mgrwt>
</event>
<event>
12    1  0.5759937E-002  0.1937940E+03  0.7546771E-02  0.1155083E+00
         -2   -1    0    0    0  501 -0.00000000000E+00  0.00000000000E+00  0.16579471275E+03  0.16579471275E+03  0.00000000000E+00 0.  1.
          2   -1    0    0  503    0  0.00000000000E+00 -0.00000000000E+00 -0.30053217294E+03  0.30053217294E+03  0.00000000000E+00 0. -1.
          6    2    1    2  503    0  0.77260394475E+02 -0.26941996074E+02 -0.18212331446E+03  0.26351013963E+03  0.17196991687E+03 0.  0.
         24    2    3    3    0    0 -0.35655825099E+01  0.39178353006E+02 -0.10423261303E+03  0.13314990609E+03  0.72916412081E+02 0.  0.
         -6    2    1    2    0  501 -0.77260394475E+02  0.26941996074E+02  0.47385854269E+02  0.20281674607E+03  0.17942734907E+03 0.  0.
        -24    2    5    5    0    0 -0.71545591720E+01  0.48715463108E+02 -0.26884592149E+02  0.98283970248E+02  0.80700517036E+02 0.  0.
          4    1    4    4  502    0  0.27701255224E+01  0.53828577242E+02 -0.10405623016E+03  0.11718740700E+03  0.00000000000E+00 0. -1.
         -3    1    4    4    0  502 -0.63357080323E+01 -0.14650224236E+02 -0.17638286599E+00  0.15962499094E+02  0.00000000000E+00 0.  1.
          5    1    3    3  503    0  0.80825976985E+02 -0.66120349080E+02 -0.77890701430E+02  0.13036023353E+03  0.47000000000E+01 0. -1.
         11    1    6    6    0    0 -0.27981239080E+02  0.37314856507E+02  0.15963945970E+02  0.49297016416E+02  0.00000000000E+00 0. -1.
        -12    1    6    6    0    0  0.20826679908E+02  0.11400606601E+02 -0.42848538118E+02  0.48986953832E+02  0.00000000000E+00 0.  1.
         -5    1    5    5    0  501 -0.70105835303E+02 -0.21773467034E+02  0.74270446417E+02  0.10453277582E+03  0.47000000000E+01 0.  1.
<mgrwt>
<rscale>  2 0.19379397E+03</rscale>
<asrwt>0</asrwt>
<pdfrwt beam="2">  1        2 0.46235718E-01 0.19379397E+03</pdfrwt>
<pdfrwt beam="1">  1       -2 0.25506879E-01 0.19379397E+03</pdfrwt>
<totfact> 0.14847432E+03</totfact>
</mgrwt>
</event>
<event>
12    1  0.5759937E-002  0.4661466E+03  0.7546771E-02  0.1023013E+00
         -1   -1    0    0    0  501 -0.00000000000E+00  0.00000000000E+00  0.35725239291E+03  0.35725239291E+03  0.00000000000E+00 0. -1.
          1   -1    0    0  503    0  0.00000000000E+00 -0.00000000000E+00 -0.80235446684E+03  0.80235446684E+03  0.00000000000E+00 0.  1.
          6    2    1    2  503    0  0.37888721360E+03  0.20932826026E+03  0.62687700070E+02  0.47020965452E+03  0.17260802499E+03 0.  0.
         24    2    3    3    0    0  0.17567162349E+03  0.77303851440E+02  0.88602557446E+02  0.22644605916E+03  0.81184972610E+02 0.  0.
         -6    2    1    2    0  501 -0.37888721360E+03 -0.20932826026E+03 -0.50778977399E+03  0.68939720523E+03  0.17333265943E+03 0.  0.
        -24    2    5    5    0    0 -0.31013320534E+03 -0.99893039701E+02 -0.38930413757E+03  0.51400017792E+03  0.80481345239E+02 0.  0.
          2    1    4    4  502    0  0.15662417983E+03  0.38243327959E+02  0.51345057238E+02  0.16920402106E+03  0.00000000000E+00 0. -1.
         -1    1    4    4    0  502  0.19047443664E+02  0.39060523480E+02  0.37257500207E+02  0.57242038104E+02  0.00000000000E+00 0.  1.
          5    1    3    3  503    0  0.20321559011E+03  0.13202440882E+03 -0.25914857376E+02  0.24376359536E+03  0.47000000000E+01 0. -1.
         11    1    6    6    0    0 -0.10787301971E+02  0.58454453325E+01 -0.40653197996E+02  0.42464309982E+02  0.00000000000E+00 0. -1.
        -12    1    6    6    0    0 -0.29934590336E+03 -0.10573848503E+03 -0.34865093958E+03  0.47153586793E+03  0.00000000000E+00 0.  1.
         -5    1    5    5    0  501 -0.68754008268E+02 -0.10943522056E+03 -0.11848563642E+03  0.17539702731E+03  0.47000000000E+01 0.  1.
<mgrwt>
<rscale>  2 0.46614662E+03</rscale>
<asrwt>0</asrwt>
<pdfrwt beam="2">  1        1 0.12343915E+00 0.46614662E+03</pdfrwt>
<pdfrwt beam="1">  1       -1 0.54961907E-01 0.46614662E+03</pdfrwt>
<totfact> 0.77369871E+01</totfact>
</mgrwt>
</event>
<event>
12    1  0.5759937E-002  0.1787907E+03  0.7546771E-02  0.1168979E+00
          2   -1    0    0  503    0  0.00000000000E+00  0.00000000000E+00  0.16943379410E+04  0.16943379410E+04  0.00000000000E+00 0. -1.
         -2   -1    0    0    0  501 -0.00000000000E+00 -0.00000000000E+00 -0.19786890744E+02  0.19786890744E+02  0.00000000000E+00 0.  1.
          6    2    1    2  503    0 -0.60831977390E+01  0.45183611470E+02  0.10254109159E+04  0.10410093089E+04  0.17364985105E+03 0.  0.
         24    2    3    3    0    0  0.34503596280E+02  0.77693361024E+02  0.83448421507E+03  0.84307177646E+03  0.84731095610E+02 0.  0.
         -6    2    1    2    0  501  0.60831977390E+01 -0.45183611470E+02  0.64914013435E+03  0.67311552282E+03  0.17211341899E+03 0.  0.
        -24    2    5    5    0    0 -0.21621320040E+02  0.28958489255E+02  0.44972290458E+03  0.45851376855E+03  0.81719700615E+02 0.  0.
          4    1    4    4  502    0 -0.47198510357E+01  0.80510473421E+02  0.54915307008E+03  0.55504351874E+03  0.00000000000E+00 0. -1.
         -3    1    4    4    0  502  0.39223447316E+02 -0.28171123968E+01  0.28533114499E+03  0.28802825772E+03  0.00000000000E+00 0.  1.
          5    1    3    3  503    0 -0.40586794019E+02 -0.32509749554E+02  0.19092670080E+03  0.19793753242E+03  0.47000000000E+01 0. -1.
         11    1    6    6    0    0  0.21143095585E+02  0.38612737724E+02  0.26702041944E+03  0.27062497742E+03  0.00000000000E+00 0. -1.
        -12    1    6    6    0    0 -0.42764415624E+02 -0.96542484696E+01  0.18270248514E+03  0.18788879113E+03  0.00000000000E+00 0.  1.
         -5    1    5    5    0  501  0.27704517779E+02 -0.74142100725E+02  0.19941722977E+03  0.21460175427E+03  0.47000000000E+01 0.  1.
<mgrwt>
<rscale>  2 0.17879069E+03</rscale>
<asrwt>0</asrwt>
<pdfrwt beam="1">  1        2 0.26066726E+00 0.17879069E+03</pdfrwt>
<pdfrwt beam="2">  1       -2 0.30441384E-02 0.17879069E+03</pdfrwt>
<totfact> 0.44364483E+03</totfact>
</mgrwt>
</event>
<event>
12    1  0.5759937E-002  0.2183719E+03  0.7546771E-02  0.1135103E+00
          2   -1    0    0  503    0  0.00000000000E+00  0.00000000000E+00  0.35635811668E+03  0.35635811668E+03  0.00000000000E+00 0. -1.
         -2   -1    0    0    0  501 -0.00000000000E+00 -0.00000000000E+00 -0.14137446832E+03  0.14137446832E+03  0.00000000000E+00 0.  1.
          6    2    1    2  503    0  0.13141759288E+03  0.26188037162E+02  0.49940810023E+02  0.22399691647E+03  0.17240689392E+03 0.  0.
         24    2    3    3    0    0  0.27443729442E+02  0.54070954646E+02  0.56537710749E+02  0.11604493425E+03  0.81197830061E+02 0.  0.
         -6    2    1    2    0  501 -0.13141759288E+03 -0.26188037162E+02  0.16504283834E+03  0.27373566854E+03  0.17244036864E+03 0.  0.
        -24    2    5    5    0    0 -0.14423774152E+03 -0.53384968364E+02  0.10043886166E+03  0.20232283300E+03  0.84806148909E+02 0.  0.
          2    1    4    4  502    0 -0.20508877140E+02  0.48781437458E+02  0.26119152716E+02  0.59012310755E+02  0.00000000000E+00 0. -1.
         -1    1    4    4    0  502  0.47952606582E+02  0.52895171878E+01  0.30418558033E+02  0.57032623496E+02  0.00000000000E+00 0.  1.
          5    1    3    3  503    0  0.10397386344E+03 -0.27882917483E+02 -0.65969007256E+01  0.10795198222E+03  0.47000000000E+01 0. -1.
         13    1    6    6    0    0 -0.34990827024E+02 -0.56087966752E+02  0.32725739420E+02  0.73764435948E+02  0.00000000000E+00 0. -1.
        -14    1    6    6    0    0 -0.10924691450E+03  0.27029983881E+01  0.67713122242E+02  0.12855839705E+03  0.00000000000E+00 0.  1.
         -5    1    5    5    0  501  0.12820148644E+02  0.27196931201E+02  0.64603976675E+02  0.71412835542E+02  0.47000000000E+01 0.  1.
<mgrwt>
<rscale>  2 0.21837194E+03</rscale>
<asrwt>0</asrwt>
<pdfrwt beam="1">  1        2 0.54824326E-01 0.21837194E+03</pdfrwt>
<pdfrwt beam="2">  1       -2 0.21749918E-01 0.21837194E+03</pdfrwt>
<totfact> 0.16373082E+03</totfact>
</mgrwt>
</event>
<event>
12    1  0.5759937E-002  0.1763516E+03  0.7546771E-02  0.1171381E+00
         -2   -1    0    0    0  501 -0.00000000000E+00  0.00000000000E+00  0.19680711799E+02  0.19680711799E+02  0.00000000000E+00 0. -1.
          2   -1    0    0  503    0  0.00000000000E+00 -0.00000000000E+00 -0.18756097100E+04  0.18756097100E+04  0.00000000000E+00 0.  1.
          6    2    1    2  503    0  0.28338795694E+02 -0.89983455191E+01 -0.12985860034E+04  0.13103431646E+04  0.17259647468E+03 0.  0.
         24    2    3    3    0    0  0.67569011340E+02  0.58998042738E+01 -0.52447390871E+03  0.53508024796E+03  0.81471540131E+02 0.  0.
         -6    2    1    2    0  501 -0.28338795694E+02  0.89983455191E+01 -0.55734299476E+03  0.58494725722E+03  0.17506576579E+03 0.  0.
        -24    2    5    5    0    0 -0.79391957945E+02  0.21887658238E+02 -0.30947809544E+03  0.33150760350E+03  0.85664736356E+02 0.  0.
          4    1    4    4  502    0  0.54204700282E+02 -0.28895711954E+02 -0.22280236552E+03  0.23111470265E+03  0.00000000000E+00 0. -1.
         -3    1    4    4    0  502  0.13364311058E+02  0.34795516228E+02 -0.30167154319E+03  0.30396554530E+03  0.00000000000E+00 0.  1.
          5    1    3    3  503    0 -0.39230215645E+02 -0.14898149793E+02 -0.77411209470E+03  0.77526291660E+03  0.47000000000E+01 0. -1.
         13    1    6    6    0    0 -0.22156829981E+02 -0.30246377610E+02 -0.64709253823E+02  0.74786736817E+02  0.00000000000E+00 0. -1.
        -14    1    6    6    0    0 -0.57235127964E+02  0.52134035848E+02 -0.24476884161E+03  0.25672086668E+03  0.00000000000E+00 0.  1.
         -5    1    5    5    0  501  0.51053162251E+02 -0.12889312719E+02 -0.24786489932E+03  0.25343965371E+03  0.47000000000E+01 0.  1.
<mgrwt>
<rscale>  2 0.17635158E+03</rscale>
<asrwt>0</asrwt>
<pdfrwt beam="2">  1        2 0.28855536E+00 0.17635158E+03</pdfrwt>
<pdfrwt beam="1">  1       -2 0.30278016E-02 0.17635158E+03</pdfrwt>
<totfact> 0.36034440E+03</totfact>
</mgrwt>
</event>
<event>
12    1  0.5759937E-002  0.3460880E+03  0.7546771E-02  0.1064232E+00
         -2   -1    0    0    0  501 -0.00000000000E+00  0.00000000000E+00  0.10470147094E+03  0.10470147094E+03  0.00000000000E+00 0.  1.
          2   -1    0    0  503    0  0.00000000000E+00 -0.00000000000E+00 -0.11499001917E+04  0.11499001917E+04  0.00000000000E+00 0. -1.
          6    2    1    2  503    0 -0.24479438100E+03  0.17370746229E+03 -0.47807610678E+03  0.59037958527E+03  0.17289511098E+03 0.  0.
         24    2    3    3    0    0 -0.35897748135E+02  0.67364576063E+02 -0.13055305411E+03  0.17116487320E+03  0.80166573156E+02 0.  0.
         -6    2    1    2    0  501  0.24479438100E+03 -0.17370746229E+03 -0.56712261395E+03  0.66422207736E+03  0.17165179105E+03 0.  0.
        -24    2    5    5    0    0  0.78284795200E+02 -0.13325591888E+03 -0.26798270163E+03  0.31944889587E+03  0.79669439720E+02 0.  0.
          2    1    4    4  502    0 -0.25139706353E+02  0.61064420981E+02 -0.14048074336E+03  0.15522792146E+03  0.00000000000E+00 0. -1.
         -1    1    4    4    0  502 -0.10758041782E+02  0.63001550819E+01  0.99276892506E+01  0.15936951744E+02  0.00000000000E+00 0.  1.
          5    1    3    3  503    0 -0.20889663286E+03  0.10634288622E+03 -0.34752305268E+03  0.41921471207E+03  0.47000000000E+01 0. -1.
         13    1    6    6    0    0 -0.51804698116E+01  0.44591706043E+01 -0.38501493325E+02  0.39103535112E+02  0.00000000000E+00 0. -1.
        -14    1    6    6    0    0  0.83465265011E+02 -0.13771508949E+03 -0.22948120830E+03  0.28034536076E+03  0.00000000000E+00 0.  1.
         -5    1    5    5    0  501  0.16650958580E+03 -0.40451543403E+02 -0.29913991232E+03  0.34477318148E+03  0.47000000000E+01 0.  1.
<mgrwt>
<rscale>  2 0.34608801E+03</rscale>
<asrwt>0</asrwt>
<pdfrwt beam="2">  1        2 0.17690771E+00 0.34608801E+03</pdfrwt>
<pdfrwt beam="1">  1       -2 0.16107920E-01 0.34608801E+03</pdfrwt>
<totfact> 0.64763165E+02</totfact>
</mgrwt>
</event>
<event>
12    1  0.5759937E-002  0.2203311E+03  0.7546771E-02  0.1133636E+00
         -2   -1    0    0    0  501 -0.00000000000E+00  0.00000000000E+00  0.44057746986E+02  0.44057746986E+02  0.00000000000E+00 0. -1.
          2   -1    0    0  503    0  0.00000000000E+00 -0.00000000000E+00 -0.11427031136E+04  0.11427031136E+04  0.00000000000E+00 0.  1.
          6    2    1    2  503    0 -0.13576157354E+03  0.78967480693E+01 -0.44118574157E+03  0.49388233555E+03  0.17544611516E+03 0.  0.
         24    2    3    3    0    0 -0.13489668925E+03  0.25749682852E+01 -0.45340373853E+03  0.47972469399E+03  0.79731328075E+02 0.  0.
         -6    2    1    2    0  501  0.13576157354E+03 -0.78967480693E+01 -0.65745962502E+03  0.69287852501E+03  0.17127150496E+03 0.  0.
        -24    2    5    5    0    0  0.59095755073E+02  0.87690071826E+01 -0.15774635599E+03  0.18702198768E+03  0.80771946198E+02 0.  0.
          4    1    4    4  502    0 -0.11680062386E+03 -0.27579175598E+02 -0.37642410991E+03  0.39509252989E+03  0.00000000000E+00 0. -1.
         -3    1    4    4    0  502 -0.18096065395E+02  0.30154143883E+02 -0.76979628624E+02  0.84632164093E+02  0.00000000000E+00 0.  1.
          5    1    3    3  503    0 -0.86488428331E+00  0.53217797841E+01  0.12217996959E+02  0.14157641562E+02  0.47000000000E+01 0. -1.
         13    1    6    6    0    0  0.62137454049E+02 -0.24606865071E+02 -0.10070792423E+03  0.12086623601E+03  0.00000000000E+00 0. -1.
        -14    1    6    6    0    0 -0.30416989761E+01  0.33375872254E+02 -0.57038431762E+02  0.66155751672E+02  0.00000000000E+00 0.  1.
         -5    1    5    5    0  501  0.76665818462E+02 -0.16665755252E+02 -0.49971326903E+03  0.50585653733E+03  0.47000000000E+01 0.  1.
<mgrwt>
<rscale>  2 0.22033112E+03</rscale>
<asrwt>0</asrwt>
<pdfrwt beam="2">  1        2 0.17580045E+00 0.22033112E+03</pdfrwt>
<pdfrwt beam="1">  1       -2 0.67781162E-02 0.22033112E+03</pdfrwt>
<totfact> 0.26347351E+03</totfact>
</mgrwt>
</event>
<event>
12    1  0.5759937E-002  0.1927547E+03  0.7546771E-02  0.1156000E+00
         -1   -1    0    0    0  501 -0.00000000000E+00  0.00000000000E+00  0.15709150586E+02  0.15709150586E+02  0.00000000000E+00 0. -1.
          1   -1    0    0  503    0  0.00000000000E+00 -0.00000000000E+00 -0.23945910824E+04  0.23945910824E+04  0.00000000000E+00 0.  1.
          6    2    1    2  503    0 -0.84769537514E+02 -0.24403917497E+01 -0.10556025374E+04  0.10730512894E+04  0.17306219316E+03 0.  0.
         24    2    3    3    0    0 -0.11108821312E+03 -0.37344419658E+02 -0.69496329963E+03  0.70974189829E+03  0.83811559908E+02 0.  0.
         -6    2    1    2    0  501  0.84769537514E+02  0.24403917497E+01 -0.13232793945E+04  0.13372489436E+04  0.17313160155E+03 0.  0.
        -24    2    5    5    0    0  0.69563722434E+02 -0.36255941685E+02 -0.12291608771E+04  0.12342489032E+04  0.79876706861E+02 0.  0.
          2    1    4    4  502    0 -0.17949382184E+02  0.23469745486E+02 -0.92779398506E+02  0.97370560547E+02  0.00000000000E+00 0. -1.
         -1    1    4    4    0  502 -0.93138830931E+02 -0.60814165145E+02 -0.60218390113E+03  0.61237133774E+03  0.00000000000E+00 0.  1.
          5    1    3    3  503    0  0.26318675601E+02  0.34904027909E+02 -0.36063923775E+03  0.36330939109E+03  0.47000000000E+01 0. -1.
         11    1    6    6    0    0  0.22227729637E+02 -0.26630045991E+02 -0.14804576758E+03  0.15205518937E+03  0.00000000000E+00 0. -1.
        -12    1    6    6    0    0  0.47335992797E+02 -0.96258956940E+01 -0.10811151096E+04  0.10821937138E+04  0.00000000000E+00 0.  1.
         -5    1    5    5    0  501  0.15205815080E+02  0.38696333435E+02 -0.94118517309E+02  0.10300004046E+03  0.47000000000E+01 0.  1.
<mgrwt>
<rscale>  2 0.19275468E+03</rscale>
<asrwt>0</asrwt>
<pdfrwt beam="2">  1        1 0.36839865E+00 0.19275468E+03</pdfrwt>
<pdfrwt beam="1">  1       -1 0.24167923E-02 0.19275468E+03</pdfrwt>
<totfact> 0.97543134E+02</totfact>
</mgrwt>
</event>
<event>
12    1  0.5759937E-002  0.2023571E+03  0.7546771E-02  0.1147765E+00
         -2   -1    0    0    0  501 -0.00000000000E+00  0.00000000000E+00  0.33110669951E+03  0.33110669951E+03  0.00000000000E+00 0. -1.
          2   -1    0    0  503    0  0.00000000000E+00 -0.00000000000E+00 -0.16792266452E+03  0.16792266452E+03  0.00000000000E+00 0.  1.
          6    2    1    2  503    0 -0.48832527337E+02 -0.91578704996E+02  0.20982196395E+03  0.29184030297E+03  0.17428204424E+03 0.  0.
         24    2    3    3    0    0  0.35107617678E+02 -0.77253538299E+02  0.11319549102E+03  0.16296081035E+03  0.80884810220E+02 0.  0.
         -6    2    1    2    0  501  0.48832527337E+02  0.91578704996E+02 -0.46637928965E+02  0.20718906107E+03  0.17315003804E+03 0.  0.
        -24    2    5    5    0    0  0.76979964374E+01  0.57744451684E+02  0.38317935570E+02  0.10680781158E+03  0.80907129343E+02 0.  0.
          2    1    4    4  502    0  0.51504182224E+02 -0.34672384059E+02  0.95734555850E+02  0.11410504015E+03  0.00000000000E+00 0. -1.
         -1    1    4    4    0  502 -0.16396564546E+02 -0.42581154240E+02  0.17460935170E+02  0.48855770205E+02  0.00000000000E+00 0.  1.
          5    1    3    3  503    0 -0.83940145015E+02 -0.14325166697E+02  0.96626472935E+02  0.12887949262E+03  0.47000000000E+01 0. -1.
         13    1    6    6    0    0 -0.33159247223E+02  0.11019761040E+02  0.25936458671E+02  0.43516326800E+02  0.00000000000E+00 0. -1.
        -14    1    6    6    0    0  0.40857243660E+02  0.46724690645E+02  0.12381476898E+02  0.63291484779E+02  0.00000000000E+00 0.  1.
         -5    1    5    5    0  501  0.41134530900E+02  0.33834253312E+02 -0.84955864535E+02  0.10038124949E+03  0.47000000000E+01 0.  1.
<mgrwt>
<rscale>  2 0.20235708E+03</rscale>
<asrwt>0</asrwt>
<pdfrwt beam="2">  1        2 0.25834256E-01 0.20235708E+03</pdfrwt>
<pdfrwt beam="1">  1       -2 0.50939492E-01 0.20235708E+03</pdfrwt>
<totfact> 0.76482908E+02</totfact>
</mgrwt>
</event>
<event>
12    1  0.5759937E-002  0.1941063E+03  0.7546771E-02  0.1154809E+00
          1   -1    0    0  503    0  0.00000000000E+00  0.00000000000E+00  0.10940210817E+04  0.10940210817E+04  0.00000000000E+00 0.  1.
         -1   -1    0    0    0  501 -0.00000000000E+00 -0.00000000000E+00 -0.34935222772E+02  0.34935222772E+02  0.00000000000E+00 0. -1.
          6    2    1    2  503    0 -0.73095705791E+02 -0.45224141094E+02  0.59971946386E+03  0.63069461976E+03  0.17528280842E+03 0.  0.
         24    2    3    3    0    0 -0.41462965909E+02  0.45909218077E+02  0.29406612507E+03  0.31014513388E+03  0.76735156949E+02 0.  0.
         -6    2    1    2    0  501  0.73095705791E+02  0.45224141094E+02  0.45936639507E+03  0.49826168471E+03  0.17279761684E+03 0.  0.
        -24    2    5    5    0    0  0.25143445988E+02  0.19103398000E+02  0.42450774052E+03  0.43330840737E+03  0.80945793233E+02 0.  0.
          4    1    4    4  502    0 -0.18276648228E+02  0.32502949559E+02  0.40053486045E+02  0.54724394422E+02  0.00000000000E+00 0. -1.
         -3    1    4    4    0  502 -0.23186317681E+02  0.13406268518E+02  0.25401263902E+03  0.25542073946E+03  0.00000000000E+00 0.  1.
          5    1    3    3  503    0 -0.31632739881E+02 -0.91133359171E+02  0.30565333879E+03  0.32054948588E+03  0.47000000000E+01 0. -1.
         13    1    6    6    0    0 -0.12885936123E+02 -0.61121419436E+00  0.93153193614E+01  0.15912137109E+02  0.00000000000E+00 0. -1.
        -14    1    6    6    0    0  0.38029382111E+02  0.19714612195E+02  0.41519242116E+03  0.41739627026E+03  0.00000000000E+00 0.  1.
         -5    1    5    5    0  501  0.47952259803E+02  0.26120743094E+02  0.34858654546E+02  0.64953277336E+02  0.47000000000E+01 0.  1.
<mgrwt>
<rscale>  2 0.19410632E+03</rscale>
<asrwt>0</asrwt>
<pdfrwt beam="1">  1        1 0.16831091E+00 0.19410632E+03</pdfrwt>
<pdfrwt beam="2">  1       -1 0.53746505E-02 0.19410632E+03</pdfrwt>
<totfact> 0.21441917E+03</totfact>
</mgrwt>
</event>
<event>
12    1  0.5759937E-002  0.2497521E+03  0.7546771E-02  0.1113462E+00
         -1   -1    0    0    0  501 -0.00000000000E+00  0.00000000000E+00  0.49922253135E+02  0.49922253135E+02  0.00000000000E+00 0.  1.
          1   -1    0    0  503    0  0.00000000000E+00 -0.00000000000E+00 -0.12777130899E+04  0.12777130899E+04  0.00000000000E+00 0. -1.
          6    2    1    2  503    0  0.18734963390E+02  0.17501269271E+03 -0.50792708342E+03  0.56462471108E+03  0.17271566470E+03 0.  0.
         24    2    3    3    0    0 -0.12564503391E+02  0.83260521827E+02 -0.41060685487E+03  0.42717859667E+03  0.82421980965E+02 0.  0.
         -6    2    1    2    0  501 -0.18734963390E+02 -0.17501269271E+03 -0.71986375332E+03  0.76301063193E+03  0.18166166249E+03 0.  0.
        -24    2    5    5    0    0  0.34829329003E+02 -0.55805546432E+02 -0.46776099450E+03  0.47900822322E+03  0.79505903972E+02 0.  0.
          4    1    4    4  502    0  0.25679502439E+02  0.73614007341E+02 -0.28925707459E+03  0.29957989606E+03  0.00000000000E+00 0. -1.
         -3    1    4    4    0  502 -0.38244005829E+02  0.96465144863E+01 -0.12134978028E+03  0.12759870061E+03  0.00000000000E+00 0.  1.
          5    1    3    3  503    0  0.31299466780E+02  0.91752170885E+02 -0.97320228545E+02  0.13744611441E+03  0.47000000000E+01 0. -1.
         13    1    6    6    0    0 -0.17191770007E+02 -0.42108440802E+02 -0.28088956569E+03  0.28454810816E+03  0.00000000000E+00 0. -1.
        -14    1    6    6    0    0  0.52021099010E+02 -0.13697105630E+02 -0.18687142881E+03  0.19446011506E+03  0.00000000000E+00 0.  1.
         -5    1    5    5    0  501 -0.53564292393E+02 -0.11920714628E+03 -0.25210275882E+03  0.28400240870E+03  0.47000000000E+01 0.  1.
<mgrwt>
<rscale>  2 0.24975215E+03</rscale>
<asrwt>0</asrwt>
<pdfrwt beam="2">  1        1 0.19657123E+00 0.24975215E+03</pdfrwt>
<pdfrwt beam="1">  1       -1 0.76803471E-02 0.24975215E+03</pdfrwt>
<totfact> 0.92906936E+02</totfact>
</mgrwt>
</event>
<event>
12    1  0.5759937E-002  0.2026345E+03  0.7546771E-02  0.1147535E+00
         -2   -1    0    0    0  501 -0.00000000000E+00  0.00000000000E+00  0.30256388938E+03  0.30256388938E+03  0.00000000000E+00 0.  1.
          2   -1    0    0  503    0  0.00000000000E+00 -0.00000000000E+00 -0.14416480939E+03  0.14416480939E+03  0.00000000000E+00 0. -1.
          6    2    1    2  503    0  0.64065800241E+02  0.83162259219E+02  0.25109225672E+02  0.20419519099E+03  0.17333440135E+03 0.  0.
         24    2    3    3    0    0  0.27767721677E+02  0.12243845722E+03  0.19185886745E+02  0.15018272779E+03  0.80153173993E+02 0.  0.
         -6    2    1    2    0  501 -0.64065800241E+02 -0.83162259219E+02  0.13328985431E+03  0.24253350779E+03  0.17330876786E+03 0.  0.
        -24    2    5    5    0    0 -0.76886192891E+02 -0.60577410307E+02  0.17867410963E+02  0.12413220586E+03  0.74218938695E+02 0.  0.
          2    1    4    4  502    0  0.31135566480E+02  0.51014284667E+01  0.31629264595E+01  0.31708865893E+02  0.00000000000E+00 0. -1.
         -1    1    4    4    0  502 -0.33678448030E+01  0.11733702876E+03  0.16022960286E+02  0.11847386189E+03  0.00000000000E+00 0.  1.
          5    1    3    3  503    0  0.36298078564E+02 -0.39276198004E+02  0.59233389272E+01  0.54012463202E+02  0.47000000000E+01 0. -1.
         11    1    6    6    0    0 -0.64316167605E+02 -0.57169195759E+01 -0.15681133452E+01  0.64588788224E+02  0.00000000000E+00 0. -1.
        -12    1    6    6    0    0 -0.12570025287E+02 -0.54860490731E+02  0.19435524308E+02  0.59543417639E+02  0.00000000000E+00 0.  1.
         -5    1    5    5    0  501  0.12820392650E+02 -0.22584848912E+02  0.11542244335E+03  0.11840130192E+03  0.47000000000E+01 0.  1.
<mgrwt>
<rscale>  2 0.20263455E+03</rscale>
<asrwt>0</asrwt>
<pdfrwt beam="2">  1        2 0.22179202E-01 0.20263455E+03</pdfrwt>
<pdfrwt beam="1">  1       -2 0.46548290E-01 0.20263455E+03</pdfrwt>
<totfact> 0.10849963E+03</totfact>
</mgrwt>
</event>
<event>
12    1  0.5759937E-002  0.1811152E+03  0.7546771E-02  0.1166728E+00
         -2   -1    0    0    0  501 -0.00000000000E+00  0.00000000000E+00  0.95679340969E+01  0.95679340969E+01  0.00000000000E+00 0. -1.
          2   -1    0    0  503    0  0.00000000000E+00 -0.00000000000E+00 -0.36467163388E+04  0.36467163388E+04  0.00000000000E+00 0.  1.
          6    2    1    2  503    0  0.52104355467E+02  0.30317139720E+02 -0.22415975510E+04  0.22487041179E+04  0.16815658331E+03 0.  0.
         24    2    3    3    0    0 -0.19319093070E+02  0.50703764135E+02 -0.92533149102E+03  0.93033567394E+03  0.79636667869E+02 0.  0.
         -6    2    1    2    0  501 -0.52104355467E+02 -0.30317139720E+02 -0.13955508537E+04  0.14075801550E+04  0.17345234094E+03 0.  0.
        -24    2    5    5    0    0 -0.29947196521E+02 -0.72695583794E+02 -0.60767991600E+03  0.61824525982E+03  0.82285105003E+02 0.  0.
          2    1    4    4  502    0 -0.49971067410E+02  0.35110254177E+02 -0.65057309391E+03  0.65343338455E+03  0.00000000000E+00 0. -1.
         -1    1    4    4    0  502  0.30651974341E+02  0.15593509958E+02 -0.27475839711E+03  0.27690228939E+03  0.00000000000E+00 0.  1.
          5    1    3    3  503    0  0.71423448536E+02 -0.20386624414E+02 -0.13162660599E+04  0.13183684440E+04  0.47000000000E+01 0. -1.
         13    1    6    6    0    0  0.17919110895E+02 -0.21839183110E+02 -0.62224177878E+02  0.68336613662E+02  0.00000000000E+00 0. -1.
        -14    1    6    6    0    0 -0.47866307416E+02 -0.50856400684E+02 -0.54545573812E+03  0.54990864616E+03  0.00000000000E+00 0.  1.
         -5    1    5    5    0  501 -0.22157158946E+02  0.42378444074E+02 -0.78787093774E+03  0.78933489519E+03  0.47000000000E+01 0.  1.
<mgrwt>
<rscale>  2 0.18111515E+03</rscale>
<asrwt>0</asrwt>
<pdfrwt beam="2">  1        2 0.56103349E+00 0.18111515E+03</pdfrwt>
<pdfrwt beam="1">  1       -2 0.14719893E-02 0.18111515E+03</pdfrwt>
<totfact> 0.10030607E+03</totfact>
</mgrwt>
</event>
<event>
12    1  0.5759937E-002  0.1797807E+03  0.7546771E-02  0.1168015E+00
         -2   -1    0    0    0  501 -0.00000000000E+00  0.00000000000E+00  0.54653232393E+02  0.54653232393E+02  0.00000000000E+00 0.  1.
          2   -1    0    0  503    0  0.00000000000E+00 -0.00000000000E+00 -0.79855433741E+03  0.79855433741E+03  0.00000000000E+00 0. -1.
          6    2    1    2  503    0 -0.46713558535E+02 -0.86496801503E+01 -0.58877997385E+03  0.61552894884E+03  0.17308106695E+03 0.  0.
         24    2    3    3    0    0 -0.43417278343E+02 -0.53049318275E+02 -0.22005974510E+03  0.24410077218E+03  0.80371669990E+02 0.  0.
         -6    2    1    2    0  501  0.46713558535E+02  0.86496801503E+01 -0.15512113117E+03  0.23767862096E+03  0.17369970642E+03 0.  0.
        -24    2    5    5    0    0  0.22482386703E+02 -0.39936461638E+02 -0.15969935902E+03  0.18299029467E+03  0.76688877900E+02 0.  0.
          2    1    4    4  502    0 -0.63319788334E+02 -0.18964928773E+02 -0.13354017177E+03  0.14900349524E+03  0.00000000000E+00 0. -1.
         -1    1    4    4    0  502  0.19902509991E+02 -0.34084389502E+02 -0.86519573327E+02  0.95097276934E+02  0.00000000000E+00 0.  1.
          5    1    3    3  503    0 -0.32962801926E+01  0.44399638124E+02 -0.36872022875E+03  0.37142817667E+03  0.47000000000E+01 0. -1.
         13    1    6    6    0    0  0.14208177124E+02 -0.18214018049E+02 -0.15613174178E+01  0.23152979565E+02  0.00000000000E+00 0. -1.
        -14    1    6    6    0    0  0.82742095798E+01 -0.21722443588E+02 -0.15813804160E+03  0.15983731511E+03  0.00000000000E+00 0.  1.
         -5    1    5    5    0  501  0.24231171832E+02  0.48586141788E+02  0.45782278490E+01  0.54688326290E+02  0.47000000000E+01 0.  1.
<mgrwt>
<rscale>  2 0.17978075E+03</rscale>
<asrwt>0</asrwt>
<pdfrwt beam="2">  1        2 0.12285450E+00 0.17978075E+03</pdfrwt>
<pdfrwt beam="1">  1       -2 0.84081903E-02 0.17978075E+03</pdfrwt>
<totfact> 0.30721163E+03</totfact>
</mgrwt>
</event>
<event>
12    1  0.5759937E-002  0.2172756E+03  0.7546771E-02  0.1135931E+00
          1   -1    0    0  503    0  0.00000000000E+00  0.00000000000E+00  0.18882514725E+03  0.18882514725E+03  0.00000000000E+00 0.  1.
         -1   -1    0    0    0  501 -0.00000000000E+00 -0.00000000000E+00 -0.36902096335E+03  0.36902096335E+03  0.00000000000E+00 0. -1.
          6    2    1    2  503    0  0.59071136477E+02  0.11588506717E+03  0.67855332206E+02  0.22910096657E+03  0.17596635707E+03 0.  0.
         24    2    3    3    0    0 -0.73294256200E+01  0.54037581822E+02  0.92409424442E+02  0.13497796441E+03  0.81888756387E+02 0.  0.
         -6    2    1    2    0  501 -0.59071136477E+02 -0.11588506717E+03 -0.24805114831E+03  0.32874514403E+03  0.17211986982E+03 0.  0.
        -24    2    5    5    0    0 -0.62030290579E+02 -0.33481695036E+02 -0.21231134619E+03  0.23875350115E+03  0.83416699414E+02 0.  0.
          2    1    4    4  502    0 -0.39043763127E+02  0.27502870106E+02  0.20383456456E+02  0.51925991568E+02  0.00000000000E+00 0. -1.
         -1    1    4    4    0  502  0.31714337507E+02  0.26534711716E+02  0.72025967986E+02  0.83051972846E+02  0.00000000000E+00 0.  1.
          5    1    3    3  503    0  0.66400562097E+02  0.61847485343E+02 -0.24554092236E+02  0.94123002160E+02  0.47000000000E+01 0. -1.
         13    1    6    6    0    0  0.16879038488E+02 -0.11750224028E+02 -0.84615134050E+02  0.87078646150E+02  0.00000000000E+00 0. -1.
        -14    1    6    6    0    0 -0.78909329067E+02 -0.21731471008E+02 -0.12769621214E+03  0.15167485500E+03  0.00000000000E+00 0.  1.
         -5    1    5    5    0  501  0.29591541014E+01 -0.82403372129E+02 -0.35739802125E+02  0.89991642874E+02  0.47000000000E+01 0.  1.
<mgrwt>
<rscale>  2 0.21727564E+03</rscale>
<asrwt>0</asrwt>
<pdfrwt beam="1">  1        1 0.29050023E-01 0.21727564E+03</pdfrwt>
<pdfrwt beam="2">  1       -1 0.56772455E-01 0.21727564E+03</pdfrwt>
<totfact> 0.51245421E+02</totfact>
</mgrwt>
</event>
<event>
12    1  0.5759937E-002  0.2675306E+03  0.7546771E-02  0.1102701E+00
         -1   -1    0    0    0  501 -0.00000000000E+00  0.00000000000E+00  0.92887203830E+02  0.92887203830E+02  0.00000000000E+00 0.  1.
          1   -1    0    0  503    0  0.00000000000E+00 -0.00000000000E+00 -0.78075978340E+03  0.78075978340E+03  0.00000000000E+00 0. -1.
          6    2    1    2  503    0 -0.14666390723E+03 -0.13990822770E+03 -0.29306708061E+03  0.39634314652E+03  0.17353663071E+03 0.  0.
         24    2    3    3    0    0 -0.41184832790E+02 -0.10512328663E+02 -0.15297452536E+03  0.17835886299E+03  0.81264869969E+02 0.  0.
         -6    2    1    2    0  501  0.14666390723E+03  0.13990822770E+03 -0.39480549896E+03  0.47730384070E+03  0.17567857149E+03 0.  0.
        -24    2    5    5    0    0  0.10830116890E+02  0.50237338213E+02 -0.21599303046E+03  0.23546158651E+03  0.78409743876E+02 0.  0.
          2    1    4    4  502    0 -0.57954132666E+02  0.12167746880E+02 -0.12649876013E+03  0.13967344726E+03  0.00000000000E+00 0. -1.
         -1    1    4    4    0  502  0.16769299876E+02 -0.22680075543E+02 -0.26475765237E+02  0.38685415725E+02  0.00000000000E+00 0.  1.
          5    1    3    3  503    0 -0.10547907444E+03 -0.12939589904E+03 -0.14009255524E+03  0.21798428353E+03  0.47000000000E+01 0. -1.
         11    1    6    6    0    0  0.19493682782E+02  0.58213409463E+02 -0.21505773841E+03  0.22364846424E+03  0.00000000000E+00 0. -1.
        -12    1    6    6    0    0 -0.86635658922E+01 -0.79760712499E+01 -0.93529205046E+00  0.11813122270E+02  0.00000000000E+00 0.  1.
         -5    1    5    5    0  501  0.13583379034E+03  0.89670889485E+02 -0.17881246850E+03  0.24184225419E+03  0.47000000000E+01 0.  1.
<mgrwt>
<rscale>  2 0.26753056E+03</rscale>
<asrwt>0</asrwt>
<pdfrwt beam="2">  1        1 0.12011689E+00 0.26753056E+03</pdfrwt>
<pdfrwt beam="1">  1       -1 0.14290339E-01 0.26753056E+03</pdfrwt>
<totfact> 0.83312962E+02</totfact>
</mgrwt>
</event>
<event>
12    1  0.5759937E-002  0.2086537E+03  0.7546771E-02  0.1142637E+00
          2   -1    0    0  503    0  0.00000000000E+00  0.00000000000E+00  0.88489847528E+02  0.88489847528E+02  0.00000000000E+00 0.  1.
         -2   -1    0    0    0  501 -0.00000000000E+00 -0.00000000000E+00 -0.50528716762E+03  0.50528716762E+03  0.00000000000E+00 0. -1.
          6    2    1    2  503    0  0.10574158264E+03  0.50016902145E+02 -0.16043578407E+03  0.26336114542E+03  0.17302161515E+03 0.  0.
         24    2    3    3    0    0  0.96597329643E+02  0.27222193800E+02 -0.31179949238E+02  0.13170865996E+03  0.79390742183E+02 0.  0.
         -6    2    1    2    0  501 -0.10574158264E+03 -0.50016902145E+02 -0.25636153603E+03  0.33041586973E+03  0.17254111688E+03 0.  0.
        -24    2    5    5    0    0 -0.50343469970E+02 -0.64184568454E+02 -0.24759125019E+03  0.27237552540E+03  0.78948564724E+02 0.  0.
          4    1    4    4  502    0  0.28929958445E+02 -0.18514857476E+02  0.15447795989E+02  0.37661344159E+02  0.00000000000E+00 0. -1.
         -3    1    4    4    0  502  0.67667371198E+02  0.45737051276E+02 -0.46627745228E+02  0.94047315800E+02  0.00000000000E+00 0.  1.
          5    1    3    3  503    0  0.91442529954E+01  0.22794708345E+02 -0.12925583483E+03  0.13165248546E+03  0.47000000000E+01 0. -1.
         11    1    6    6    0    0 -0.59764103112E+02 -0.29386332630E+02 -0.97903907582E+02  0.11840810650E+03  0.00000000000E+00 0. -1.
        -12    1    6    6    0    0  0.94206331427E+01 -0.34798235824E+02 -0.14968734261E+03  0.15396741890E+03  0.00000000000E+00 0.  1.
         -5    1    5    5    0  501 -0.55398112668E+02  0.14167666309E+02 -0.87702858393E+01  0.58040344327E+02  0.47000000000E+01 0.  1.
<mgrwt>
<rscale>  2 0.20865366E+03</rscale>
<asrwt>0</asrwt>
<pdfrwt beam="1">  1        2 0.13613822E-01 0.20865366E+03</pdfrwt>
<pdfrwt beam="2">  1       -2 0.77736489E-01 0.20865366E+03</pdfrwt>
<totfact> 0.66181769E+02</totfact>
</mgrwt>
</event>
<event>
12    1  0.5759937E-002  0.1705880E+03  0.7546771E-02  0.1177236E+00
          2   -1    0    0  503    0  0.00000000000E+00  0.00000000000E+00  0.12839862665E+04  0.12839862665E+04  0.00000000000E+00 0.  1.
         -2   -1    0    0    0  501 -0.00000000000E+00 -0.00000000000E+00 -0.30724007815E+02  0.30724007815E+02  0.00000000000E+00 0. -1.
          6    2    1    2  503    0 -0.51703487007E+00 -0.10680624804E+02  0.28723359716E+03  0.33355926439E+03  0.16924627160E+03 0.  0.
         24    2    3    3    0    0  0.55086144800E+02  0.19919000897E+02  0.12775693264E+03  0.16185327379E+03  0.80270782060E+02 0.  0.
         -6    2    1    2    0  501  0.51703487007E+00  0.10680624804E+02  0.96602866151E+03  0.98115100991E+03  0.17126466745E+03 0.  0.
        -24    2    5    5    0    0  0.32420398932E+02 -0.20095529021E+02  0.26776403256E+03  0.28146495294E+03  0.77910397538E+02 0.  0.
          2    1    4    4  502    0  0.48852508832E+02  0.21853868094E+02  0.25314108845E+02  0.59202730312E+02  0.00000000000E+00 0. -1.
         -1    1    4    4    0  502  0.62336359685E+01 -0.19348671965E+01  0.10244282380E+03  0.10265054348E+03  0.00000000000E+00 0.  1.
          5    1    3    3  503    0 -0.55603179670E+02 -0.30599625701E+02  0.15947666452E+03  0.17170599060E+03  0.47000000000E+01 0. -1.
         11    1    6    6    0    0 -0.89474653485E+01 -0.19559738724E+02  0.20603318676E+03  0.20715287727E+03  0.00000000000E+00 0. -1.
        -12    1    6    6    0    0  0.41367864280E+02 -0.53579029651E+00  0.61730845801E+02  0.74312075665E+02  0.00000000000E+00 0.  1.
         -5    1    5    5    0  501 -0.31903364062E+02  0.30776153825E+02  0.69826462894E+03  0.69968605697E+03  0.47000000000E+01 0.  1.
<mgrwt>
<rscale>  2 0.17058798E+03</rscale>
<asrwt>0</asrwt>
<pdfrwt beam="1">  1        2 0.19753631E+00 0.17058798E+03</pdfrwt>
<pdfrwt beam="2">  1       -2 0.47267714E-02 0.17058798E+03</pdfrwt>
<totfact> 0.37898930E+03</totfact>
</mgrwt>
</event>
<event>
12    1  0.5759937E-002  0.3315608E+03  0.7546771E-02  0.1070448E+00
          2   -1    0    0  503    0  0.00000000000E+00  0.00000000000E+00  0.10308975103E+04  0.10308975103E+04  0.00000000000E+00 0.  1.
         -2   -1    0    0    0  501 -0.00000000000E+00 -0.00000000000E+00 -0.10690055885E+03  0.10690055885E+03  0.00000000000E+00 0. -1.
          6    2    1    2  503    0 -0.18406375476E+03  0.21428191107E+03  0.43301543103E+03  0.54502985047E+03  0.17250788726E+03 0.  0.
         24    2    3    3    0    0 -0.19031013369E+03  0.18431169976E+03  0.43328098710E+03  0.51405580754E+03  0.79575183519E+02 0.  0.
         -6    2    1    2    0  501  0.18406375476E+03 -0.21428191107E+03  0.49098152043E+03  0.59276821870E+03  0.17468573058E+03 0.  0.
        -24    2    5    5    0    0  0.27331070799E+02 -0.12385075279E+03  0.24106273120E+03  0.28418367628E+03  0.81013116791E+02 0.  0.
          2    1    4    4  502    0 -0.10483113389E+03  0.15094659851E+03  0.30987989811E+03  0.36027766165E+03  0.00000000000E+00 0. -1.
         -1    1    4    4    0  502 -0.85478999808E+02  0.33365101249E+02  0.12340108899E+03  0.15377814589E+03  0.00000000000E+00 0.  1.
          5    1    3    3  503    0  0.62463789305E+01  0.29970211310E+02 -0.26555606316E+00  0.30974042935E+02  0.47000000000E+01 0. -1.
         11    1    6    6    0    0  0.22934221149E+01  0.21167588087E+01  0.71023592344E+02  0.71092131226E+02  0.00000000000E+00 0. -1.
        -12    1    6    6    0    0  0.25037648684E+02 -0.12596751160E+03  0.17003913885E+03  0.21309154505E+03  0.00000000000E+00 0.  1.
         -5    1    5    5    0  501  0.15673268396E+03 -0.90431158276E+02  0.24991878924E+03  0.30858454243E+03  0.47000000000E+01 0.  1.
<mgrwt>
<rscale>  2 0.33156084E+03</rscale>
<asrwt>0</asrwt>
<pdfrwt beam="1">  1        2 0.15859961E+00 0.33156084E+03</pdfrwt>
<pdfrwt beam="2">  1       -2 0.16446241E-01 0.33156084E+03</pdfrwt>
<totfact> 0.73722522E+02</totfact>
</mgrwt>
</event>
<event>
12    1  0.5759937E-002  0.2866459E+03  0.7546771E-02  0.1092113E+00
          2   -1    0    0  503    0  0.00000000000E+00  0.00000000000E+00  0.14535599737E+04  0.14535599737E+04  0.00000000000E+00 0. -1.
         -2   -1    0    0    0  501 -0.00000000000E+00 -0.00000000000E+00 -0.61841326681E+02  0.61841326681E+02  0.00000000000E+00 0.  1.
          6    2    1    2  503    0 -0.19728462103E+03 -0.11514847573E+03  0.47401567817E+03  0.55400867428E+03  0.17336191873E+03 0.  0.
         24    2    3    3    0    0 -0.91473784914E+02 -0.10344225316E+03  0.37909741862E+03  0.41130431316E+03  0.79928919366E+02 0.  0.
         -6    2    1    2    0  501  0.19728462103E+03  0.11514847573E+03  0.91770296882E+03  0.96139262608E+03  0.17296430074E+03 0.  0.
        -24    2    5    5    0    0  0.12497741769E+03  0.50975078008E+02  0.32660053961E+03  0.36241789501E+03  0.80380374731E+02 0.  0.
          2    1    4    4  502    0 -0.71232859849E+02 -0.10903526910E+03  0.36031201692E+03  0.38312864650E+03  0.00000000000E+00 0. -1.
         -1    1    4    4    0  502 -0.20240925064E+02  0.55930159333E+01  0.18785401698E+02  0.28175666659E+02  0.00000000000E+00 0.  1.
          5    1    3    3  503    0 -0.10581083612E+03 -0.11706222569E+02  0.94918259551E+02  0.14270436112E+03  0.47000000000E+01 0. -1.
         13    1    6    6    0    0  0.75580247930E+01  0.13580554436E+02  0.12625025831E+03  0.12720331332E+03  0.00000000000E+00 0. -1.
        -14    1    6    6    0    0  0.11741939290E+03  0.37394523572E+02  0.20035028130E+03  0.23521458169E+03  0.00000000000E+00 0.  1.
         -5    1    5    5    0  501  0.72307203337E+02  0.64173397725E+02  0.59110242921E+03  0.59897473106E+03  0.47000000000E+01 0.  1.
<mgrwt>
<rscale>  2 0.28664589E+03</rscale>
<asrwt>0</asrwt>
<pdfrwt beam="1">  1        2 0.22362459E+00 0.28664589E+03</pdfrwt>
<pdfrwt beam="2">  1       -2 0.95140513E-02 0.28664589E+03</pdfrwt>
<totfact> 0.10391172E+03</totfact>
</mgrwt>
</event>
<event>
12    1  0.5759937E-002  0.1799237E+03  0.7546771E-02  0.1167877E+00
         -2   -1    0    0    0  501 -0.00000000000E+00  0.00000000000E+00  0.10911300224E+04  0.10911300224E+04  0.00000000000E+00 0.  1.
          2   -1    0    0  503    0  0.00000000000E+00 -0.00000000000E+00 -0.30430204782E+02  0.30430204782E+02  0.00000000000E+00 0. -1.
          6    2    1    2  503    0  0.30713166900E+02 -0.47782313298E+02  0.44655832621E+03  0.48206708298E+03  0.17247575394E+03 0.  0.
         24    2    3    3    0    0  0.60859429190E+02 -0.40523976151E+02  0.15999492331E+03  0.19379264001E+03  0.81308972885E+02 0.  0.
         -6    2    1    2    0  501 -0.30713166900E+02  0.47782313298E+02  0.61414149136E+03  0.63949314416E+03  0.16898302260E+03 0.  0.
        -24    2    5    5    0    0  0.13177810446E+02 -0.32104660799E+02  0.25969163354E+03  0.27348066045E+03  0.78406397533E+02 0.  0.
          2    1    4    4  502    0  0.48411900402E+02 -0.62849974277E+02  0.93899485167E+02  0.12292658249E+03  0.00000000000E+00 0. -1.
         -1    1    4    4    0  502  0.12447528789E+02  0.22325998126E+02  0.66095438143E+02  0.70866057521E+02  0.00000000000E+00 0.  1.
          5    1    3    3  503    0 -0.30146262290E+02 -0.72583371466E+01  0.28656340290E+03  0.28827444297E+03  0.47000000000E+01 0. -1.
         11    1    6    6    0    0  0.12745808609E+02 -0.13568384780E+02  0.25312836423E+03  0.25381198845E+03  0.00000000000E+00 0. -1.
        -12    1    6    6    0    0  0.43200183730E+00 -0.18536276019E+02  0.65632693161E+01  0.19668672003E+02  0.00000000000E+00 0.  1.
         -5    1    5    5    0  501 -0.43890977346E+02  0.79886974097E+02  0.35444985782E+03  0.36601248371E+03  0.47000000000E+01 0.  1.
<mgrwt>
<rscale>  2 0.17992368E+03</rscale>
<asrwt>0</asrwt>
<pdfrwt beam="2">  1        2 0.46815708E-02 0.17992368E+03</pdfrwt>
<pdfrwt beam="1">  1       -2 0.16786613E+00 0.17992368E+03</pdfrwt>
<totfact> 0.40041514E+02</totfact>
</mgrwt>
</event>
<event>
12    1  0.5759937E-002  0.2888304E+03  0.7546771E-02  0.1090961E+00
          1   -1    0    0  503    0  0.00000000000E+00  0.00000000000E+00  0.17916852945E+03  0.17916852945E+03  0.00000000000E+00 0. -1.
         -1   -1    0    0    0  501 -0.00000000000E+00 -0.00000000000E+00 -0.49127231894E+03  0.49127231894E+03  0.00000000000E+00 0.  1.
          6    2    1    2  503    0 -0.11909537434E+03  0.19537106798E+03 -0.79341038756E+02  0.29934403354E+03  0.17594967346E+03 0.  0.
         24    2    3    3    0    0 -0.64617940501E+01  0.12648708137E+03 -0.24843467294E+02  0.15643356396E+03  0.88394148734E+02 0.  0.
         -6    2    1    2    0  501  0.11909537434E+03 -0.19537106798E+03 -0.23276275073E+03  0.37109681486E+03  0.17658081855E+03 0.  0.
        -24    2    5    5    0    0  0.15419149814E+03 -0.18031452930E+03 -0.19442307261E+03  0.31677869467E+03  0.79120557727E+02 0.  0.
          4    1    4    4  502    0 -0.31084836789E+02  0.11018624726E+03  0.48053951781E+01  0.11458781779E+03  0.00000000000E+00 0. -1.
         -3    1    4    4    0  502  0.24623042739E+02  0.16300834108E+02 -0.29648862472E+02  0.41845746167E+02  0.00000000000E+00 0.  1.
          5    1    3    3  503    0 -0.11263358029E+03  0.68883986610E+02 -0.54497571462E+02  0.14291046958E+03  0.47000000000E+01 0. -1.
         13    1    6    6    0    0  0.18635322886E+02 -0.70450862695E+01  0.42285902427E+01  0.20366381000E+02  0.00000000000E+00 0. -1.
        -14    1    6    6    0    0  0.13555617525E+03 -0.17326944303E+03 -0.19865166286E+03  0.29641231367E+03  0.00000000000E+00 0.  1.
         -5    1    5    5    0  501 -0.35096123802E+02 -0.15056538678E+02 -0.38339678119E+02  0.54318120192E+02  0.47000000000E+01 0.  1.
<mgrwt>
<rscale>  2 0.28883044E+03</rscale>
<asrwt>0</asrwt>
<pdfrwt beam="1">  1        1 0.27564389E-01 0.28883044E+03</pdfrwt>
<pdfrwt beam="2">  1       -1 0.75580356E-01 0.28883044E+03</pdfrwt>
<totfact> 0.31091973E+02</totfact>
</mgrwt>
</event>
<event>
12    1  0.5759937E-002  0.2076977E+03  0.7546771E-02  0.1143402E+00
         -2   -1    0    0    0  501 -0.00000000000E+00  0.00000000000E+00  0.29942733848E+03  0.29942733848E+03  0.00000000000E+00 0. -1.
          2   -1    0    0  503    0  0.00000000000E+00 -0.00000000000E+00 -0.14468425744E+03  0.14468425744E+03  0.00000000000E+00 0.  1.
          6    2    1    2  503    0 -0.95470414593E+01 -0.11458656959E+03  0.91740282581E+02  0.22680218150E+03  0.17263175303E+03 0.  0.
         24    2    3    3    0    0  0.14180894414E+02 -0.23868448053E+01  0.75329937354E+02  0.11085744202E+03  0.80049848189E+02 0.  0.
         -6    2    1    2    0  501  0.95470414593E+01  0.11458656959E+03  0.63002798461E+02  0.21730941442E+03  0.17329974336E+03 0.  0.
        -24    2    5    5    0    0 -0.40019639013E+02  0.25594750526E+02  0.67547374512E+02  0.11523521178E+03  0.80373151415E+02 0.  0.
          2    1    4    4  502    0 -0.33084415139E+02  0.41914165939E+01  0.35402047676E+02  0.48635907289E+02  0.00000000000E+00 0. -1.
         -1    1    4    4    0  502  0.47265309553E+02 -0.65782613993E+01  0.39927889678E+02  0.62221534732E+02  0.00000000000E+00 0.  1.
          5    1    3    3  503    0 -0.23727935873E+02 -0.11219972479E+03  0.16410345228E+02  0.11594473948E+03  0.47000000000E+01 0. -1.
         13    1    6    6    0    0  0.10645862402E+02  0.38454755239E+02  0.38440737876E+02  0.55405711937E+02  0.00000000000E+00 0. -1.
        -14    1    6    6    0    0 -0.50665501414E+02 -0.12860004713E+02  0.29106636636E+02  0.59829499839E+02  0.00000000000E+00 0.  1.
         -5    1    5    5    0  501  0.49566680472E+02  0.88991819065E+02 -0.45445760512E+01  0.10207420264E+03  0.47000000000E+01 0.  1.
<mgrwt>
<rscale>  2 0.20769770E+03</rscale>
<asrwt>0</asrwt>
<pdfrwt beam="2">  1        2 0.22259117E-01 0.20769770E+03</pdfrwt>
<pdfrwt beam="1">  1       -2 0.46065744E-01 0.20769770E+03</pdfrwt>
<totfact> 0.11035660E+03</totfact>
</mgrwt>
</event>
<event>
12    1  0.5759937E-002  0.1831528E+03  0.7546771E-02  0.1164786E+00
         -2   -1    0    0    0  501 -0.00000000000E+00  0.00000000000E+00  0.12373601689E+02  0.12373601689E+02  0.00000000000E+00 0. -1.
          2   -1    0    0  503    0  0.00000000000E+00 -0.00000000000E+00 -0.28235458835E+04  0.28235458835E+04  0.00000000000E+00 0.  1.
          6    2    1    2  503    0 -0.61015951261E+02 -0.76190403040E+01 -0.11222476096E+04  0.11370892290E+04  0.17248542362E+03 0.  0.
         24    2    3    3    0    0 -0.56142806437E+02 -0.40273284886E+02 -0.38690040087E+03  0.40098620998E+03  0.79524010236E+02 0.  0.
         -6    2    1    2    0  501  0.61015951261E+02  0.76190403040E+01 -0.16889246722E+04  0.16988302561E+04  0.17255925032E+03 0.  0.
        -24    2    5    5    0    0  0.27577576680E+02  0.41552559018E+02 -0.50277871525E+03  0.51171866506E+03  0.81132100715E+02 0.  0.
          2    1    4    4  502    0 -0.31060011316E+02 -0.51342552833E+02 -0.13673084691E+03  0.14931880837E+03  0.00000000000E+00 0. -1.
         -1    1    4    4    0  502 -0.25082795121E+02  0.11069267947E+02 -0.25016955396E+03  0.25166740161E+03  0.00000000000E+00 0.  1.
          5    1    3    3  503    0 -0.48731448239E+01  0.32654244582E+02 -0.73534720873E+03  0.73610301902E+03  0.47000000000E+01 0. -1.
         11    1    6    6    0    0  0.42650422689E+02  0.73056869696E+01 -0.12883558572E+03  0.13590820345E+03  0.00000000000E+00 0. -1.
        -12    1    6    6    0    0 -0.15072846009E+02  0.34246872048E+02 -0.37394312954E+03  0.37581046161E+03  0.00000000000E+00 0.  1.
         -5    1    5    5    0  501  0.33438374581E+02 -0.33933518713E+02 -0.11861459569E+04  0.11871115911E+04  0.47000000000E+01 0.  1.
<mgrwt>
<rscale>  2 0.18315281E+03</rscale>
<asrwt>0</asrwt>
<pdfrwt beam="2">  1        2 0.43439181E+00 0.18315281E+03</pdfrwt>
<pdfrwt beam="1">  1       -2 0.19036305E-02 0.18315281E+03</pdfrwt>
<totfact> 0.22196986E+03</totfact>
</mgrwt>
</event>
<event>
12    1  0.5759937E-002  0.1849411E+03  0.7546771E-02  0.1163105E+00
         -2   -1    0    0    0  501 -0.00000000000E+00  0.00000000000E+00  0.45794359505E+02  0.45794359505E+02  0.00000000000E+00 0. -1.
          2   -1    0    0  503    0  0.00000000000E+00 -0.00000000000E+00 -0.94398821496E+03  0.94398821496E+03  0.00000000000E+00 0.  1.
          6    2    1    2  503    0 -0.20734158155E+01  0.65212253750E+02 -0.22251490446E+03  0.28918905145E+03  0.17280187407E+03 0.  0.
         24    2    3    3    0    0 -0.63845920862E+02  0.14977222575E+02 -0.10831827915E+03  0.14989669714E+03  0.80221888599E+02 0.  0.
         -6    2    1    2    0  501  0.20734158155E+01 -0.65212253750E+02 -0.67567895100E+03  0.70059352301E+03  0.17329830517E+03 0.  0.
        -24    2    5    5    0    0 -0.38332825140E+01  0.18435361749E+02 -0.48747478069E+03  0.49449958233E+03  0.80892635645E+02 0.  0.
          2    1    4    4  502    0 -0.77600230393E+02  0.29663586478E+02 -0.81594478378E+02  0.11644476382E+03  0.00000000000E+00 0. -1.
         -1    1    4    4    0  502  0.13754309531E+02 -0.14686363903E+02 -0.26723800770E+02  0.33451933322E+02  0.00000000000E+00 0.  1.
          5    1    3    3  503    0  0.61772505046E+02  0.50235031174E+02 -0.11419662531E+03  0.13929235431E+03  0.47000000000E+01 0. -1.
         11    1    6    6    0    0  0.21732526166E+02  0.23143368236E+02 -0.43276385727E+03  0.43392680759E+03  0.00000000000E+00 0. -1.
        -12    1    6    6    0    0 -0.25565808680E+02 -0.47080064873E+01 -0.54710923418E+02  0.60572774740E+02  0.00000000000E+00 0.  1.
         -5    1    5    5    0  501  0.59066983294E+01 -0.83647615498E+02 -0.18820417031E+03  0.20609394068E+03  0.47000000000E+01 0.  1.
<mgrwt>
<rscale>  2 0.18494114E+03</rscale>
<asrwt>0</asrwt>
<pdfrwt beam="2">  1        2 0.14522896E+00 0.18494114E+03</pdfrwt>
<pdfrwt beam="1">  1       -2 0.70452859E-02 0.18494114E+03</pdfrwt>
<totfact> 0.32522222E+03</totfact>
</mgrwt>
</event>
<event>
12    1  0.5759937E-002  0.3844061E+03  0.7546771E-02  0.1049317E+00
         -1   -1    0    0    0  501 -0.00000000000E+00  0.00000000000E+00  0.21289117690E+03  0.21289117690E+03  0.00000000000E+00 0.  1.
          1   -1    0    0  503    0  0.00000000000E+00 -0.00000000000E+00 -0.11464181959E+04  0.11464181959E+04  0.00000000000E+00 0. -1.
          6    2    1    2  503    0 -0.29416965179E+03 -0.17803188195E+03 -0.40206558649E+02  0.38698242403E+03  0.17293841136E+03 0.  0.
         24    2    3    3    0    0 -0.18607723156E+03 -0.17372605315E+03  0.95089314512E+01  0.26783448477E+03  0.82700748533E+02 0.  0.
         -6    2    1    2    0  501  0.29416965179E+03  0.17803188195E+03 -0.89332046030E+03  0.97232694873E+03  0.17078382653E+03 0.  0.
        -24    2    5    5    0    0  0.62824950823E+02  0.30449562915E+02 -0.30480377505E+03  0.32296195862E+03  0.80777070408E+02 0.  0.
          2    1    4    4  502    0 -0.27839663340E+02 -0.77542077401E+02 -0.45872486457E+00  0.82389508137E+02  0.00000000000E+00 0. -1.
         -1    1    4    4    0  502 -0.15823756822E+03 -0.96183975751E+02  0.99676563157E+01  0.18544497664E+03  0.00000000000E+00 0.  1.
          5    1    3    3  503    0 -0.10809242023E+03 -0.43058287977E+01 -0.49715490100E+02  0.11914793925E+03  0.47000000000E+01 0. -1.
         11    1    6    6    0    0  0.42571957067E+02  0.35143048020E+02 -0.29473893796E+03  0.29986404737E+03  0.00000000000E+00 0. -1.
        -12    1    6    6    0    0  0.20252993756E+02 -0.46934851051E+01 -0.10064837082E+02  0.23097911247E+02  0.00000000000E+00 0.  1.
         -5    1    5    5    0  501  0.23134470097E+03  0.14758231903E+03 -0.58851668526E+03  0.64936499011E+03  0.47000000000E+01 0.  1.
<mgrwt>
<rscale>  2 0.38440613E+03</rscale>
<asrwt>0</asrwt>
<pdfrwt beam="2">  1        1 0.17637203E+00 0.38440613E+03</pdfrwt>
<pdfrwt beam="1">  1       -1 0.32752489E-01 0.38440613E+03</pdfrwt>
<totfact> 0.10866583E+02</totfact>
</mgrwt>
</event>
<event>
12    1  0.5759937E-002  0.1864432E+03  0.7546771E-02  0.1161709E+00
          2   -1    0    0  503    0  0.00000000000E+00  0.00000000000E+00  0.17900539191E+04  0.17900539191E+04  0.00000000000E+00 0. -1.
         -2   -1    0    0    0  501 -0.00000000000E+00 -0.00000000000E+00 -0.19456081665E+02  0.19456081665E+02  0.00000000000E+00 0.  1.
          6    2    1    2  503    0  0.51868661748E+02 -0.46778649106E+02  0.84336682744E+03  0.86361514973E+03  0.17229312560E+03 0.  0.
         24    2    3    3    0    0  0.69582933469E+02 -0.71365678487E+01  0.29583341883E+03  0.31434270952E+03  0.80007575268E+02 0.  0.
         -6    2    1    2    0  501 -0.51868661748E+02  0.46778649106E+02  0.92723101003E+03  0.94589485107E+03  0.17343910527E+03 0.  0.
        -24    2    5    5    0    0 -0.28194211194E+02  0.96996540231E+02  0.58034984160E+03  0.59456743795E+03  0.80630374336E+02 0.  0.
          2    1    4    4  502    0  0.59176116575E+02 -0.37188364713E+02  0.24125279782E+03  0.25117264919E+03  0.00000000000E+00 0. -1.
         -1    1    4    4    0  502  0.10406816894E+02  0.30051796865E+02  0.54580621007E+02  0.63170060331E+02  0.00000000000E+00 0.  1.
          5    1    3    3  503    0 -0.17714271721E+02 -0.39642081257E+02  0.54753340861E+03  0.54927244021E+03  0.47000000000E+01 0. -1.
         11    1    6    6    0    0  0.13303546874E+02  0.19771198062E+02  0.35802563138E+02  0.43008233625E+02  0.00000000000E+00 0. -1.
        -12    1    6    6    0    0 -0.41497758068E+02  0.77225342169E+02  0.54454727846E+03  0.55155920433E+03  0.00000000000E+00 0.  1.
         -5    1    5    5    0  501 -0.23674450554E+02 -0.50217891125E+02  0.34688116843E+03  0.35132741312E+03  0.47000000000E+01 0.  1.
<mgrwt>
<rscale>  2 0.18644318E+03</rscale>
<asrwt>0</asrwt>
<pdfrwt beam="1">  1        2 0.27539278E+00 0.18644318E+03</pdfrwt>
<pdfrwt beam="2">  1       -2 0.29932448E-02 0.18644318E+03</pdfrwt>
<totfact> 0.40595165E+03</totfact>
</mgrwt>
</event>
<event>
12    1  0.5759937E-002  0.2515760E+03  0.7546771E-02  0.1112313E+00
          2   -1    0    0  503    0  0.00000000000E+00  0.00000000000E+00  0.44287573127E+03  0.44287573127E+03  0.00000000000E+00 0.  1.
         -2   -1    0    0    0  501 -0.00000000000E+00 -0.00000000000E+00 -0.22569022351E+03  0.22569022351E+03  0.00000000000E+00 0. -1.
          6    2    1    2  503    0 -0.16964491947E+03  0.63982152745E+02 -0.93990639859E+02  0.26811450441E+03  0.17371825616E+03 0.  0.
         24    2    3    3    0    0 -0.62237861568E+02 -0.31529278994E+02 -0.44292014450E+02  0.11596078922E+03  0.81347865648E+02 0.  0.
         -6    2    1    2    0  501  0.16964491947E+03 -0.63982152745E+02  0.31117614762E+03  0.40045145037E+03  0.17509327422E+03 0.  0.
        -24    2    5    5    0    0  0.12500708550E+03 -0.10895887946E+03  0.26311149268E+03  0.32077872465E+03  0.78565410777E+02 0.  0.
          2    1    4    4  502    0 -0.74526486066E+02 -0.13965256566E+01 -0.32965526219E+02  0.81503824009E+02  0.00000000000E+00 0. -1.
         -1    1    4    4    0  502  0.12288624497E+02 -0.30132753337E+02 -0.11326488231E+02  0.34456965209E+02  0.00000000000E+00 0.  1.
          5    1    3    3  503    0 -0.10740705790E+03  0.95511431739E+02 -0.49698625409E+02  0.15215371520E+03  0.47000000000E+01 0. -1.
         13    1    6    6    0    0  0.40676553224E+02 -0.10445036844E+02  0.22988506407E+02  0.47876426388E+02  0.00000000000E+00 0. -1.
        -14    1    6    6    0    0  0.84330532275E+02 -0.98513842617E+02  0.24012298627E+03  0.27290229826E+03  0.00000000000E+00 0.  1.
         -5    1    5    5    0  501  0.44637833972E+02  0.44976726716E+02  0.48064654942E+02  0.79672725713E+02  0.47000000000E+01 0.  1.
<mgrwt>
<rscale>  2 0.25157604E+03</rscale>
<asrwt>0</asrwt>
<pdfrwt beam="1">  1        2 0.68134728E-01 0.25157604E+03</pdfrwt>
<pdfrwt beam="2">  1       -2 0.34721573E-01 0.25157604E+03</pdfrwt>
<totfact> 0.55891971E+02</totfact>
</mgrwt>
</event>
<event>
12    1  0.5759937E-002  0.3914635E+03  0.7546771E-02  0.1046776E+00
          2   -1    0    0  503    0  0.00000000000E+00  0.00000000000E+00  0.28056733238E+04  0.28056733238E+04  0.00000000000E+00 0. -1.
         -2   -1    0    0    0  501 -0.00000000000E+00 -0.00000000000E+00 -0.56661407150E+02  0.56661407150E+02  0.00000000000E+00 0.  1.
          6    2    1    2  503    0  0.73596259973E+02  0.34362673582E+03  0.16472261822E+04  0.16931726535E+04  0.17315829817E+03 0.  0.
         24    2    3    3    0    0  0.68018069274E+02  0.18931435545E+03  0.67533685911E+03  0.70908202086E+03  0.79063620597E+02 0.  0.
         -6    2    1    2    0  501 -0.73596259973E+02 -0.34362673582E+03  0.11017857345E+04  0.11691620775E+04  0.17179177986E+03 0.  0.
        -24    2    5    5    0    0 -0.44732728054E+02 -0.18579987546E+03  0.41323095207E+03  0.46214567051E+03  0.79348537103E+02 0.  0.
          2    1    4    4  502    0  0.10233016166E+02  0.25389984187E+02  0.22004621642E+03  0.22174242552E+03  0.00000000000E+00 0. -1.
         -1    1    4    4    0  502  0.57785053108E+02  0.16392437127E+03  0.45529064270E+03  0.48733959534E+03  0.00000000000E+00 0.  1.
          5    1    3    3  503    0  0.55781906988E+01  0.15431238037E+03  0.97188932305E+03  0.98409063262E+03  0.47000000000E+01 0. -1.
         11    1    6    6    0    0  0.21298873668E+02 -0.63929465027E+02  0.11523362495E+03  0.13348935102E+03  0.00000000000E+00 0. -1.
        -12    1    6    6    0    0 -0.66031601721E+02 -0.12187041044E+03  0.29799732712E+03  0.32865631949E+03  0.00000000000E+00 0.  1.
         -5    1    5    5    0  501 -0.28863531919E+02 -0.15782686036E+03  0.68855478242E+03  0.70701640696E+03  0.47000000000E+01 0.  1.
<mgrwt>
<rscale>  2 0.39146349E+03</rscale>
<asrwt>0</asrwt>
<pdfrwt beam="1">  1        2 0.43164194E+00 0.39146349E+03</pdfrwt>
<pdfrwt beam="2">  1       -2 0.87171418E-02 0.39146349E+03</pdfrwt>
<totfact> 0.21717749E+02</totfact>
</mgrwt>
</event>
<event>
12    1  0.5759937E-002  0.1846181E+03  0.7546771E-02  0.1163407E+00
         -2   -1    0    0    0  501 -0.00000000000E+00  0.00000000000E+00  0.16375021112E+02  0.16375021112E+02  0.00000000000E+00 0.  1.
          2   -1    0    0  503    0  0.00000000000E+00 -0.00000000000E+00 -0.21759014245E+04  0.21759014245E+04  0.00000000000E+00 0. -1.
          6    2    1    2  503    0 -0.54241496906E+02  0.31494643458E+02 -0.13082999671E+04  0.13212658995E+04  0.17366842163E+03 0.  0.
         24    2    3    3    0    0 -0.10137825799E+02 -0.32482542506E+02 -0.40244108028E+03  0.41206810639E+03  0.81752126154E+02 0.  0.
         -6    2    1    2    0  501  0.54241496906E+02 -0.31494643458E+02 -0.85122643632E+03  0.87101054616E+03  0.17360550993E+03 0.  0.
        -24    2    5    5    0    0 -0.21787375676E+02 -0.18159116922E+02 -0.24673215464E+03  0.26158979470E+03  0.82146340689E+02 0.  0.
          4    1    4    4  502    0  0.20714416487E+02 -0.42473063066E+02 -0.32013101277E+03  0.32359992811E+03  0.00000000000E+00 0. -1.
         -3    1    4    4    0  502 -0.30852242286E+02  0.99905205593E+01 -0.82310067505E+02  0.88468178278E+02  0.00000000000E+00 0.  1.
          5    1    3    3  503    0 -0.44103671106E+02  0.63977185964E+02 -0.90585888682E+03  0.90919779309E+03  0.47000000000E+01 0. -1.
         11    1    6    6    0    0 -0.62498077443E+01  0.96869973697E+01 -0.21907797711E+03  0.21938107956E+03  0.00000000000E+00 0. -1.
        -12    1    6    6    0    0 -0.15537567932E+02 -0.27846114292E+02 -0.27654177534E+02  0.42208715137E+02  0.00000000000E+00 0.  1.
         -5    1    5    5    0  501  0.76028872582E+02 -0.13335526535E+02 -0.60449428168E+03  0.60942075146E+03  0.47000000000E+01 0.  1.
<mgrwt>
<rscale>  2 0.18461811E+03</rscale>
<asrwt>0</asrwt>
<pdfrwt beam="2">  1        2 0.33475379E+00 0.18461811E+03</pdfrwt>
<pdfrwt beam="1">  1       -2 0.25192361E-02 0.18461811E+03</pdfrwt>
<totfact> 0.33015956E+03</totfact>
</mgrwt>
</event>
<event>
12    1  0.5759937E-002  0.1822177E+03  0.7546771E-02  0.1165674E+00
          1   -1    0    0  503    0  0.00000000000E+00  0.00000000000E+00  0.26160722850E+04  0.26160722850E+04  0.00000000000E+00 0. -1.
         -1   -1    0    0    0  501 -0.00000000000E+00 -0.00000000000E+00 -0.38522622835E+02  0.38522622835E+02  0.00000000000E+00 0.  1.
          6    2    1    2  503    0 -0.49639211518E+02  0.26245063130E+02  0.20153812650E+03  0.27159435489E+03  0.17318493733E+03 0.  0.
         24    2    3    3    0    0 -0.80094279172E+02 -0.12993834821E+02  0.18898358570E+03  0.22014623780E+03  0.78521570623E+02 0.  0.
         -6    2    1    2    0  501  0.49639211518E+02 -0.26245063130E+02  0.23760115357E+04  0.23830005529E+04  0.17351646332E+03 0.  0.
        -24    2    5    5    0    0 -0.25252867775E+02 -0.33909899205E+02  0.17747016332E+04  0.17769780600E+04  0.79357103870E+02 0.  0.
          2    1    4    4  502    0 -0.23782309284E+02  0.78646890259E+01  0.14119793678E+03  0.14340261127E+03  0.00000000000E+00 0. -1.
         -1    1    4    4    0  502 -0.56311969888E+02 -0.20858523847E+02  0.47785648917E+02  0.76743626525E+02  0.00000000000E+00 0.  1.
          5    1    3    3  503    0  0.30455067654E+02  0.39238897950E+02  0.12554540803E+02  0.51448117098E+02  0.47000000000E+01 0. -1.
         13    1    6    6    0    0 -0.21382691692E+01 -0.54321760098E+02  0.13814290591E+04  0.13824983440E+04  0.00000000000E+00 0. -1.
        -14    1    6    6    0    0 -0.23114598606E+02  0.20411860893E+02  0.39327257413E+03  0.39447971595E+03  0.00000000000E+00 0.  1.
         -5    1    5    5    0  501  0.74892079293E+02  0.76648360751E+01  0.60130990242E+03  0.60602249298E+03  0.47000000000E+01 0.  1.
<mgrwt>
<rscale>  2 0.18221772E+03</rscale>
<asrwt>0</asrwt>
<pdfrwt beam="1">  1        1 0.40247252E+00 0.18221772E+03</pdfrwt>
<pdfrwt beam="2">  1       -1 0.59265594E-02 0.18221772E+03</pdfrwt>
<totfact> 0.18553421E+02</totfact>
</mgrwt>
</event>
<event>
12    1  0.5759937E-002  0.2379473E+03  0.7546771E-02  0.1121168E+00
          2   -1    0    0  503    0  0.00000000000E+00  0.00000000000E+00  0.24387666112E+03  0.24387666112E+03  0.00000000000E+00 0.  1.
         -2   -1    0    0    0  501 -0.00000000000E+00 -0.00000000000E+00 -0.31473740872E+03  0.31473740872E+03  0.00000000000E+00 0. -1.
          6    2    1    2  503    0  0.15781264147E+03 -0.38847095357E+02  0.10769806103E+03  0.26064555266E+03  0.17298354009E+03 0.  0.
         24    2    3    3    0    0  0.14869534016E+03 -0.47954292879E+02  0.14008034536E+03  0.22547783212E+03  0.82509582645E+02 0.  0.
         -6    2    1    2    0  501 -0.15781264147E+03  0.38847095357E+02 -0.17855880863E+03  0.29796851718E+03  0.17460831156E+03 0.  0.
        -24    2    5    5    0    0 -0.73916363031E+02 -0.37829109272E+02 -0.13173627107E+03  0.17495524182E+03  0.79750995558E+02 0.  0.
          4    1    4    4  502    0  0.59794177540E+00 -0.87707266265E+01  0.43504197619E+02  0.44383537381E+02  0.00000000000E+00 0. -1.
         -3    1    4    4    0  502  0.14809739839E+03 -0.39183566253E+02  0.96576147738E+02  0.18109429474E+03  0.00000000000E+00 0.  1.
          5    1    3    3  503    0  0.91173013052E+01  0.91071975221E+01 -0.32382284325E+02  0.35167720539E+02  0.47000000000E+01 0. -1.
         11    1    6    6    0    0 -0.45968036865E+02  0.20505199897E+02 -0.53840175286E+02  0.73704057628E+02  0.00000000000E+00 0. -1.
        -12    1    6    6    0    0 -0.27948326167E+02 -0.58334309169E+02 -0.77896095779E+02  0.10125118419E+03  0.00000000000E+00 0.  1.
         -5    1    5    5    0  501 -0.83896278438E+02  0.76676204629E+02 -0.46822537563E+02  0.12301327536E+03  0.47000000000E+01 0.  1.
<mgrwt>
<rscale>  2 0.23794728E+03</rscale>
<asrwt>0</asrwt>
<pdfrwt beam="1">  1        2 0.37519486E-01 0.23794728E+03</pdfrwt>
<pdfrwt beam="2">  1       -2 0.48421140E-01 0.23794728E+03</pdfrwt>
<totfact> 0.56301903E+02</totfact>
</mgrwt>
</event>
<event>
12    1  0.5759937E-002  0.1927032E+03  0.7546771E-02  0.1156046E+00
         -2   -1    0    0    0  501 -0.00000000000E+00  0.00000000000E+00  0.55518021581E+02  0.55518021581E+02  0.00000000000E+00 0.  1.
          2   -1    0    0  503    0  0.00000000000E+00 -0.00000000000E+00 -0.91495915737E+03  0.91495915737E+03  0.00000000000E+00 0. -1.
          6    2    1    2  503    0 -0.33801626452E+02  0.77902232750E+02 -0.68158261999E+03  0.70833570846E+03  0.17312798789E+03 0.  0.
         24    2    3    3    0    0 -0.25520934139E+02  0.62038912611E+02 -0.19272684656E+03  0.21912995215E+03  0.79838297750E+02 0.  0.
         -6    2    1    2    0  501  0.33801626452E+02 -0.77902232750E+02 -0.17785851580E+03  0.26214147049E+03  0.17283862731E+03 0.  0.
        -24    2    5    5    0    0 -0.23083312936E+02 -0.67375906629E+02 -0.17313253283E+03  0.20390810560E+03  0.80816393614E+02 0.  0.
          4    1    4    4  502    0 -0.47619998468E+02  0.24233868039E+02 -0.14412331734E+03  0.15370906029E+03  0.00000000000E+00 0. -1.
         -3    1    4    4    0  502  0.22099064329E+02  0.37805044573E+02 -0.48603529222E+02  0.65420891863E+02  0.00000000000E+00 0.  1.
          5    1    3    3  503    0 -0.82806923123E+01  0.15863320138E+02 -0.48885577343E+03  0.48920575631E+03  0.47000000000E+01 0. -1.
         13    1    6    6    0    0 -0.31713702996E+02  0.40162603324E+01 -0.80670259754E+02  0.86773153185E+02  0.00000000000E+00 0. -1.
        -14    1    6    6    0    0  0.86303900600E+01 -0.71392166961E+02 -0.92462273076E+02  0.11713495242E+03  0.00000000000E+00 0.  1.
         -5    1    5    5    0  501  0.56884939388E+02 -0.10526326121E+02 -0.47259829690E+01  0.58233364885E+02  0.47000000000E+01 0.  1.
<mgrwt>
<rscale>  2 0.19270319E+03</rscale>
<asrwt>0</asrwt>
<pdfrwt beam="2">  1        2 0.14076293E+00 0.19270319E+03</pdfrwt>
<pdfrwt beam="1">  1       -2 0.85412349E-02 0.19270319E+03</pdfrwt>
<totfact> 0.25170915E+03</totfact>
</mgrwt>
</event>
<event>
12    1  0.5759937E-002  0.2127994E+03  0.7546771E-02  0.1139368E+00
         -1   -1    0    0    0  501 -0.00000000000E+00  0.00000000000E+00  0.25426083687E+03  0.25426083687E+03  0.00000000000E+00 0.  1.
          1   -1    0    0  503    0  0.00000000000E+00 -0.00000000000E+00 -0.17924883703E+03  0.17924883703E+03  0.00000000000E+00 0. -1.
          6    2    1    2  503    0  0.54707485564E+01  0.12241468032E+03  0.54972525477E+02  0.22044670291E+03  0.17481272042E+03 0.  0.
         24    2    3    3    0    0  0.89561027162E+01 -0.43014825392E+01  0.74976318813E+01  0.85002658577E+02  0.84086401715E+02 0.  0.
         -6    2    1    2    0  501 -0.54707485564E+01 -0.12241468032E+03  0.20039474358E+02  0.21306297098E+03  0.17314435025E+03 0.  0.
        -24    2    5    5    0    0 -0.51154356363E+02 -0.12091944550E+03  0.23292854755E+02  0.16699886095E+03  0.10053746565E+03 0.  0.
          2    1    4    4  502    0 -0.26529645011E+02  0.95217197159E+01 -0.22867231416E+02  0.36295943071E+02  0.00000000000E+00 0. -1.
         -1    1    4    4    0  502  0.35485747728E+02 -0.13823202255E+02  0.30364863297E+02  0.48706715506E+02  0.00000000000E+00 0.  1.
          5    1    3    3  503    0 -0.34853541598E+01  0.12671616286E+03  0.47474893596E+02  0.13544404434E+03  0.47000000000E+01 0. -1.
         13    1    6    6    0    0 -0.66060666557E+02 -0.13144541346E+03  0.20260128516E+02  0.14850044173E+03  0.00000000000E+00 0. -1.
        -14    1    6    6    0    0  0.14906310194E+02  0.10525967962E+02  0.30327262389E+01  0.18498419218E+02  0.00000000000E+00 0.  1.
         -5    1    5    5    0  501  0.45683607806E+02 -0.14952348213E+01 -0.32533803975E+01  0.46064110036E+02  0.47000000000E+01 0.  1.
<mgrwt>
<rscale>  2 0.21279939E+03</rscale>
<asrwt>0</asrwt>
<pdfrwt beam="2">  1        1 0.27576744E-01 0.21279939E+03</pdfrwt>
<pdfrwt beam="1">  1       -1 0.39117052E-01 0.21279939E+03</pdfrwt>
<totfact> 0.10805872E+03</totfact>
</mgrwt>
</event>
<event>
12    1  0.5759937E-002  0.1807225E+03  0.7546771E-02  0.1167106E+00
          2   -1    0    0  503    0  0.00000000000E+00  0.00000000000E+00  0.18283215351E+04  0.18283215351E+04  0.00000000000E+00 0.  1.
         -2   -1    0    0    0  501 -0.00000000000E+00 -0.00000000000E+00 -0.21069107761E+02  0.21069107761E+02  0.00000000000E+00 0. -1.
          6    2    1    2  503    0 -0.20387076811E+02 -0.36992618219E+02  0.53181385937E+03  0.56082945379E+03  0.17297285488E+03 0.  0.
         24    2    3    3    0    0 -0.43170378901E+02  0.10985158733E+02  0.15656352564E+03  0.18180986473E+03  0.80983541685E+02 0.  0.
         -6    2    1    2    0  501  0.20387076811E+02  0.36992618219E+02  0.12754385680E+04  0.12885611891E+04  0.17850016974E+03 0.  0.
        -24    2    5    5    0    0  0.71758509867E+02  0.24133058079E+02  0.54517541271E+03  0.55636534208E+03  0.81206372948E+02 0.  0.
          2    1    4    4  502    0 -0.17028420196E+01  0.19615100464E+02  0.73468321538E-01  0.19689013047E+02  0.00000000000E+00 0. -1.
         -1    1    4    4    0  502 -0.41467536882E+02 -0.86299417310E+01  0.15649005732E+03  0.16212085168E+03  0.00000000000E+00 0.  1.
          5    1    3    3  503    0  0.22783302090E+02 -0.47977776952E+02  0.37525033372E+03  0.37901958906E+03  0.47000000000E+01 0. -1.
         11    1    6    6    0    0 -0.50768897160E+01 -0.20613654643E+02  0.80037781863E+02  0.82805459316E+02  0.00000000000E+00 0. -1.
        -12    1    6    6    0    0  0.76835399583E+02  0.44746712722E+02  0.46513763085E+03  0.47355988276E+03  0.00000000000E+00 0.  1.
         -5    1    5    5    0  501 -0.51371433056E+02  0.12859560140E+02  0.73026315524E+03  0.73219584697E+03  0.47000000000E+01 0.  1.
<mgrwt>
<rscale>  2 0.18072245E+03</rscale>
<asrwt>0</asrwt>
<pdfrwt beam="1">  1        2 0.28128011E+00 0.18072245E+03</pdfrwt>
<pdfrwt beam="2">  1       -2 0.32414026E-02 0.18072245E+03</pdfrwt>
<totfact> 0.34459493E+03</totfact>
</mgrwt>
</event>
<event>
12    1  0.5759937E-002  0.2425555E+03  0.7546771E-02  0.1118102E+00
          2   -1    0    0  503    0  0.00000000000E+00  0.00000000000E+00  0.25853787411E+03  0.25853787411E+03  0.00000000000E+00 0. -1.
         -2   -1    0    0    0  501 -0.00000000000E+00 -0.00000000000E+00 -0.41751017008E+03  0.41751017008E+03  0.00000000000E+00 0.  1.
          6    2    1    2  503    0 -0.70711983926E+02  0.15465247955E+03  0.14848170442E+03  0.28454170160E+03  0.17320389517E+03 0.  0.
         24    2    3    3    0    0 -0.88978739705E+02  0.79806534296E+02  0.36098440493E+02  0.14820506714E+03  0.79845760581E+02 0.  0.
         -6    2    1    2    0  501  0.70711983926E+02 -0.15465247955E+03 -0.30745400039E+03  0.39150634259E+03  0.17271849879E+03 0.  0.
        -24    2    5    5    0    0  0.38260001386E+02 -0.15991705903E+03 -0.16822634579E+03  0.24837257028E+03  0.79696529249E+02 0.  0.
          4    1    4    4  502    0 -0.72239023586E+02  0.67874024413E+02  0.60632697289E+02  0.11619674565E+03  0.00000000000E+00 0. -1.
         -3    1    4    4    0  502 -0.16739716119E+02  0.11932509882E+02 -0.24534256797E+02  0.32008321487E+02  0.00000000000E+00 0.  1.
          5    1    3    3  503    0  0.18266755779E+02  0.74845945254E+02  0.11238326393E+03  0.13633663447E+03  0.47000000000E+01 0. -1.
         13    1    6    6    0    0  0.71422521916E+01 -0.24889102659E+02  0.51759480979E+01  0.26405863672E+02  0.00000000000E+00 0. -1.
        -14    1    6    6    0    0  0.31117749194E+02 -0.13502795637E+03 -0.17340229389E+03  0.22196670660E+03  0.00000000000E+00 0.  1.
         -5    1    5    5    0  501  0.32451982540E+02  0.52645794790E+01 -0.13922765461E+03  0.14313377231E+03  0.47000000000E+01 0.  1.
<mgrwt>
<rscale>  2 0.24255546E+03</rscale>
<asrwt>0</asrwt>
<pdfrwt beam="1">  1        2 0.39775058E-01 0.24255546E+03</pdfrwt>
<pdfrwt beam="2">  1       -2 0.64232334E-01 0.24255546E+03</pdfrwt>
<totfact> 0.29660832E+02</totfact>
</mgrwt>
</event>
<event>
12    1  0.5759937E-002  0.2227694E+03  0.7546771E-02  0.1131835E+00
         -2   -1    0    0    0  501 -0.00000000000E+00  0.00000000000E+00  0.44835299915E+02  0.44835299915E+02  0.00000000000E+00 0. -1.
          2   -1    0    0  503    0  0.00000000000E+00 -0.00000000000E+00 -0.11154774197E+04  0.11154774197E+04  0.00000000000E+00 0.  1.
          6    2    1    2  503    0 -0.10043996140E+03  0.94885928218E+02 -0.58964046593E+03  0.63083403901E+03  0.17659043150E+03 0.  0.
         24    2    3    3    0    0 -0.17137919570E+02  0.27058693258E+02 -0.11483181104E+03  0.14400233018E+03  0.80774037295E+02 0.  0.
         -6    2    1    2    0  501  0.10043996140E+03 -0.94885928218E+02 -0.48100165387E+03  0.52947868061E+03  0.17289753318E+03 0.  0.
        -24    2    5    5    0    0  0.61239041329E+02 -0.56864729210E+01 -0.12802932377E+03  0.16327544364E+03  0.80528296839E+02 0.  0.
          4    1    4    4  502    0  0.14912200842E+02  0.24547573003E+02 -0.44878258084E+01  0.29070563372E+02  0.00000000000E+00 0. -1.
         -3    1    4    4    0  502 -0.32050120412E+02  0.25111202552E+01 -0.11034398523E+03  0.11493176681E+03  0.00000000000E+00 0.  1.
          5    1    3    3  503    0 -0.83302041829E+02  0.67827234960E+02 -0.47480865488E+03  0.48683170883E+03  0.47000000000E+01 0. -1.
         13    1    6    6    0    0  0.37239954447E+02  0.36140139181E+02 -0.78886551555E+02  0.94424635998E+02  0.00000000000E+00 0. -1.
        -14    1    6    6    0    0  0.23999086882E+02 -0.41826612102E+02 -0.49142772219E+02  0.68850807639E+02  0.00000000000E+00 0.  1.
         -5    1    5    5    0  501  0.39200920070E+02 -0.89199455297E+02 -0.35297233009E+03  0.36620323697E+03  0.47000000000E+01 0.  1.
<mgrwt>
<rscale>  2 0.22276938E+03</rscale>
<asrwt>0</asrwt>
<pdfrwt beam="2">  1        2 0.17161190E+00 0.22276938E+03</pdfrwt>
<pdfrwt beam="1">  1       -2 0.68977387E-02 0.22276938E+03</pdfrwt>
<totfact> 0.26594350E+03</totfact>
</mgrwt>
</event>
<event>
12    1  0.5759937E-002  0.2043391E+03  0.7546771E-02  0.1146129E+00
         -1   -1    0    0    0  501 -0.00000000000E+00  0.00000000000E+00  0.53559767299E+02  0.53559767299E+02  0.00000000000E+00 0.  1.
          1   -1    0    0  503    0  0.00000000000E+00 -0.00000000000E+00 -0.79101791793E+03  0.79101791793E+03  0.00000000000E+00 0. -1.
          6    2    1    2  503    0  0.10690552111E+03  0.21819557075E+02 -0.41887764893E+03  0.46591032735E+03  0.17236317718E+03 0.  0.
         24    2    3    3    0    0  0.13182365249E+03  0.51885157725E+02 -0.31022360145E+03  0.35035667901E+03  0.80259421118E+02 0.  0.
         -6    2    1    2    0  501 -0.10690552111E+03 -0.21819557075E+02 -0.31858050170E+03  0.37866735788E+03  0.17317779401E+03 0.  0.
        -24    2    5    5    0    0 -0.56247923961E+02 -0.38102244849E+02 -0.30684471507E+03  0.32397607193E+03  0.78684217009E+02 0.  0.
          4    1    4    4  502    0  0.13495084089E+03  0.42229335996E+02 -0.30939069667E+03  0.34017296991E+03  0.00000000000E+00 0. -1.
         -3    1    4    4    0  502 -0.31271883973E+01  0.96558217294E+01 -0.83290478606E+00  0.10183709095E+02  0.00000000000E+00 0.  1.
          5    1    3    3  503    0 -0.24918131375E+02 -0.30065600650E+02 -0.10865404747E+03  0.11555364834E+03  0.47000000000E+01 0. -1.
         13    1    6    6    0    0 -0.16640078886E+01  0.22381474225E+02 -0.70065868711E+02  0.73572585037E+02  0.00000000000E+00 0. -1.
        -14    1    6    6    0    0 -0.54583916072E+02 -0.60483719074E+02 -0.23677884636E+03  0.25040348689E+03  0.00000000000E+00 0.  1.
         -5    1    5    5    0  501 -0.50657597152E+02  0.16282687775E+02 -0.11735786637E+02  0.54691285945E+02  0.47000000000E+01 0.  1.
<mgrwt>
<rscale>  2 0.20433906E+03</rscale>
<asrwt>0</asrwt>
<pdfrwt beam="2">  1        1 0.12169507E+00 0.20433906E+03</pdfrwt>
<pdfrwt beam="1">  1       -1 0.82399639E-02 0.20433906E+03</pdfrwt>
<totfact> 0.19210627E+03</totfact>
</mgrwt>
</event>
<event>
12    1  0.5759937E-002  0.2222638E+03  0.7546771E-02  0.1132206E+00
          2   -1    0    0  503    0  0.00000000000E+00  0.00000000000E+00  0.35208138642E+02  0.35208138642E+02  0.00000000000E+00 0. -1.
         -2   -1    0    0    0  501 -0.00000000000E+00 -0.00000000000E+00 -0.14031943020E+04  0.14031943020E+04  0.00000000000E+00 0.  1.
          6    2    1    2  503    0 -0.13280022541E+03 -0.46759602314E+02 -0.67747427872E+03  0.71285403242E+03  0.17136835453E+03 0.  0.
         24    2    3    3    0    0 -0.11271426286E+03  0.27578814456E+02 -0.48995455397E+03  0.51008474661E+03  0.81644887809E+02 0.  0.
         -6    2    1    2    0  501  0.13280022541E+03  0.46759602314E+02 -0.69051188467E+03  0.72554840825E+03  0.17260205552E+03 0.  0.
        -24    2    5    5    0    0  0.94377571179E+02  0.90193537052E+02 -0.58808584566E+03  0.60775201395E+03  0.80470792959E+02 0.  0.
          2    1    4    4  502    0 -0.92074585130E+02 -0.36297024408E+01 -0.23535674090E+03  0.25275224916E+03  0.00000000000E+00 0. -1.
         -1    1    4    4    0  502 -0.20639677733E+02  0.31208516897E+02 -0.25459781307E+03  0.25733249745E+03  0.00000000000E+00 0.  1.
          5    1    3    3  503    0 -0.20085962544E+02 -0.74338416771E+02 -0.18751972475E+03  0.20276928581E+03  0.47000000000E+01 0. -1.
         11    1    6    6    0    0  0.28739782909E+02 -0.86852180862E+01 -0.68612858888E+02  0.74894142225E+02  0.00000000000E+00 0. -1.
        -12    1    6    6    0    0  0.65637788270E+02  0.98878755138E+02 -0.51947298678E+03  0.53285787172E+03  0.00000000000E+00 0.  1.
         -5    1    5    5    0  501  0.38422654228E+02 -0.43433934738E+02 -0.10242603901E+03  0.11779639430E+03  0.47000000000E+01 0.  1.
<mgrwt>
<rscale>  2 0.22226380E+03</rscale>
<asrwt>0</asrwt>
<pdfrwt beam="1">  1        2 0.54166373E-02 0.22226380E+03</pdfrwt>
<pdfrwt beam="2">  1       -2 0.21587602E+00 0.22226380E+03</pdfrwt>
<totfact> 0.16222377E+02</totfact>
</mgrwt>
</event>
<event>
12    1  0.5759937E-002  0.2879152E+03  0.7546771E-02  0.1091443E+00
          2   -1    0    0  503    0  0.00000000000E+00  0.00000000000E+00  0.18875181811E+04  0.18875181811E+04  0.00000000000E+00 0.  1.
         -2   -1    0    0    0  501 -0.00000000000E+00 -0.00000000000E+00 -0.67890781813E+02  0.67890781813E+02  0.00000000000E+00 0. -1.
          6    2    1    2  503    0 -0.34644982863E+02 -0.22809156322E+03  0.32947348442E+03  0.43775535399E+03  0.17277423698E+03 0.  0.
         24    2    3    3    0    0 -0.97872149432E+00 -0.23773051083E+03  0.30539209124E+03  0.39499637876E+03  0.79000355467E+02 0.  0.
         -6    2    1    2    0  501  0.34644982863E+02  0.22809156322E+03  0.14901539149E+04  0.15176536090E+04  0.17171997734E+03 0.  0.
        -24    2    5    5    0    0  0.27998961004E+02  0.37709694452E+02  0.60907399276E+03  0.61620291992E+03  0.80801899628E+02 0.  0.
          4    1    4    4  502    0 -0.81287480745E+01 -0.23892813700E+03  0.27797590476E+03  0.36663787969E+03  0.00000000000E+00 0. -1.
         -3    1    4    4    0  502  0.71500265801E+01  0.11976261635E+01  0.27416186480E+02  0.28358499072E+02  0.00000000000E+00 0.  1.
          5    1    3    3  503    0 -0.33666261369E+02  0.96389476108E+01  0.24081393175E+02  0.42758975231E+02  0.47000000000E+01 0. -1.
         11    1    6    6    0    0 -0.11141453058E+02  0.40697671168E+02  0.16186222504E+03  0.16727167216E+03  0.00000000000E+00 0. -1.
        -12    1    6    6    0    0  0.39140414062E+02 -0.29879767166E+01  0.44721176772E+03  0.44893124775E+03  0.00000000000E+00 0.  1.
         -5    1    5    5    0  501  0.66460218590E+01  0.19038186877E+03  0.88107992214E+03  0.90145068904E+03  0.47000000000E+01 0.  1.
<mgrwt>
<rscale>  2 0.28791523E+03</rscale>
<asrwt>0</asrwt>
<pdfrwt beam="1">  1        2 0.29038737E+00 0.28791523E+03</pdfrwt>
<pdfrwt beam="2">  1       -2 0.10444737E-01 0.28791523E+03</pdfrwt>
<totfact> 0.52655750E+02</totfact>
</mgrwt>
</event>
<event>
12    1  0.5759937E-002  0.2044867E+03  0.7546771E-02  0.1146008E+00
         -2   -1    0    0    0  501 -0.00000000000E+00  0.00000000000E+00  0.22455097184E+02  0.22455097184E+02  0.00000000000E+00 0. -1.
          2   -1    0    0  503    0  0.00000000000E+00 -0.00000000000E+00 -0.21291646305E+04  0.21291646305E+04  0.00000000000E+00 0.  1.
          6    2    1    2  503    0 -0.11543623013E+03 -0.45826215587E+02 -0.14694055221E+04  0.14847612727E+04  0.17302567262E+03 0.  0.
         24    2    3    3    0    0  0.81753841216E+01 -0.31263779472E+02 -0.56553835990E+03  0.57235246490E+03  0.81911212561E+02 0.  0.
         -6    2    1    2    0  501  0.11543623013E+03  0.45826215587E+02 -0.63730401123E+03  0.66685845496E+03  0.15204680516E+03 0.  0.
        -24    2    5    5    0    0  0.12585825984E+03  0.73405178026E+02 -0.51893213562E+03  0.54477975572E+03  0.79156800915E+02 0.  0.
          4    1    4    4  502    0 -0.12436768692E+02  0.15643316436E+02 -0.44266028646E+02  0.48568177408E+02  0.00000000000E+00 0. -1.
         -3    1    4    4    0  502  0.20612152813E+02 -0.46907095908E+02 -0.52127233126E+03  0.52378428749E+03  0.00000000000E+00 0.  1.
          5    1    3    3  503    0 -0.12361161425E+03 -0.14562436115E+02 -0.90386716220E+03  0.91240880784E+03  0.47000000000E+01 0. -1.
         11    1    6    6    0    0  0.13172329409E+03  0.54396371653E+02 -0.41041230191E+03  0.43445166476E+03  0.00000000000E+00 0. -1.
        -12    1    6    6    0    0 -0.58650342420E+01  0.19008806373E+02 -0.10851983370E+03  0.11032809095E+03  0.00000000000E+00 0.  1.
         -5    1    5    5    0  501 -0.10422029711E+02 -0.27578962439E+02 -0.11837187562E+03  0.12207869925E+03  0.47000000000E+01 0.  1.
<mgrwt>
<rscale>  2 0.20448673E+03</rscale>
<asrwt>0</asrwt>
<pdfrwt beam="2">  1        2 0.32756390E+00 0.20448673E+03</pdfrwt>
<pdfrwt beam="1">  1       -2 0.34546291E-02 0.20448673E+03</pdfrwt>
<totfact> 0.21853827E+03</totfact>
</mgrwt>
</event>
<event>
12    1  0.5759937E-002  0.1783570E+03  0.7546771E-02  0.1169403E+00
         -1   -1    0    0    0  501 -0.00000000000E+00  0.00000000000E+00  0.83745355181E+02  0.83745355181E+02  0.00000000000E+00 0. -1.
          1   -1    0    0  503    0  0.00000000000E+00 -0.00000000000E+00 -0.38352432199E+03  0.38352432199E+03  0.00000000000E+00 0.  1.
          6    2    1    2  503    0  0.13466013367E+01 -0.53680734787E+02 -0.17044608913E+03  0.24493381008E+03  0.16750303698E+03 0.  0.
         24    2    3    3    0    0 -0.25585538601E+02 -0.45836578203E+02 -0.18838352994E+03  0.21130773780E+03  0.80043700665E+02 0.  0.
         -6    2    1    2    0  501 -0.13466013367E+01  0.53680734787E+02 -0.12933287768E+03  0.22233586709E+03  0.17269281955E+03 0.  0.
        -24    2    5    5    0    0  0.47795411962E+01  0.10324440649E+03 -0.99017524719E+02  0.16372530661E+03  0.79493737712E+02 0.  0.
          2    1    4    4  502    0 -0.33884323577E+02  0.14427062594E+01 -0.13639170655E+03  0.14054510451E+03  0.00000000000E+00 0. -1.
         -1    1    4    4    0  502  0.82987849761E+01 -0.47279284462E+02 -0.51991823386E+02  0.70762633291E+02  0.00000000000E+00 0.  1.
          5    1    3    3  503    0  0.26932139938E+02 -0.78441565847E+01  0.17937440808E+02  0.33626072279E+02  0.47000000000E+01 0. -1.
         11    1    6    6    0    0 -0.13797848562E+02 -0.27896530772E+01  0.40941944981E+01  0.14660328025E+02  0.00000000000E+00 0. -1.
        -12    1    6    6    0    0  0.18577389758E+02  0.10603405957E+03 -0.10311171922E+03  0.14906497858E+03  0.00000000000E+00 0.  1.
         -5    1    5    5    0  501 -0.61261425329E+01 -0.49563671706E+02 -0.30315352961E+02  0.58610560486E+02  0.47000000000E+01 0.  1.
<mgrwt>
<rscale>  2 0.17835702E+03</rscale>
<asrwt>0</asrwt>
<pdfrwt beam="2">  1        1 0.59003742E-01 0.17835702E+03</pdfrwt>
<pdfrwt beam="1">  1       -1 0.12883901E-01 0.17835702E+03</pdfrwt>
<totfact> 0.25780873E+03</totfact>
</mgrwt>
</event>
<event>
12    1  0.5759937E-002  0.2782027E+03  0.7546771E-02  0.1096675E+00
          2   -1    0    0  503    0  0.00000000000E+00  0.00000000000E+00  0.19338650080E+04  0.19338650080E+04  0.00000000000E+00 0.  1.
         -2   -1    0    0    0  501 -0.00000000000E+00 -0.00000000000E+00 -0.40628661208E+02  0.40628661208E+02  0.00000000000E+00 0. -1.
          6    2    1    2  503    0  0.20951599645E+03 -0.63488984391E+02  0.83037181869E+03  0.87614808403E+03  0.17375357251E+03 0.  0.
         24    2    3    3    0    0  0.86697079229E+02 -0.41111140754E+02  0.60950426568E+03  0.62239659086E+03  0.81704081832E+02 0.  0.
         -6    2    1    2    0  501 -0.20951599645E+03  0.63488984391E+02  0.10628645281E+04  0.10983455852E+04  0.16957067993E+03 0.  0.
        -24    2    5    5    0    0 -0.14481691619E+03  0.80028672974E+02  0.56540333431E+03  0.59640010845E+03  0.92928096924E+02 0.  0.
          4    1    4    4  502    0  0.49509585642E+01 -0.42841904976E+02  0.25178192424E+03  0.25544877801E+03  0.00000000000E+00 0. -1.
         -3    1    4    4    0  502  0.81746120664E+02  0.17307642218E+01  0.35772234145E+03  0.36694781285E+03  0.00000000000E+00 0.  1.
          5    1    3    3  503    0  0.12281891722E+03 -0.22377843637E+02  0.22086755301E+03  0.25375149317E+03  0.47000000000E+01 0. -1.
         11    1    6    6    0    0 -0.14668502978E+03  0.77839107543E+02  0.56845027815E+03  0.59220869916E+03  0.00000000000E+00 0. -1.
        -12    1    6    6    0    0  0.18681135931E+01  0.21895654304E+01 -0.30469438364E+01  0.41914092991E+01  0.00000000000E+00 0.  1.
         -5    1    5    5    0  501 -0.64699080254E+02 -0.16539688582E+02  0.49746119380E+03  0.50194547674E+03  0.47000000000E+01 0.  1.
<mgrwt>
<rscale>  2 0.27820268E+03</rscale>
<asrwt>0</asrwt>
<pdfrwt beam="1">  1        2 0.29751762E+00 0.27820268E+03</pdfrwt>
<pdfrwt beam="2">  1       -2 0.62505648E-02 0.27820268E+03</pdfrwt>
<totfact> 0.11177093E+03</totfact>
</mgrwt>
</event>
<event>
12    1  0.5759937E-002  0.2352991E+03  0.7546771E-02  0.1122965E+00
         -3   -1    0    0    0  501 -0.00000000000E+00  0.00000000000E+00  0.73496108611E+03  0.73496108611E+03  0.00000000000E+00 0. -1.
          3   -1    0    0  503    0  0.00000000000E+00 -0.00000000000E+00 -0.78666050385E+02  0.78666050385E+02  0.00000000000E+00 0.  1.
          6    2    1    2  503    0 -0.15277653425E+03  0.46702574541E+02  0.24454627942E+03  0.33944606815E+03  0.17291312999E+03 0.  0.
         24    2    3    3    0    0 -0.14653858274E+03  0.72793578531E+02  0.25118014347E+03  0.31141482344E+03  0.84352038966E+02 0.  0.
         -6    2    1    2    0  501  0.15277653425E+03 -0.46702574541E+02  0.41174875631E+03  0.47418106834E+03  0.17259445926E+03 0.  0.
        -24    2    5    5    0    0  0.14244420698E+03 -0.42203929442E+02  0.19915936159E+03  0.26124132207E+03  0.80691097934E+02 0.  0.
          2    1    4    4  502    0 -0.13229543225E+03  0.31909978097E+02  0.21748461330E+03  0.25655386397E+03  0.00000000000E+00 0. -1.
         -1    1    4    4    0  502 -0.14243150491E+02  0.40883600435E+02  0.33695530168E+02  0.54860959468E+02  0.00000000000E+00 0.  1.
          5    1    3    3  503    0 -0.62379515081E+01 -0.26091003990E+02 -0.66338640477E+01  0.28031244718E+02  0.47000000000E+01 0. -1.
         13    1    6    6    0    0  0.12320213420E+03 -0.63900543802E+02  0.17593848049E+03  0.22409014768E+03  0.00000000000E+00 0. -1.
        -14    1    6    6    0    0  0.19242072782E+02  0.21696614360E+02  0.23220881094E+02  0.37151174388E+02  0.00000000000E+00 0.  1.
         -5    1    5    5    0  501  0.10332327268E+02 -0.44986450989E+01  0.21258939472E+03  0.21293974628E+03  0.47000000000E+01 0.  1.
<mgrwt>
<rscale>  2 0.23529911E+03</rscale>
<asrwt>0</asrwt>
<pdfrwt beam="2">  1        3 0.12102470E-01 0.23529911E+03</pdfrwt>
<pdfrwt beam="1">  1       -3 0.11307093E+00 0.23529911E+03</pdfrwt>
<totfact> 0.90208838E+01</totfact>
</mgrwt>
</event>
<event>
12    1  0.5759937E-002  0.4186402E+03  0.7546771E-02  0.1037510E+00
         -2   -1    0    0    0  501 -0.00000000000E+00  0.00000000000E+00  0.76995093517E+03  0.76995093517E+03  0.00000000000E+00 0.  1.
          2   -1    0    0  503    0  0.00000000000E+00 -0.00000000000E+00 -0.28573035251E+03  0.28573035251E+03  0.00000000000E+00 0. -1.
          6    2    1    2  503    0 -0.35041340731E+03  0.14927744656E+03  0.39487884582E+01  0.41837701078E+03  0.17306189109E+03 0.  0.
         24    2    3    3    0    0 -0.24455775450E+03  0.15744794989E+03  0.33641238901E+02  0.30803251400E+03  0.95676248455E+02 0.  0.
         -6    2    1    2    0  501  0.35041340731E+03 -0.14927744656E+03  0.48027179419E+03  0.63730427690E+03  0.17442027686E+03 0.  0.
        -24    2    5    5    0    0  0.27295408706E+03 -0.17643218143E+03  0.36617197244E+03  0.49666934082E+03  0.83464198509E+02 0.  0.
          2    1    4    4  502    0 -0.23636282583E+03  0.16860495322E+03  0.24339548041E+02  0.29135447359E+03  0.00000000000E+00 0. -1.
         -1    1    4    4    0  502 -0.81949286700E+01 -0.11157003326E+02  0.93016908596E+01  0.16678040412E+02  0.00000000000E+00 0.  1.
          5    1    3    3  503    0 -0.10585565281E+03 -0.81705033267E+01 -0.29692450443E+02  0.11034449678E+03  0.47000000000E+01 0. -1.
         13    1    6    6    0    0 -0.27207909401E+00 -0.16370232196E+02  0.34052739091E+02  0.37784223808E+02  0.00000000000E+00 0. -1.
        -14    1    6    6    0    0  0.27322616615E+03 -0.16006194923E+03  0.33211923334E+03  0.45888511702E+03  0.00000000000E+00 0.  1.
         -5    1    5    5    0  501  0.77459320250E+02  0.27154734864E+02  0.11409982176E+03  0.14063493607E+03  0.47000000000E+01 0.  1.
<mgrwt>
<rscale>  2 0.41864015E+03</rscale>
<asrwt>0</asrwt>
<pdfrwt beam="2">  1        2 0.43958516E-01 0.41864015E+03</pdfrwt>
<pdfrwt beam="1">  1       -2 0.11845399E+00 0.41864015E+03</pdfrwt>
<totfact> 0.65658991E+01</totfact>
</mgrwt>
</event>
<event>
12    1  0.5759937E-002  0.2060057E+03  0.7546771E-02  0.1144769E+00
         -1   -1    0    0    0  501 -0.00000000000E+00  0.00000000000E+00  0.63305798423E+02  0.63305798423E+02  0.00000000000E+00 0. -1.
          1   -1    0    0  503    0  0.00000000000E+00 -0.00000000000E+00 -0.10981802690E+04  0.10981802690E+04  0.00000000000E+00 0.  1.
          6    2    1    2  503    0  0.10192431401E+03 -0.65298267148E+02 -0.15033363416E+03  0.25256445928E+03  0.16289927887E+03 0.  0.
         24    2    3    3    0    0  0.59629915798E+01  0.31651624254E+01 -0.11345448470E+03  0.12896034020E+03  0.60936636955E+02 0.  0.
         -6    2    1    2    0  501 -0.10192431401E+03  0.65298267148E+02 -0.88454083639E+03  0.90892160811E+03  0.17050973277E+03 0.  0.
        -24    2    5    5    0    0  0.20279987892E+01 -0.89374339033E+01 -0.41337909024E+03  0.42072850730E+03  0.77757405443E+02 0.  0.
          4    1    4    4  502    0 -0.74382806847E+01 -0.24544041936E+02 -0.27226520468E+02  0.37403494902E+02  0.00000000000E+00 0. -1.
         -3    1    4    4    0  502  0.13401272264E+02  0.27709204362E+02 -0.86227964231E+02  0.91556845294E+02  0.00000000000E+00 0.  1.
          5    1    3    3  503    0  0.95961322426E+02 -0.68463429574E+02 -0.36879149459E+02  0.12360411909E+03  0.47000000000E+01 0. -1.
         13    1    6    6    0    0  0.68827630109E+01 -0.14003276806E+02 -0.13059277496E+02  0.20347209063E+02  0.00000000000E+00 0. -1.
        -14    1    6    6    0    0 -0.48547642218E+01  0.50658429023E+01 -0.40031981275E+03  0.40038129824E+03  0.00000000000E+00 0.  1.
         -5    1    5    5    0  501 -0.10395231279E+03  0.74235701052E+02 -0.47116174615E+03  0.48819310081E+03  0.47000000000E+01 0.  1.
<mgrwt>
<rscale>  2 0.20600568E+03</rscale>
<asrwt>0</asrwt>
<pdfrwt beam="2">  1        1 0.16895081E+00 0.20600568E+03</pdfrwt>
<pdfrwt beam="1">  1       -1 0.97393536E-02 0.20600568E+03</pdfrwt>
<totfact> 0.86432449E+02</totfact>
</mgrwt>
</event>
<event>
12    1  0.5759937E-002  0.1736079E+03  0.7546771E-02  0.1174137E+00
          1   -1    0    0  503    0  0.00000000000E+00  0.00000000000E+00  0.16400826402E+04  0.16400826402E+04  0.00000000000E+00 0.  1.
         -1   -1    0    0    0  501 -0.00000000000E+00 -0.00000000000E+00 -0.22652173777E+02  0.22652173777E+02  0.00000000000E+00 0. -1.
          6    2    1    2  503    0 -0.86720081361E+01 -0.15279823700E+02  0.44900961390E+03  0.48154358879E+03  0.17310666594E+03 0.  0.
         24    2    3    3    0    0  0.18442739260E+02  0.10974882617E+02  0.43171791550E+03  0.43976306745E+03  0.80935865002E+02 0.  0.
         -6    2    1    2    0  501  0.86720081361E+01  0.15279823700E+02  0.11684208525E+04  0.11811912252E+04  0.17232743575E+03 0.  0.
        -24    2    5    5    0    0 -0.52910561402E+02  0.25445243798E+02  0.48270832717E+03  0.49262786132E+03  0.78916998730E+02 0.  0.
          4    1    4    4  502    0  0.30579770976E+02  0.17625968539E+02  0.76218871996E+02  0.83994723693E+02  0.00000000000E+00 0. -1.
         -3    1    4    4    0  502 -0.12137031716E+02 -0.66510859222E+01  0.35549904351E+03  0.35576834375E+03  0.00000000000E+00 0.  1.
          5    1    3    3  503    0 -0.27114747396E+02 -0.26254706317E+02  0.17291698395E+02  0.41780521341E+02  0.47000000000E+01 0. -1.
         13    1    6    6    0    0  0.26678344524E+01  0.13882047391E+02  0.12098608568E+02  0.18606582430E+02  0.00000000000E+00 0. -1.
        -14    1    6    6    0    0 -0.55578395855E+02  0.11563196406E+02  0.47060971860E+03  0.47402127889E+03  0.00000000000E+00 0.  1.
         -5    1    5    5    0  501  0.61582569539E+02 -0.10165420098E+02  0.68571252536E+03  0.68856336387E+03  0.47000000000E+01 0.  1.
<mgrwt>
<rscale>  2 0.17360791E+03</rscale>
<asrwt>0</asrwt>
<pdfrwt beam="1">  1        1 0.25232031E+00 0.17360791E+03</pdfrwt>
<pdfrwt beam="2">  1       -1 0.34849511E-02 0.17360791E+03</pdfrwt>
<totfact> 0.17511314E+03</totfact>
</mgrwt>
</event>
<event>
12    1  0.5759937E-002  0.1895610E+03  0.7546771E-02  0.1158858E+00
         -1   -1    0    0    0  501 -0.00000000000E+00  0.00000000000E+00  0.78998575234E+02  0.78998575234E+02  0.00000000000E+00 0. -1.
          1   -1    0    0  503    0  0.00000000000E+00 -0.00000000000E+00 -0.45487448065E+03  0.45487448065E+03  0.00000000000E+00 0.  1.
          6    2    1    2  503    0 -0.37528116873E+02  0.70416729151E+02 -0.18624685029E+03  0.26516258569E+03  0.17104511776E+03 0.  0.
         24    2    3    3    0    0 -0.79449170909E+02  0.89286486178E+01 -0.12466731939E+03  0.16845536029E+03  0.80270644463E+02 0.  0.
         -6    2    1    2    0  501  0.37528116873E+02 -0.70416729151E+02 -0.18962905513E+03  0.26871047019E+03  0.17285619151E+03 0.  0.
        -24    2    5    5    0    0 -0.22346667983E+02 -0.84176868943E+02 -0.15545096741E+03  0.19825081515E+03  0.86909513886E+02 0.  0.
          4    1    4    4  502    0 -0.80903701312E+02 -0.40790167072E+01 -0.55823615392E+02  0.98378469690E+02  0.00000000000E+00 0. -1.
         -3    1    4    4    0  502  0.14545304023E+01  0.13007665325E+02 -0.68843704002E+02  0.70076890603E+02  0.00000000000E+00 0.  1.
          5    1    3    3  503    0  0.41921054036E+02  0.61488080533E+02 -0.61579530894E+02  0.96707225398E+02  0.47000000000E+01 0. -1.
         13    1    6    6    0    0  0.75575635155E+01 -0.22483628619E+02  0.45750650683E+01  0.24157018495E+02  0.00000000000E+00 0. -1.
        -14    1    6    6    0    0 -0.29904231498E+02 -0.61693240324E+02 -0.16002603248E+03  0.17409379665E+03  0.00000000000E+00 0.  1.
         -5    1    5    5    0  501  0.59874784856E+02  0.13760139792E+02 -0.34178087719E+02  0.70459655043E+02  0.47000000000E+01 0.  1.
<mgrwt>
<rscale>  2 0.18956100E+03</rscale>
<asrwt>0</asrwt>
<pdfrwt beam="2">  1        1 0.69980691E-01 0.18956100E+03</pdfrwt>
<pdfrwt beam="1">  1       -1 0.12153627E-01 0.18956100E+03</pdfrwt>
<totfact> 0.22735800E+03</totfact>
</mgrwt>
</event>
<event>
12    1  0.5759937E-002  0.2015792E+03  0.7546771E-02  0.1148413E+00
         -1   -1    0    0    0  501 -0.00000000000E+00  0.00000000000E+00  0.83957713863E+03  0.83957713863E+03  0.00000000000E+00 0.  1.
          1   -1    0    0  503    0  0.00000000000E+00 -0.00000000000E+00 -0.48427807992E+02  0.48427807992E+02  0.00000000000E+00 0. -1.
          6    2    1    2  503    0 -0.35691350764E+02  0.85942202569E+02  0.38706283424E+03  0.43417465122E+03  0.17329182153E+03 0.  0.
         24    2    3    3    0    0 -0.23453636062E+02  0.28425758476E+02  0.78477609769E+02  0.12000139685E+03  0.82966880263E+02 0.  0.
         -6    2    1    2    0  501  0.35691350764E+02 -0.85942202569E+02  0.40408649640E+03  0.45383029541E+03  0.18443455683E+03 0.  0.
        -24    2    5    5    0    0  0.24851297747E+02  0.22471755485E+02  0.11258925197E+03  0.14260075542E+03  0.80845958416E+02 0.  0.
          4    1    4    4  502    0  0.51081074304E+01  0.96480572117E+01 -0.16091121832E+02  0.19444844337E+02  0.00000000000E+00 0. -1.
         -3    1    4    4    0  502 -0.28561743492E+02  0.18777701264E+02  0.94568731600E+02  0.10055655251E+03  0.00000000000E+00 0.  1.
          5    1    3    3  503    0 -0.12237714702E+02  0.57516444093E+02  0.30858522447E+03  0.31417325437E+03  0.47000000000E+01 0. -1.
         13    1    6    6    0    0 -0.18229626215E+02  0.20187420638E+02  0.63434238843E+01  0.27930095784E+02  0.00000000000E+00 0. -1.
        -14    1    6    6    0    0  0.43080923961E+02  0.22843348467E+01  0.10624582809E+03  0.11467065964E+03  0.00000000000E+00 0.  1.
         -5    1    5    5    0  501  0.10840053017E+02 -0.10841395805E+03  0.29149724443E+03  0.31122953999E+03  0.47000000000E+01 0.  1.
<mgrwt>
<rscale>  2 0.20157918E+03</rscale>
<asrwt>0</asrwt>
<pdfrwt beam="2">  1        1 0.74504326E-02 0.20157918E+03</pdfrwt>
<pdfrwt beam="1">  1       -1 0.12916570E+00 0.20157918E+03</pdfrwt>
<totfact> 0.52960865E+02</totfact>
</mgrwt>
</event>
<event>
12    1  0.5759937E-002  0.1745416E+03  0.7546771E-02  0.1173193E+00
         -4   -1    0    0    0  501 -0.00000000000E+00  0.00000000000E+00  0.48060201460E+03  0.48060201460E+03  0.00000000000E+00 0. -1.
          4   -1    0    0  503    0  0.00000000000E+00 -0.00000000000E+00 -0.13599232747E+03  0.13599232747E+03  0.00000000000E+00 0.  1.
          6    2    1    2  503    0 -0.17393532883E+02 -0.15562324278E+02  0.39718037558E+03  0.43350492949E+03  0.17213236834E+03 0.  0.
         24    2    3    3    0    0 -0.25111774769E+02 -0.71414055994E+02  0.23797403283E+03  0.26454417440E+03  0.87300694606E+02 0.  0.
         -6    2    1    2    0  501  0.17393532883E+02  0.15562324278E+02 -0.52570688444E+02  0.18308941258E+03  0.17381983428E+03 0.  0.
        -24    2    5    5    0    0 -0.15901337306E+02  0.79437033871E+02 -0.20913961321E+02  0.10426831592E+03  0.62220519505E+02 0.  0.
          2    1    4    4  502    0  0.11260672062E+02 -0.34158072591E+02  0.19119859904E+03  0.19455200059E+03  0.00000000000E+00 0. -1.
         -1    1    4    4    0  502 -0.36372446831E+02 -0.37255983404E+02  0.46775433796E+02  0.69992173810E+02  0.00000000000E+00 0.  1.
          5    1    3    3  503    0  0.77182418862E+01  0.55851731716E+02  0.15920634274E+03  0.16896075510E+03  0.47000000000E+01 0. -1.
         13    1    6    6    0    0 -0.34624102846E+02  0.47362828602E+02  0.51522667635E+01  0.58894922395E+02  0.00000000000E+00 0. -1.
        -14    1    6    6    0    0  0.18722765540E+02  0.32074205269E+02 -0.26066228085E+02  0.45373393521E+02  0.00000000000E+00 0.  1.
         -5    1    5    5    0  501  0.33294870189E+02 -0.63874709593E+02 -0.31656727123E+02  0.78821096659E+02  0.47000000000E+01 0.  1.
<mgrwt>
<rscale>  2 0.17454159E+03</rscale>
<asrwt>0</asrwt>
<pdfrwt beam="2">  1        4 0.20921897E-01 0.17454159E+03</pdfrwt>
<pdfrwt beam="1">  1       -4 0.73938770E-01 0.17454159E+03</pdfrwt>
<totfact> 0.61369353E+01</totfact>
</mgrwt>
</event>
<event>
12    1  0.5759937E-002  0.1911896E+03  0.7546771E-02  0.1157393E+00
          2   -1    0    0  503    0  0.00000000000E+00  0.00000000000E+00  0.87928515924E+03  0.87928515924E+03  0.00000000000E+00 0.  1.
         -2   -1    0    0    0  501 -0.00000000000E+00 -0.00000000000E+00 -0.11468395803E+03  0.11468395803E+03  0.00000000000E+00 0. -1.
          6    2    1    2  503    0  0.68578224397E+02  0.30145534233E+02 -0.16068716315E+02  0.18970430350E+03  0.17354478680E+03 0.  0.
         24    2    3    3    0    0 -0.17761850702E+02  0.24918937879E+02  0.30887103184E+02  0.91170731239E+02  0.80135212523E+02 0.  0.
         -6    2    1    2    0  501 -0.68578224397E+02 -0.30145534233E+02  0.78066991753E+03  0.80426481377E+03  0.17828248498E+03 0.  0.
        -24    2    5    5    0    0 -0.29957996150E+02 -0.37429120591E+02  0.19406061585E+03  0.21632167412E+03  0.82686900209E+02 0.  0.
          2    1    4    4  502    0  0.13577187981E+02  0.31210724960E+02  0.44839324375E+02  0.56293999648E+02  0.00000000000E+00 0. -1.
         -1    1    4    4    0  502 -0.31339038683E+02 -0.62917870818E+01 -0.13952221190E+02  0.34876731590E+02  0.00000000000E+00 0.  1.
          5    1    3    3  503    0  0.86340075099E+02  0.52265963549E+01 -0.46955819499E+02  0.98533572260E+02  0.47000000000E+01 0. -1.
         11    1    6    6    0    0 -0.63199632764E+01  0.11672924576E+02 -0.14548936048E+01  0.13353494650E+02  0.00000000000E+00 0. -1.
        -12    1    6    6    0    0 -0.23638032873E+02 -0.49102045167E+02  0.19551550946E+03  0.20296817947E+03  0.00000000000E+00 0.  1.
         -5    1    5    5    0  501 -0.38620228247E+02  0.72835863576E+01  0.58660930167E+03  0.58794313965E+03  0.47000000000E+01 0.  1.
<mgrwt>
<rscale>  2 0.19118955E+03</rscale>
<asrwt>0</asrwt>
<pdfrwt beam="1">  1        2 0.13527464E+00 0.19118955E+03</pdfrwt>
<pdfrwt beam="2">  1       -2 0.17643686E-01 0.19118955E+03</pdfrwt>
<totfact> 0.82148391E+02</totfact>
</mgrwt>
</event>
<event>
12    1  0.5759937E-002  0.1761491E+03  0.7546771E-02  0.1171583E+00
         -2   -1    0    0    0  501 -0.00000000000E+00  0.00000000000E+00  0.94604777687E+02  0.94604777687E+02  0.00000000000E+00 0. -1.
          2   -1    0    0  503    0  0.00000000000E+00 -0.00000000000E+00 -0.33092277799E+03  0.33092277799E+03  0.00000000000E+00 0.  1.
          6    2    1    2  503    0  0.31442491926E+02  0.69784184286E+01 -0.13869061154E+03  0.22477361270E+03  0.17392746366E+03 0.  0.
         24    2    3    3    0    0  0.12104501312E+02 -0.25424400466E+02 -0.15965497200E+03  0.18135132622E+03  0.81275299731E+02 0.  0.
         -6    2    1    2    0  501 -0.31442491926E+02 -0.69784184286E+01 -0.97627388760E+02  0.20075394298E+03  0.17243465418E+03 0.  0.
        -24    2    5    5    0    0 -0.32359132153E+02 -0.30607626345E+02  0.82328682543E+01  0.92182935285E+02  0.80286818432E+02 0.  0.
          2    1    4    4  502    0  0.20795326713E+02 -0.18562695753E+02 -0.75984309200E+01  0.28892134555E+02  0.00000000000E+00 0. -1.
         -1    1    4    4    0  502 -0.86908254009E+01 -0.68617047136E+01 -0.15205654108E+03  0.15245919167E+03  0.00000000000E+00 0.  1.
          5    1    3    3  503    0  0.19337990614E+02  0.32402818895E+02  0.20964360461E+02  0.43422286477E+02  0.47000000000E+01 0. -1.
         11    1    6    6    0    0  0.71572065101E+01  0.23449734219E+02  0.57147828036E+01  0.25174876017E+02  0.00000000000E+00 0. -1.
        -12    1    6    6    0    0 -0.39516338663E+02 -0.54057360564E+02  0.25180854508E+01  0.67008059268E+02  0.00000000000E+00 0.  1.
         -5    1    5    5    0  501  0.91664022657E+00  0.23629207917E+02 -0.10586025701E+03  0.10857100769E+03  0.47000000000E+01 0.  1.
<mgrwt>
<rscale>  2 0.17614905E+03</rscale>
<asrwt>0</asrwt>
<pdfrwt beam="2">  1        2 0.50911197E-01 0.17614905E+03</pdfrwt>
<pdfrwt beam="1">  1       -2 0.14554581E-01 0.17614905E+03</pdfrwt>
<totfact> 0.34599161E+03</totfact>
</mgrwt>
</event>
<event>
12    1  0.5759937E-002  0.2852967E+03  0.7546771E-02  0.1092831E+00
         -2   -1    0    0    0  501 -0.00000000000E+00  0.00000000000E+00  0.14279835231E+03  0.14279835231E+03  0.00000000000E+00 0. -1.
          2   -1    0    0  503    0  0.00000000000E+00 -0.00000000000E+00 -0.81690545875E+03  0.81690545875E+03  0.00000000000E+00 0.  1.
          6    2    1    2  503    0 -0.22445056249E+03  0.19565190444E+02 -0.72290576769E+02  0.29318755856E+03  0.17312471032E+03 0.  0.
         24    2    3    3    0    0 -0.12916784701E+03  0.57981689608E+02  0.72734764825E+01  0.16316005436E+03  0.80759462907E+02 0.  0.
         -6    2    1    2    0  501  0.22445056249E+03 -0.19565190444E+02 -0.60181652967E+03  0.66651625250E+03  0.17691785603E+03 0.  0.
        -24    2    5    5    0    0  0.14033461733E+03 -0.80462750795E+02 -0.42459612355E+03  0.46105782013E+03  0.78258458210E+02 0.  0.
          4    1    4    4  502    0 -0.98637311940E+02  0.32495841126E+02  0.40367334564E+02  0.11142181428E+03  0.00000000000E+00 0. -1.
         -3    1    4    4    0  502 -0.30530535068E+02  0.25485848481E+02 -0.33093858081E+02  0.51738240085E+02  0.00000000000E+00 0.  1.
          5    1    3    3  503    0 -0.95282715485E+02 -0.38416499163E+02 -0.79564053251E+02  0.13002750420E+03  0.47000000000E+01 0. -1.
         11    1    6    6    0    0  0.49412744512E+01 -0.37142966270E+02 -0.83224887731E+02  0.91271014426E+02  0.00000000000E+00 0. -1.
        -12    1    6    6    0    0  0.13539334287E+03 -0.43319784524E+02 -0.34137123582E+03  0.36978680570E+03  0.00000000000E+00 0.  1.
         -5    1    5    5    0  501  0.84115945168E+02  0.60897560350E+02 -0.17722040611E+03  0.20545843237E+03  0.47000000000E+01 0.  1.
<mgrwt>
<rscale>  2 0.28529667E+03</rscale>
<asrwt>0</asrwt>
<pdfrwt beam="2">  1        2 0.12567776E+00 0.28529667E+03</pdfrwt>
<pdfrwt beam="1">  1       -2 0.21968978E-01 0.28529667E+03</pdfrwt>
<totfact> 0.61881289E+02</totfact>
</mgrwt>
</event>
<event>
12    1  0.5759937E-002  0.3277185E+03  0.7546771E-02  0.1072151E+00
          1   -1    0    0  503    0  0.00000000000E+00  0.00000000000E+00  0.87248109572E+03  0.87248109572E+03  0.00000000000E+00 0.  1.
         -1   -1    0    0    0  501 -0.00000000000E+00 -0.00000000000E+00 -0.15366693441E+03  0.15366693441E+03  0.00000000000E+00 0. -1.
          6    2    1    2  503    0 -0.13762782285E+03 -0.23668043527E+03  0.59141887173E+03  0.67795137843E+03  0.18676922555E+03 0.  0.
         24    2    3    3    0    0 -0.91936214165E+02 -0.15020343733E+03  0.52527843742E+03  0.55978775743E+03  0.80196985563E+02 0.  0.
         -6    2    1    2    0  501  0.13762782285E+03  0.23668043527E+03  0.12739528958E+03  0.34819665169E+03  0.17335599899E+03 0.  0.
        -24    2    5    5    0    0  0.18600237816E+02  0.10706248183E+03  0.84226059507E+01  0.13572319617E+03  0.80879551348E+02 0.  0.
          4    1    4    4  502    0 -0.96854744136E+02 -0.13637405788E+03  0.39876928549E+03  0.43242995753E+03  0.00000000000E+00 0. -1.
         -3    1    4    4    0  502  0.49185299708E+01 -0.13829379458E+02  0.12650915193E+03  0.12735779990E+03  0.00000000000E+00 0.  1.
          5    1    3    3  503    0 -0.45691608681E+02 -0.86476997936E+02  0.66140434315E+02  0.11816362100E+03  0.47000000000E+01 0. -1.
         11    1    6    6    0    0  0.41495730152E+02  0.83574648938E+02  0.28130322404E+02  0.97457337356E+02  0.00000000000E+00 0. -1.
        -12    1    6    6    0    0 -0.22895492336E+02  0.23487832889E+02 -0.19707716453E+02  0.38265858816E+02  0.00000000000E+00 0.  1.
         -5    1    5    5    0  501  0.11902758503E+03  0.12961795344E+03  0.11897268362E+03  0.21247345552E+03  0.47000000000E+01 0.  1.
<mgrwt>
<rscale>  2 0.32771850E+03</rscale>
<asrwt>0</asrwt>
<pdfrwt beam="1">  1        1 0.13422786E+00 0.32771850E+03</pdfrwt>
<pdfrwt beam="2">  1       -1 0.23641067E-01 0.32771850E+03</pdfrwt>
<totfact> 0.30752952E+02</totfact>
</mgrwt>
</event>
<event>
12    1  0.5759937E-002  0.3505526E+03  0.7546771E-02  0.1062388E+00
          2   -1    0    0  503    0  0.00000000000E+00  0.00000000000E+00  0.10275545192E+03  0.10275545192E+03  0.00000000000E+00 0. -1.
         -2   -1    0    0    0  501 -0.00000000000E+00 -0.00000000000E+00 -0.13242130251E+04  0.13242130251E+04  0.00000000000E+00 0.  1.
          6    2    1    2  503    0  0.13686633070E+03 -0.27224000953E+03 -0.83293683735E+03  0.90372994021E+03  0.17348491161E+03 0.  0.
         24    2    3    3    0    0  0.11858903316E+03 -0.28045157339E+03 -0.67756389655E+03  0.74699982147E+03  0.78736621560E+02 0.  0.
         -6    2    1    2    0  501 -0.13686633070E+03  0.27224000953E+03 -0.38852073579E+03  0.52323853677E+03  0.17315654464E+03 0.  0.
        -24    2    5    5    0    0 -0.15168131735E+03  0.21051181196E+03 -0.36101443733E+03  0.45389489495E+03  0.91469703703E+02 0.  0.
          2    1    4    4  502    0  0.53049995844E+02 -0.57399105377E+02 -0.12371390993E+03  0.14633554205E+03  0.00000000000E+00 0. -1.
         -1    1    4    4    0  502  0.65539037317E+02 -0.22305246802E+03 -0.55384998661E+03  0.60066427942E+03  0.00000000000E+00 0.  1.
          5    1    3    3  503    0  0.18277297536E+02  0.82115638605E+01 -0.15537294080E+03  0.15673011874E+03  0.47000000000E+01 0. -1.
         13    1    6    6    0    0 -0.60882212565E+02  0.30801142741E+02 -0.55269717086E+02  0.87807151347E+02  0.00000000000E+00 0. -1.
        -14    1    6    6    0    0 -0.90799104787E+02  0.17971066922E+03 -0.30574472025E+03  0.36608774361E+03  0.00000000000E+00 0.  1.
         -5    1    5    5    0  501  0.14814986656E+02  0.61728197573E+02 -0.27506298461E+02  0.69343641816E+02  0.47000000000E+01 0.  1.
<mgrwt>
<rscale>  2 0.35055257E+03</rscale>
<asrwt>0</asrwt>
<pdfrwt beam="1">  1        2 0.15808531E-01 0.35055257E+03</pdfrwt>
<pdfrwt beam="2">  1       -2 0.20372508E+00 0.35055257E+03</pdfrwt>
<totfact> 0.49644676E+01</totfact>
</mgrwt>
</event>
<event>
12    1  0.5759937E-002  0.1913400E+03  0.7546771E-02  0.1157258E+00
         -2   -1    0    0    0  501 -0.00000000000E+00  0.00000000000E+00  0.30387552924E+02  0.30387552924E+02  0.00000000000E+00 0.  1.
          2   -1    0    0  503    0  0.00000000000E+00 -0.00000000000E+00 -0.12351629991E+04  0.12351629991E+04  0.00000000000E+00 0. -1.
          6    2    1    2  503    0 -0.13341077498E+02 -0.80333067564E+02 -0.50325405354E+03  0.53840958709E+03  0.17317290486E+03 0.  0.
         24    2    3    3    0    0  0.25214694823E+02  0.17148704687E+02 -0.24838156726E+03  0.26278063766E+03  0.80189785320E+02 0.  0.
         -6    2    1    2    0  501  0.13341077498E+02  0.80333067564E+02 -0.70152139260E+03  0.72714096490E+03  0.17311941676E+03 0.  0.
        -24    2    5    5    0    0  0.48512601771E+02  0.10782164787E+03 -0.58763578841E+03  0.60472904142E+03  0.80015082558E+02 0.  0.
          2    1    4    4  502    0  0.25532937736E+02  0.40585495686E+02 -0.22354826596E+03  0.22863276358E+03  0.00000000000E+00 0. -1.
         -1    1    4    4    0  502 -0.31824291362E+00 -0.23436790999E+02 -0.24833301297E+02  0.34147874080E+02  0.00000000000E+00 0.  1.
          5    1    3    3  503    0 -0.38555772320E+02 -0.97481772251E+02 -0.25487248628E+03  0.27562894943E+03  0.47000000000E+01 0. -1.
         13    1    6    6    0    0 -0.19876099678E+02  0.47803869387E+02 -0.21146256454E+03  0.21770779837E+03  0.00000000000E+00 0. -1.
        -14    1    6    6    0    0  0.68388701449E+02  0.60017778486E+02 -0.37617322387E+03  0.38702124305E+03  0.00000000000E+00 0.  1.
         -5    1    5    5    0  501 -0.35171524273E+02 -0.27488580308E+02 -0.11388560419E+03  0.12241192348E+03  0.47000000000E+01 0.  1.
<mgrwt>
<rscale>  2 0.19133996E+03</rscale>
<asrwt>0</asrwt>
<pdfrwt beam="2">  1        2 0.19002503E+00 0.19133996E+03</pdfrwt>
<pdfrwt beam="1">  1       -2 0.46750092E-02 0.19133996E+03</pdfrwt>
<totfact> 0.41091970E+03</totfact>
</mgrwt>
</event>
<event>
12    1  0.5759937E-002  0.2258108E+03  0.7546771E-02  0.1129624E+00
         -2   -1    0    0    0  501 -0.00000000000E+00  0.00000000000E+00  0.15535509242E+03  0.15535509242E+03  0.00000000000E+00 0. -1.
          2   -1    0    0  503    0  0.00000000000E+00 -0.00000000000E+00 -0.33162482134E+03  0.33162482134E+03  0.00000000000E+00 0.  1.
          6    2    1    2  503    0 -0.84286044306E+02  0.11628207469E+03 -0.63184692896E+02  0.23376572334E+03  0.17328718889E+03 0.  0.
         24    2    3    3    0    0 -0.12366245086E+03  0.71016178491E+02 -0.55597423682E+02  0.17310964858E+03  0.80871364215E+02 0.  0.
         -6    2    1    2    0  501  0.84286044306E+02 -0.11628207469E+03 -0.11308503603E+03  0.25321419042E+03  0.17522426402E+03 0.  0.
        -24    2    5    5    0    0  0.27061397460E+02 -0.98247336302E+02 -0.60288893107E+01  0.13040124101E+03  0.81137400909E+02 0.  0.
          2    1    4    4  502    0 -0.11721712322E+03  0.53884176581E+02 -0.16654849776E+02  0.13007975431E+03  0.00000000000E+00 0. -1.
         -1    1    4    4    0  502 -0.64453276437E+01  0.17132001909E+02 -0.38942573907E+02  0.43029894264E+02  0.00000000000E+00 0.  1.
          5    1    3    3  503    0  0.39376406556E+02  0.45265896198E+02 -0.75872692132E+01  0.60656074765E+02  0.47000000000E+01 0. -1.
         13    1    6    6    0    0  0.29418066535E+02 -0.36602204988E+02  0.33006383864E+02  0.57398305066E+02  0.00000000000E+00 0. -1.
        -14    1    6    6    0    0 -0.23566690747E+01 -0.61645131314E+02 -0.39035273175E+02  0.73002935939E+02  0.00000000000E+00 0.  1.
         -5    1    5    5    0  501  0.57224646846E+02 -0.18034738386E+02 -0.10705614672E+03  0.12281294942E+03  0.47000000000E+01 0.  1.
<mgrwt>
<rscale>  2 0.22581084E+03</rscale>
<asrwt>0</asrwt>
<pdfrwt beam="2">  1        2 0.51019204E-01 0.22581084E+03</pdfrwt>
<pdfrwt beam="1">  1       -2 0.23900783E-01 0.22581084E+03</pdfrwt>
<totfact> 0.15026032E+03</totfact>
</mgrwt>
</event>
<event>
12    1  0.5759937E-002  0.2557072E+03  0.7546771E-02  0.1109750E+00
         -1   -1    0    0    0  501 -0.00000000000E+00  0.00000000000E+00  0.63188030586E+02  0.63188030586E+02  0.00000000000E+00 0.  1.
          1   -1    0    0  503    0  0.00000000000E+00 -0.00000000000E+00 -0.17868626899E+04  0.17868626899E+04  0.00000000000E+00 0. -1.
          6    2    1    2  503    0  0.13392404404E+03  0.13295438867E+03 -0.26099208920E+03  0.36512078118E+03  0.17199940461E+03 0.  0.
         24    2    3    3    0    0  0.48413303059E+02  0.58879655274E+01 -0.55112210083E+02  0.10847593448E+03  0.79694144140E+02 0.  0.
         -6    2    1    2    0  501 -0.13392404404E+03 -0.13295438867E+03 -0.14626825701E+04  0.14849299393E+04  0.17310142888E+03 0.  0.
        -24    2    5    5    0    0 -0.32732766950E+02 -0.11379947185E+03 -0.64423498658E+03  0.66001471796E+03  0.80987382809E+02 0.  0.
          2    1    4    4  502    0  0.70013870920E+02  0.82601164025E+01 -0.34354886670E+02  0.78424676488E+02  0.00000000000E+00 0. -1.
         -1    1    4    4    0  502 -0.21600567861E+02 -0.23721508751E+01 -0.20757323414E+02  0.30051257993E+02  0.00000000000E+00 0.  1.
          5    1    3    3  503    0  0.85510740980E+02  0.12706642315E+03 -0.20587987911E+03  0.25664484670E+03  0.47000000000E+01 0. -1.
         13    1    6    6    0    0 -0.28542951475E+02 -0.33480177781E+02 -0.41004904010E+03  0.41240251899E+03  0.00000000000E+00 0. -1.
        -14    1    6    6    0    0 -0.41898154750E+01 -0.80319294065E+02 -0.23418594648E+03  0.24761219898E+03  0.00000000000E+00 0.  1.
         -5    1    5    5    0  501 -0.10119127709E+03 -0.19154916826E+02 -0.81844758350E+03  0.82491522131E+03  0.47000000000E+01 0.  1.
<mgrwt>
<rscale>  2 0.25570724E+03</rscale>
<asrwt>0</asrwt>
<pdfrwt beam="2">  1        1 0.27490186E+00 0.25570724E+03</pdfrwt>
<pdfrwt beam="1">  1       -1 0.97212388E-02 0.25570724E+03</pdfrwt>
<totfact> 0.29710835E+02</totfact>
</mgrwt>
</event>
<event>
12    1  0.5759937E-002  0.2472723E+03  0.7546771E-02  0.1115041E+00
          2   -1    0    0  503    0  0.00000000000E+00  0.00000000000E+00  0.95736132521E+02  0.95736132521E+02  0.00000000000E+00 0.  1.
         -2   -1    0    0    0  501 -0.00000000000E+00 -0.00000000000E+00 -0.65034898748E+03  0.65034898748E+03  0.00000000000E+00 0. -1.
          6    2    1    2  503    0  0.16981703497E+03  0.36836913228E+02 -0.32669733786E+03  0.40939823215E+03  0.17515986522E+03 0.  0.
         24    2    3    3    0    0  0.12012926794E+02  0.20283305779E+02 -0.14098880988E+03  0.16509124117E+03  0.82592678232E+02 0.  0.
         -6    2    1    2    0  501 -0.16981703497E+03 -0.36836913228E+02 -0.22791551710E+03  0.33668688785E+03  0.17668557940E+03 0.  0.
        -24    2    5    5    0    0 -0.31791210202E+02 -0.50843686415E+02 -0.56425313462E+02  0.11605529912E+03  0.81787865609E+02 0.  0.
          4    1    4    4  502    0 -0.95447874259E+01 -0.29805642486E+02 -0.54490580383E+02  0.62838703372E+02  0.00000000000E+00 0. -1.
         -3    1    4    4    0  502  0.21557714220E+02  0.50088948266E+02 -0.86498229497E+02  0.10225253780E+03  0.00000000000E+00 0.  1.
          5    1    3    3  503    0  0.15780410818E+03  0.16553607449E+02 -0.18570852798E+03  0.24430699098E+03  0.47000000000E+01 0. -1.
         13    1    6    6    0    0 -0.40871454289E+01 -0.32349746147E+02 -0.72183226903E+02  0.79206243944E+02  0.00000000000E+00 0. -1.
        -14    1    6    6    0    0 -0.27704064773E+02 -0.18493940268E+02  0.15757913441E+02  0.36849055180E+02  0.00000000000E+00 0.  1.
         -5    1    5    5    0  501 -0.13802582477E+03  0.14006773187E+02 -0.17149020364E+03  0.22063158872E+03  0.47000000000E+01 0.  1.
<mgrwt>
<rscale>  2 0.24727228E+03</rscale>
<asrwt>0</asrwt>
<pdfrwt beam="1">  1        2 0.14728635E-01 0.24727228E+03</pdfrwt>
<pdfrwt beam="2">  1       -2 0.10005369E+00 0.24727228E+03</pdfrwt>
<totfact> 0.34169374E+02</totfact>
</mgrwt>
</event>
<event>
12    1  0.5759937E-002  0.1735983E+03  0.7546771E-02  0.1174147E+00
          2   -1    0    0  503    0  0.00000000000E+00  0.00000000000E+00  0.11429957597E+03  0.11429957597E+03  0.00000000000E+00 0. -1.
         -2   -1    0    0    0  501 -0.00000000000E+00 -0.00000000000E+00 -0.44512891655E+03  0.44512891655E+03  0.00000000000E+00 0.  1.
          6    2    1    2  503    0  0.24919774128E+02  0.71497368462E+00  0.14845506611E+02  0.17122173579E+03  0.16874533301E+03 0.  0.
         24    2    3    3    0    0  0.34124248651E+01 -0.57623500462E+02 -0.17102978528E+02  0.10115933974E+03  0.81293220463E+02 0.  0.
         -6    2    1    2    0  501 -0.24919774128E+02 -0.71497368462E+00 -0.34567484720E+03  0.38820675673E+03  0.17490534483E+03 0.  0.
        -24    2    5    5    0    0  0.29569182599E+02 -0.50768966265E+02 -0.23713015561E+03  0.25675909166E+03  0.79010733172E+02 0.  0.
          2    1    4    4  502    0 -0.44563596854E+00 -0.21171825230E+02  0.32920606480E+02  0.39143468242E+02  0.00000000000E+00 0. -1.
         -1    1    4    4    0  502  0.38580608337E+01 -0.36451675232E+02 -0.50023585008E+02  0.62015871498E+02  0.00000000000E+00 0.  1.
          5    1    3    3  503    0  0.21507349263E+02  0.58338474146E+02  0.31948485139E+02  0.70062396053E+02  0.47000000000E+01 0. -1.
         13    1    6    6    0    0  0.91084029836E+01 -0.56481590005E+02 -0.80867070241E+02  0.99058649616E+02  0.00000000000E+00 0. -1.
        -14    1    6    6    0    0  0.20460779615E+02  0.57126237406E+01 -0.15626308537E+03  0.15770044204E+03  0.00000000000E+00 0.  1.
         -5    1    5    5    0  501 -0.54488956727E+02  0.50053992580E+02 -0.10854469159E+03  0.13144766507E+03  0.47000000000E+01 0.  1.
<mgrwt>
<rscale>  2 0.17359827E+03</rscale>
<asrwt>0</asrwt>
<pdfrwt beam="1">  1        2 0.17584550E-01 0.17359827E+03</pdfrwt>
<pdfrwt beam="2">  1       -2 0.68481372E-01 0.17359827E+03</pdfrwt>
<totfact> 0.64114717E+02</totfact>
</mgrwt>
</event>
<event>
12    1  0.5759937E-002  0.1854216E+03  0.7546771E-02  0.1162657E+00
         -2   -1    0    0    0  501 -0.00000000000E+00  0.00000000000E+00  0.70087673066E+02  0.70087673066E+02  0.00000000000E+00 0.  1.
          2   -1    0    0  503    0  0.00000000000E+00 -0.00000000000E+00 -0.57902266354E+03  0.57902266354E+03  0.00000000000E+00 0. -1.
          6    2    1    2  503    0 -0.64661831084E+02  0.74330287250E+01 -0.12844163230E+03  0.22615612555E+03  0.17439305577E+03 0.  0.
         24    2    3    3    0    0  0.54921297831E+01  0.51692653751E+02 -0.40759092639E+02  0.10536369866E+03  0.82084781908E+02 0.  0.
         -6    2    1    2    0  501  0.64661831084E+02 -0.74330287250E+01 -0.38049335817E+03  0.42295421105E+03  0.17285446688E+03 0.  0.
        -24    2    5    5    0    0  0.54224824975E+02 -0.69463146115E+02 -0.26948248756E+03  0.29527425979E+03  0.82465854043E+02 0.  0.
          4    1    4    4  502    0  0.36249666004E+02  0.16788925531E+02  0.48156775762E+01  0.40238005125E+02  0.00000000000E+00 0. -1.
         -3    1    4    4    0  502 -0.30757536221E+02  0.34903728220E+02 -0.45574770215E+02  0.65125693534E+02  0.00000000000E+00 0.  1.
          5    1    3    3  503    0 -0.70153960867E+02 -0.44259625026E+02 -0.87682539659E+02  0.12079242689E+03  0.47000000000E+01 0. -1.
         13    1    6    6    0    0  0.44470547227E+02 -0.94966366952E+01 -0.18923787538E+03  0.19462473933E+03  0.00000000000E+00 0. -1.
        -14    1    6    6    0    0  0.97542777485E+01 -0.59966509420E+02 -0.80244612179E+02  0.10064952047E+03  0.00000000000E+00 0.  1.
         -5    1    5    5    0  501  0.10437006108E+02  0.62030117390E+02 -0.11101087061E+03  0.12767995126E+03  0.47000000000E+01 0.  1.
<mgrwt>
<rscale>  2 0.18542159E+03</rscale>
<asrwt>0</asrwt>
<pdfrwt beam="2">  1        2 0.89080408E-01 0.18542159E+03</pdfrwt>
<pdfrwt beam="1">  1       -2 0.10782719E-01 0.18542159E+03</pdfrwt>
<totfact> 0.30494637E+03</totfact>
</mgrwt>
</event>
<event>
12    1  0.5759937E-002  0.2058136E+03  0.7546771E-02  0.1144925E+00
          2   -1    0    0  503    0  0.00000000000E+00  0.00000000000E+00  0.39981647320E+04  0.39981647320E+04  0.00000000000E+00 0. -1.
         -2   -1    0    0    0  501 -0.00000000000E+00 -0.00000000000E+00 -0.13217926938E+02  0.13217926938E+02  0.00000000000E+00 0.  1.
          6    2    1    2  503    0  0.68995856441E+02  0.80278940352E+02  0.29130713030E+04  0.29205890495E+04  0.18069544411E+03 0.  0.
         24    2    3    3    0    0 -0.73290875193E+00 -0.19395095039E+01  0.63364176383E+03  0.63860677787E+03  0.79450821445E+02 0.  0.
         -6    2    1    2    0  501 -0.68995856441E+02 -0.80278940352E+02  0.10718755021E+04  0.10907936094E+04  0.17236145129E+03 0.  0.
        -24    2    5    5    0    0 -0.98826010192E+02 -0.71632401499E+02  0.57165601132E+03  0.58958883125E+03  0.76984501197E+02 0.  0.
          4    1    4    4  502    0 -0.19128781246E+02  0.25812660274E+02  0.49427101063E+03  0.49531407778E+03  0.00000000000E+00 0. -1.
         -3    1    4    4    0  502  0.18395872494E+02 -0.27752169778E+02  0.13937075320E+03  0.14329270009E+03  0.00000000000E+00 0.  1.
          5    1    3    3  503    0  0.69728765193E+02  0.82218449856E+02  0.22794295391E+04  0.22819822716E+04  0.47000000000E+01 0. -1.
         11    1    6    6    0    0 -0.96189796636E+01 -0.51453455824E+02  0.18499738165E+03  0.19226027698E+03  0.00000000000E+00 0. -1.
        -12    1    6    6    0    0 -0.89207030529E+02 -0.20178945675E+02  0.38665862966E+03  0.39732855427E+03  0.00000000000E+00 0.  1.
         -5    1    5    5    0  501  0.29830153751E+02 -0.86465388527E+01  0.50021949079E+03  0.50120477818E+03  0.47000000000E+01 0.  1.
<mgrwt>
<rscale>  2 0.20581364E+03</rscale>
<asrwt>0</asrwt>
<pdfrwt beam="1">  1        2 0.61510130E+00 0.20581364E+03</pdfrwt>
<pdfrwt beam="2">  1       -2 0.20335304E-02 0.20581364E+03</pdfrwt>
<totfact> 0.34692961E+02</totfact>
</mgrwt>
</event>
<event>
12    1  0.5759937E-002  0.1850163E+03  0.7546771E-02  0.1163035E+00
          1   -1    0    0  503    0  0.00000000000E+00  0.00000000000E+00  0.38534523191E+03  0.38534523191E+03  0.00000000000E+00 0. -1.
         -1   -1    0    0    0  501 -0.00000000000E+00 -0.00000000000E+00 -0.12053109430E+03  0.12053109430E+03  0.00000000000E+00 0.  1.
          6    2    1    2  503    0 -0.65520610445E+02  0.33118364174E+01  0.25582216292E+01  0.18477816934E+03  0.17272089831E+03 0.  0.
         24    2    3    3    0    0 -0.49269015941E+02 -0.32722430643E+02  0.58763800627E+02  0.11590335655E+03  0.80512175450E+02 0.  0.
         -6    2    1    2    0  501  0.65520610445E+02 -0.33118364174E+01  0.26225591598E+03  0.32109815687E+03  0.17326841092E+03 0.  0.
        -24    2    5    5    0    0  0.15862876997E+02  0.58907184037E+02  0.15090751864E+03  0.18413957704E+03  0.86096558897E+02 0.  0.
          2    1    4    4  502    0 -0.12948573743E+02  0.15337143914E+02  0.51442474787E+02  0.55219758761E+02  0.00000000000E+00 0. -1.
         -1    1    4    4    0  502 -0.36320442199E+02 -0.48059574558E+02  0.73213258399E+01  0.60683597786E+02  0.00000000000E+00 0.  1.
          5    1    3    3  503    0 -0.16251594504E+02  0.36034267061E+02 -0.56205578997E+02  0.68874812791E+02  0.47000000000E+01 0. -1.
         13    1    6    6    0    0  0.21056849680E+02 -0.87731021774E+01  0.90311774839E+02  0.93148134253E+02  0.00000000000E+00 0. -1.
        -14    1    6    6    0    0 -0.51939726826E+01  0.67680286214E+02  0.60595743799E+02  0.90991442789E+02  0.00000000000E+00 0.  1.
         -5    1    5    5    0  501  0.49657733448E+02 -0.62219020454E+02  0.11134839734E+03  0.13695857983E+03  0.47000000000E+01 0.  1.
<mgrwt>
<rscale>  2 0.18501625E+03</rscale>
<asrwt>0</asrwt>
<pdfrwt beam="1">  1        1 0.59283881E-01 0.18501625E+03</pdfrwt>
<pdfrwt beam="2">  1       -1 0.18543245E-01 0.18501625E+03</pdfrwt>
<totfact> 0.14415911E+03</totfact>
</mgrwt>
</event>
<event>
12    1  0.5759937E-002  0.1836585E+03  0.7546771E-02  0.1164309E+00
         -2   -1    0    0    0  501 -0.00000000000E+00  0.00000000000E+00  0.25981189850E+02  0.25981189850E+02  0.00000000000E+00 0.  1.
          2   -1    0    0  503    0  0.00000000000E+00 -0.00000000000E+00 -0.14723999958E+04  0.14723999958E+04  0.00000000000E+00 0. -1.
          6    2    1    2  503    0  0.44751970162E+02 -0.48515021131E+02 -0.98502160428E+03  0.10022208471E+04  0.17269226794E+03 0.  0.
         24    2    3    3    0    0 -0.37532298856E+02 -0.12217868266E+02 -0.36288104098E+03  0.37359603475E+03  0.79582645812E+02 0.  0.
         -6    2    1    2    0  501 -0.44751970162E+02  0.48515021131E+02 -0.46139720168E+03  0.49616033854E+03  0.17009190959E+03 0.  0.
        -24    2    5    5    0    0  0.82962884505E+01  0.38364340057E+02 -0.41556963599E+03  0.42517153769E+03  0.80821179875E+02 0.  0.
          4    1    4    4  502    0 -0.57712753760E+02  0.10247640252E+02 -0.24315390265E+03  0.25011916451E+03  0.00000000000E+00 0. -1.
         -3    1    4    4    0  502  0.20180454904E+02 -0.22465508518E+02 -0.11972713833E+03  0.12347687024E+03  0.00000000000E+00 0.  1.
          5    1    3    3  503    0  0.82284269017E+02 -0.36297152865E+02 -0.62214056330E+03  0.62862481237E+03  0.47000000000E+01 0. -1.
         13    1    6    6    0    0 -0.23505847138E+02  0.24472711318E+02 -0.34360243362E+03  0.34527390698E+03  0.00000000000E+00 0. -1.
        -14    1    6    6    0    0  0.31802135589E+02  0.13891628739E+02 -0.71967202370E+02  0.79897630715E+02  0.00000000000E+00 0.  1.
         -5    1    5    5    0  501 -0.53048258612E+02  0.10150681074E+02 -0.45827565691E+02  0.70988800844E+02  0.47000000000E+01 0.  1.
<mgrwt>
<rscale>  2 0.18365849E+03</rscale>
<asrwt>0</asrwt>
<pdfrwt beam="2">  1        2 0.22652306E+00 0.18365849E+03</pdfrwt>
<pdfrwt beam="1">  1       -2 0.39971065E-02 0.18365849E+03</pdfrwt>
<totfact> 0.38659850E+03</totfact>
</mgrwt>
</event>
<event>
12    1  0.5759937E-002  0.2193532E+03  0.7546771E-02  0.1134366E+00
         -1   -1    0    0    0  501 -0.00000000000E+00  0.00000000000E+00  0.47946518273E+03  0.47946518273E+03  0.00000000000E+00 0. -1.
          1   -1    0    0  503    0  0.00000000000E+00 -0.00000000000E+00 -0.18407177822E+03  0.18407177822E+03  0.00000000000E+00 0.  1.
          6    2    1    2  503    0  0.95630360743E+02 -0.94471496514E+02 -0.75902446771E+02  0.23248743425E+03  0.17383669379E+03 0.  0.
         24    2    3    3    0    0  0.26602149016E+02 -0.27908519862E+01 -0.82184109898E+02  0.11745794287E+03  0.79540412595E+02 0.  0.
         -6    2    1    2    0  501 -0.95630360743E+02  0.94471496514E+02  0.37129585128E+03  0.43104952671E+03  0.17283823577E+03 0.  0.
        -24    2    5    5    0    0 -0.18601075151E+02  0.39425799227E+02  0.29663879489E+03  0.31038757869E+03  0.80283751368E+02 0.  0.
          4    1    4    4  502    0  0.45611959388E+02  0.77962054077E+01 -0.83706940193E+02  0.95645614089E+02  0.00000000000E+00 0. -1.
         -3    1    4    4    0  502 -0.19009810372E+02 -0.10587057394E+02  0.15228302949E+01  0.21812328778E+02  0.00000000000E+00 0.  1.
          5    1    3    3  503    0  0.69028211727E+02 -0.91680644528E+02  0.62816631269E+01  0.11502949138E+03  0.47000000000E+01 0. -1.
         11    1    6    6    0    0 -0.24294572136E+02 -0.16999691630E+02  0.58457319810E+02  0.65547494156E+02  0.00000000000E+00 0. -1.
        -12    1    6    6    0    0  0.56934969849E+01  0.56425490858E+02  0.23818147508E+03  0.24484008454E+03  0.00000000000E+00 0.  1.
         -5    1    5    5    0  501 -0.77029285592E+02  0.55045697287E+02  0.74657056395E+02  0.12066194801E+03  0.47000000000E+01 0.  1.
<mgrwt>
<rscale>  2 0.21935324E+03</rscale>
<asrwt>0</asrwt>
<pdfrwt beam="2">  1        1 0.28318735E-01 0.21935324E+03</pdfrwt>
<pdfrwt beam="1">  1       -1 0.73763874E-01 0.21935324E+03</pdfrwt>
<totfact> 0.31698161E+02</totfact>
</mgrwt>
</event>
<event>
12    1  0.5759937E-002  0.1861704E+03  0.7546771E-02  0.1161961E+00
          2   -1    0    0  503    0  0.00000000000E+00  0.00000000000E+00  0.32691743699E+03  0.32691743699E+03  0.00000000000E+00 0. -1.
         -2   -1    0    0    0  501 -0.00000000000E+00 -0.00000000000E+00 -0.10797193194E+03  0.10797193194E+03  0.00000000000E+00 0.  1.
          6    2    1    2  503    0  0.71087152524E+02  0.38560671656E+01  0.80201564212E+02  0.20266951384E+03  0.17197205712E+03 0.  0.
         24    2    3    3    0    0  0.32854464016E+02 -0.39118551746E+02  0.10307872376E+03  0.14058883432E+03  0.80810396285E+02 0.  0.
         -6    2    1    2    0  501 -0.71087152524E+02 -0.38560671656E+01  0.13874394084E+03  0.23221985509E+03  0.17206954254E+03 0.  0.
        -24    2    5    5    0    0 -0.97714382318E+02 -0.45002140247E+02  0.81269158663E+02  0.15653994175E+03  0.79541084192E+02 0.  0.
          4    1    4    4  502    0 -0.55658301385E+01 -0.22764397609E+02  0.95268491488E+02  0.98108520191E+02  0.00000000000E+00 0. -1.
         -3    1    4    4    0  502  0.38420294155E+02 -0.16354154137E+02  0.78102322691E+01  0.42480314130E+02  0.00000000000E+00 0.  1.
          5    1    3    3  503    0  0.38232688508E+02  0.42974618911E+02 -0.22877159545E+02  0.62080679522E+02  0.47000000000E+01 0. -1.
         13    1    6    6    0    0 -0.39087615670E+02 -0.26350202110E+01  0.74142830516E+02  0.83856689341E+02  0.00000000000E+00 0. -1.
        -14    1    6    6    0    0 -0.58626766648E+02 -0.42367120036E+02  0.71263281470E+01  0.72683252408E+02  0.00000000000E+00 0.  1.
         -5    1    5    5    0  501  0.26627229794E+02  0.41146073082E+02  0.57474782176E+02  0.75679913337E+02  0.47000000000E+01 0.  1.
<mgrwt>
<rscale>  2 0.18617037E+03</rscale>
<asrwt>0</asrwt>
<pdfrwt beam="1">  1        2 0.50294990E-01 0.18617037E+03</pdfrwt>
<pdfrwt beam="2">  1       -2 0.16611067E-01 0.18617037E+03</pdfrwt>
<totfact> 0.28243006E+03</totfact>
</mgrwt>
</event>
<event>
12    1  0.5759937E-002  0.1919137E+03  0.7546771E-02  0.1156747E+00
          2   -1    0    0  503    0  0.00000000000E+00  0.00000000000E+00  0.29352169272E+04  0.29352169272E+04  0.00000000000E+00 0. -1.
         -2   -1    0    0    0  501 -0.00000000000E+00 -0.00000000000E+00 -0.12955915952E+02  0.12955915952E+02  0.00000000000E+00 0.  1.
          6    2    1    2  503    0  0.82480698494E+02  0.89374542995E+01  0.11997344537E+04  0.12149911544E+04  0.17308322324E+03 0.  0.
         24    2    3    3    0    0  0.41499241550E+02 -0.55063129742E+02  0.50446617303E+03  0.51556594276E+03  0.81043113829E+02 0.  0.
         -6    2    1    2    0  501 -0.82480698494E+02 -0.89374542995E+01  0.17225265576E+04  0.17331816888E+04  0.17302624381E+03 0.  0.
        -24    2    5    5    0    0 -0.93169149819E+02  0.10341605874E+01  0.17065919421E+04  0.17110530181E+04  0.81023539678E+02 0.  0.
          2    1    4    4  502    0  0.25710859298E+01 -0.54462800418E+02  0.40661000825E+03  0.41024932166E+03  0.00000000000E+00 0. -1.
         -1    1    4    4    0  502  0.38928155620E+02 -0.60032932352E+00  0.97856164773E+02  0.10531662110E+03  0.00000000000E+00 0.  1.
          5    1    3    3  503    0  0.40981456944E+02  0.64000584041E+02  0.69526828065E+03  0.69942521162E+03  0.47000000000E+01 0. -1.
         11    1    6    6    0    0 -0.95939321639E+00 -0.14055254234E+02  0.69804599891E+03  0.69818814599E+03  0.00000000000E+00 0. -1.
        -12    1    6    6    0    0 -0.92209756603E+02  0.15089414821E+02  0.10085459432E+04  0.10128648721E+04  0.00000000000E+00 0.  1.
         -5    1    5    5    0  501  0.10688451325E+02 -0.99716148869E+01  0.15934615484E+02  0.22128670674E+02  0.47000000000E+01 0.  1.
<mgrwt>
<rscale>  2 0.19191374E+03</rscale>
<asrwt>0</asrwt>
<pdfrwt beam="1">  1        2 0.45157131E+00 0.19191374E+03</pdfrwt>
<pdfrwt beam="2">  1       -2 0.19932202E-02 0.19191374E+03</pdfrwt>
<totfact> 0.17886455E+03</totfact>
</mgrwt>
</event>
<event>
12    1  0.5759937E-002  0.3537838E+03  0.7546771E-02  0.1061073E+00
         -2   -1    0    0    0  501 -0.00000000000E+00  0.00000000000E+00  0.35604175391E+03  0.35604175391E+03  0.00000000000E+00 0. -1.
          2   -1    0    0  503    0  0.00000000000E+00 -0.00000000000E+00 -0.35188193865E+03  0.35188193865E+03  0.00000000000E+00 0.  1.
          6    2    1    2  503    0 -0.69811562762E+02  0.30012765797E+03 -0.89478150216E+01  0.35417536914E+03  0.17438424050E+03 0.  0.
         24    2    3    3    0    0 -0.10531135819E+03  0.27054707040E+03  0.16060410720E+02  0.30142361096E+03  0.79448454859E+02 0.  0.
         -6    2    1    2    0  501  0.69811562762E+02 -0.30012765797E+03  0.13107630288E+02  0.35374832343E+03  0.17325068825E+03 0.  0.
        -24    2    5    5    0    0  0.11039621836E+03 -0.18713532759E+03 -0.84968946692E+01  0.23166955175E+03  0.79947658676E+02 0.  0.
          4    1    4    4  502    0 -0.54368472163E+02  0.13419745414E+03  0.47741409234E+02  0.15246025587E+03  0.00000000000E+00 0. -1.
         -3    1    4    4    0  502 -0.50942886031E+02  0.13634961626E+03 -0.31680998514E+02  0.14896335509E+03  0.00000000000E+00 0.  1.
          5    1    3    3  503    0  0.35499795433E+02  0.29580587566E+02 -0.25008225741E+02  0.52751758182E+02  0.47000000000E+01 0. -1.
         11    1    6    6    0    0  0.19903605158E+02 -0.65569620710E+02  0.30770884661E+02  0.75115750686E+02  0.00000000000E+00 0. -1.
        -12    1    6    6    0    0  0.90492613206E+02 -0.12156570688E+03 -0.39267779330E+02  0.15655380107E+03  0.00000000000E+00 0.  1.
         -5    1    5    5    0  501 -0.40584655602E+02 -0.11299233038E+03  0.21604524957E+02  0.12207877167E+03  0.47000000000E+01 0.  1.
<mgrwt>
<rscale>  2 0.35378375E+03</rscale>
<asrwt>0</asrwt>
<pdfrwt beam="2">  1        2 0.54135683E-01 0.35378375E+03</pdfrwt>
<pdfrwt beam="1">  1       -2 0.54775654E-01 0.35378375E+03</pdfrwt>
<totfact> 0.29419498E+02</totfact>
</mgrwt>
</event>
<event>
12    1  0.5759937E-002  0.1769559E+03  0.7546771E-02  0.1170782E+00
         -4   -1    0    0    0  501 -0.00000000000E+00  0.00000000000E+00  0.15237947535E+03  0.15237947535E+03  0.00000000000E+00 0. -1.
          4   -1    0    0  503    0  0.00000000000E+00 -0.00000000000E+00 -0.20948856514E+03  0.20948856514E+03  0.00000000000E+00 0.  1.
          6    2    1    2  503    0  0.29215581877E+02 -0.22684979192E+02 -0.36448269629E+01  0.17740250704E+03  0.17346528827E+03 0.  0.
         24    2    3    3    0    0 -0.99207192598E+01  0.39441625622E+02 -0.80787974044E+01  0.10369283884E+03  0.95041440209E+02 0.  0.
         -6    2    1    2    0  501 -0.29215581877E+02  0.22684979192E+02 -0.53464262821E+02  0.18446553345E+03  0.17262950827E+03 0.  0.
        -24    2    5    5    0    0 -0.75604007090E+02  0.50542448221E+02 -0.50138349606E+02  0.13004976116E+03  0.78285256064E+02 0.  0.
          2    1    4    4  502    0  0.20854783795E+02  0.10686032082E+02  0.35853341514E+02  0.42831943529E+02  0.00000000000E+00 0. -1.
         -1    1    4    4    0  502 -0.30775503055E+02  0.28755593540E+02 -0.43932138918E+02  0.60860895311E+02  0.00000000000E+00 0.  1.
          5    1    3    3  503    0  0.39136301136E+02 -0.62126604815E+02  0.44339704415E+01  0.73709668201E+02  0.47000000000E+01 0. -1.
         11    1    6    6    0    0 -0.16680202785E+02  0.10100996404E+02  0.21384590213E+02  0.28940628741E+02  0.00000000000E+00 0. -1.
        -12    1    6    6    0    0 -0.58923804305E+02  0.40441451817E+02 -0.71522939819E+02  0.10110913242E+03  0.00000000000E+00 0.  1.
         -5    1    5    5    0  501  0.46388425214E+02 -0.27857469029E+02 -0.33259132152E+01  0.54415772283E+02  0.47000000000E+01 0.  1.
<mgrwt>
<rscale>  2 0.17695593E+03</rscale>
<asrwt>0</asrwt>
<pdfrwt beam="2">  1        4 0.32229010E-01 0.17695593E+03</pdfrwt>
<pdfrwt beam="1">  1       -4 0.23442996E-01 0.17695593E+03</pdfrwt>
<totfact> 0.27283462E+02</totfact>
</mgrwt>
</event>
<event>
12    1  0.5759937E-002  0.2167819E+03  0.7546771E-02  0.1136305E+00
         -2   -1    0    0    0  501 -0.00000000000E+00  0.00000000000E+00  0.44293504594E+02  0.44293504594E+02  0.00000000000E+00 0. -1.
          2   -1    0    0  503    0  0.00000000000E+00 -0.00000000000E+00 -0.11593110571E+04  0.11593110571E+04  0.00000000000E+00 0.  1.
          6    2    1    2  503    0  0.12006432375E+03  0.52257306574E+02 -0.38571778797E+03  0.44318057017E+03  0.17459821845E+03 0.  0.
         24    2    3    3    0    0  0.74873098222E+02  0.99176518215E+02 -0.21828510271E+03  0.26346008335E+03  0.79503879482E+02 0.  0.
         -6    2    1    2    0  501 -0.12006432375E+03 -0.52257306574E+02 -0.72929976452E+03  0.76042399151E+03  0.17093926528E+03 0.  0.
        -24    2    5    5    0    0 -0.16502083198E+02  0.25716728831E+02 -0.28783016423E+03  0.30029076532E+03  0.79966689354E+02 0.  0.
          2    1    4    4  502    0  0.68167917263E+02  0.51582890094E+02 -0.80074177438E+02  0.11713041188E+03  0.00000000000E+00 0. -1.
         -1    1    4    4    0  502  0.67051809589E+01  0.47593628122E+02 -0.13821092527E+03  0.14632967147E+03  0.00000000000E+00 0.  1.
          5    1    3    3  503    0  0.45191225526E+02 -0.46919211642E+02 -0.16743268527E+03  0.17972048682E+03  0.47000000000E+01 0. -1.
         11    1    6    6    0    0 -0.47501979795E+02  0.61222806951E+01 -0.18565497178E+03  0.19173337985E+03  0.00000000000E+00 0. -1.
        -12    1    6    6    0    0  0.30999896597E+02  0.19594448135E+02 -0.10217519245E+03  0.10855738547E+03  0.00000000000E+00 0.  1.
         -5    1    5    5    0  501 -0.10356224055E+03 -0.77974035404E+02 -0.44146960029E+03  0.46013322619E+03  0.47000000000E+01 0.  1.
<mgrwt>
<rscale>  2 0.21678192E+03</rscale>
<asrwt>0</asrwt>
<pdfrwt beam="2">  1        2 0.17835550E+00 0.21678192E+03</pdfrwt>
<pdfrwt beam="1">  1       -2 0.68143872E-02 0.21678192E+03</pdfrwt>
<totfact> 0.25559689E+03</totfact>
</mgrwt>
</event>
<event>
12    1  0.5759937E-002  0.1764698E+03  0.7546771E-02  0.1171264E+00
         -1   -1    0    0    0  501 -0.00000000000E+00  0.00000000000E+00  0.47560046860E+02  0.47560046860E+02  0.00000000000E+00 0. -1.
          1   -1    0    0  503    0  0.00000000000E+00 -0.00000000000E+00 -0.68249447127E+03  0.68249447127E+03  0.00000000000E+00 0.  1.
          6    2    1    2  503    0  0.34945488975E+02  0.22981528139E+01 -0.24520829875E+03  0.30254080290E+03  0.17371631741E+03 0.  0.
         24    2    3    3    0    0  0.43604719103E+02  0.27002035990E+02 -0.25624421800E+03  0.27374591404E+03  0.81518370460E+02 0.  0.
         -6    2    1    2    0  501 -0.34945488975E+02 -0.22981528139E+01 -0.38972612566E+03  0.42751371523E+03  0.17220643131E+03 0.  0.
        -24    2    5    5    0    0  0.15990208063E+02 -0.16105044020E+02 -0.89748561325E+02  0.12289312404E+03  0.80826087860E+02 0.  0.
          2    1    4    4  502    0  0.49119013456E+02  0.21601455837E+02 -0.25977445681E+03  0.26525849428E+03  0.00000000000E+00 0. -1.
         -1    1    4    4    0  502 -0.55142943532E+01  0.54005801527E+01  0.35302388103E+01  0.84874197644E+01  0.00000000000E+00 0.  1.
          5    1    3    3  503    0 -0.86592301280E+01 -0.24703883176E+02  0.11035919248E+02  0.28794888853E+02  0.47000000000E+01 0. -1.
         11    1    6    6    0    0  0.41475808944E+01 -0.48680873533E+02 -0.58565597729E+02  0.76268991815E+02  0.00000000000E+00 0. -1.
        -12    1    6    6    0    0  0.11842627168E+02  0.32575829513E+02 -0.31182963597E+02  0.46624132221E+02  0.00000000000E+00 0.  1.
         -5    1    5    5    0  501 -0.50935697037E+02  0.13806891206E+02 -0.29997756433E+03  0.30462059120E+03  0.47000000000E+01 0.  1.
<mgrwt>
<rscale>  2 0.17646977E+03</rscale>
<asrwt>0</asrwt>
<pdfrwt beam="2">  1        1 0.10499915E+00 0.17646977E+03</pdfrwt>
<pdfrwt beam="1">  1       -1 0.73169303E-02 0.17646977E+03</pdfrwt>
<totfact> 0.28514531E+03</totfact>
</mgrwt>
</event>
<event>
12    1  0.5759937E-002  0.3055727E+03  0.7546771E-02  0.1082488E+00
          1   -1    0    0  503    0  0.00000000000E+00  0.00000000000E+00  0.10841338802E+04  0.10841338802E+04  0.00000000000E+00 0. -1.
         -1   -1    0    0    0  501 -0.00000000000E+00 -0.00000000000E+00 -0.88656407419E+02  0.88656407419E+02  0.00000000000E+00 0.  1.
          6    2    1    2  503    0 -0.92148985612E+02 -0.23438890154E+03  0.39861774568E+03  0.50222735625E+03  0.17293529854E+03 0.  0.
         24    2    3    3    0    0 -0.42926560987E+02 -0.57676759841E+02  0.78630499818E+02  0.13335887613E+03  0.80203092697E+02 0.  0.
         -6    2    1    2    0  501  0.92148985612E+02  0.23438890154E+03  0.59685972714E+03  0.67056293141E+03  0.17315749589E+03 0.  0.
        -24    2    5    5    0    0  0.77743566140E+02  0.84579070375E+02  0.39268513209E+03  0.41687048594E+03  0.79885592337E+02 0.  0.
          4    1    4    4  502    0 -0.26103619269E+02  0.16710752520E+02  0.28393625132E+02  0.42033868926E+02  0.00000000000E+00 0. -1.
         -3    1    4    4    0  502 -0.16822941718E+02 -0.74387512361E+02  0.50236874686E+02  0.91325007208E+02  0.00000000000E+00 0.  1.
          5    1    3    3  503    0 -0.49222424625E+02 -0.17671214170E+03  0.31998724586E+03  0.36886848011E+03  0.47000000000E+01 0. -1.
         11    1    6    6    0    0  0.72051396091E+02  0.59506990824E+02  0.18167198682E+03  0.20429683412E+03  0.00000000000E+00 0. -1.
        -12    1    6    6    0    0  0.56921700489E+01  0.25072079551E+02  0.21101314527E+03  0.21257365182E+03  0.00000000000E+00 0.  1.
         -5    1    5    5    0  501  0.14405419472E+02  0.14980983116E+03  0.20417459506E+03  0.25369244547E+03  0.47000000000E+01 0.  1.
<mgrwt>
<rscale>  2 0.30557266E+03</rscale>
<asrwt>0</asrwt>
<pdfrwt beam="1">  1        1 0.16678982E+00 0.30557266E+03</pdfrwt>
<pdfrwt beam="2">  1       -1 0.13639448E-01 0.30557266E+03</pdfrwt>
<totfact> 0.51876209E+02</totfact>
</mgrwt>
</event>
<event>
12    1  0.5759937E-002  0.1854527E+03  0.7546771E-02  0.1162628E+00
          2   -1    0    0  503    0  0.00000000000E+00  0.00000000000E+00  0.32515296552E+03  0.32515296552E+03  0.00000000000E+00 0. -1.
         -2   -1    0    0    0  501 -0.00000000000E+00 -0.00000000000E+00 -0.11251613099E+03  0.11251613099E+03  0.00000000000E+00 0.  1.
          6    2    1    2  503    0 -0.54803793894E+02  0.40812326023E+02  0.53042832680E+02  0.19340576934E+03  0.17298308511E+03 0.  0.
         24    2    3    3    0    0  0.13686634101E+02  0.38377529493E+02  0.72441871570E+02  0.12202454162E+03  0.89342068915E+02 0.  0.
         -6    2    1    2    0  501  0.54803793894E+02 -0.40812326023E+02  0.15959400186E+03  0.24426332717E+03  0.17182905980E+03 0.  0.
        -24    2    5    5    0    0  0.45313103323E+02  0.22237551259E+02  0.35203348917E+02  0.10440452419E+03  0.84340043141E+02 0.  0.
          2    1    4    4  502    0  0.19477922266E+01  0.35963437687E+02  0.92161361390E+02  0.98948872041E+02  0.00000000000E+00 0. -1.
         -1    1    4    4    0  502  0.11738841875E+02  0.24140918051E+01 -0.19719489820E+02  0.23075669580E+02  0.00000000000E+00 0.  1.
          5    1    3    3  503    0 -0.68490427996E+02  0.24347965306E+01 -0.19399038890E+02  0.71381227722E+02  0.47000000000E+01 0. -1.
         11    1    6    6    0    0 -0.22741946060E+02 -0.13481516924E+00  0.21839573265E+02  0.31530639799E+02  0.00000000000E+00 0. -1.
        -12    1    6    6    0    0  0.68055049384E+02  0.22372366429E+02  0.13363775652E+02  0.72873884389E+02  0.00000000000E+00 0.  1.
         -5    1    5    5    0  501  0.94906905710E+01 -0.63049877283E+02  0.12439065294E+03  0.13985880298E+03  0.47000000000E+01 0.  1.
<mgrwt>
<rscale>  2 0.18545272E+03</rscale>
<asrwt>0</asrwt>
<pdfrwt beam="1">  1        2 0.50023533E-01 0.18545272E+03</pdfrwt>
<pdfrwt beam="2">  1       -2 0.17310174E-01 0.18545272E+03</pdfrwt>
<totfact> 0.26514921E+03</totfact>
</mgrwt>
</event>
<event>
12    1  0.5759937E-002  0.2149311E+03  0.7546771E-02  0.1137720E+00
         -2   -1    0    0    0  501 -0.00000000000E+00  0.00000000000E+00  0.52961129693E+02  0.52961129693E+02  0.00000000000E+00 0. -1.
          2   -1    0    0  503    0  0.00000000000E+00 -0.00000000000E+00 -0.87425497032E+03  0.87425497032E+03  0.00000000000E+00 0.  1.
          6    2    1    2  503    0 -0.41885651924E+02  0.11995096065E+03 -0.38826901603E+03  0.44374232708E+03  0.17323909269E+03 0.  0.
         24    2    3    3    0    0  0.67634949590E+01  0.54178975130E+02 -0.78411403584E+02  0.12323254008E+03  0.77825474705E+02 0.  0.
         -6    2    1    2    0  501  0.41885651924E+02 -0.11995096065E+03 -0.43302482460E+03  0.48347377294E+03  0.17347550143E+03 0.  0.
        -24    2    5    5    0    0 -0.13835309641E+02 -0.12850021271E+03 -0.26449336272E+03  0.30570184345E+03  0.82420614572E+02 0.  0.
          4    1    4    4  502    0 -0.25398279570E+02 -0.63152655987E+01 -0.16861637704E+02  0.31133101528E+02  0.00000000000E+00 0. -1.
         -3    1    4    4    0  502  0.32161774529E+02  0.60494240729E+02 -0.61549765879E+02  0.92099438554E+02  0.00000000000E+00 0.  1.
          5    1    3    3  503    0 -0.48649146883E+02  0.65771985522E+02 -0.30985761245E+03  0.32050978700E+03  0.47000000000E+01 0. -1.
         11    1    6    6    0    0  0.18507790540E+02  0.16020736322E+01 -0.23804113295E+02  0.30195045295E+02  0.00000000000E+00 0. -1.
        -12    1    6    6    0    0 -0.32343100181E+02 -0.13010228635E+03 -0.24068924942E+03  0.27550679815E+03  0.00000000000E+00 0.  1.
         -5    1    5    5    0  501  0.55720961565E+02  0.85492520609E+01 -0.16853146188E+03  0.17777192949E+03  0.47000000000E+01 0.  1.
<mgrwt>
<rscale>  2 0.21493113E+03</rscale>
<asrwt>0</asrwt>
<pdfrwt beam="2">  1        2 0.13450076E+00 0.21493113E+03</pdfrwt>
<pdfrwt beam="1">  1       -2 0.81478665E-02 0.21493113E+03</pdfrwt>
<totfact> 0.28838537E+03</totfact>
</mgrwt>
</event>
<event>
12    1  0.5759937E-002  0.1815233E+03  0.7546771E-02  0.1166337E+00
         -2   -1    0    0    0  501 -0.00000000000E+00  0.00000000000E+00  0.37155544849E+02  0.37155544849E+02  0.00000000000E+00 0.  1.
          2   -1    0    0  503    0  0.00000000000E+00 -0.00000000000E+00 -0.11667954445E+04  0.11667954445E+04  0.00000000000E+00 0. -1.
          6    2    1    2  503    0 -0.54691185204E+02 -0.46380403367E+00 -0.27055196939E+03  0.32594730242E+03  0.17335493925E+03 0.  0.
         24    2    3    3    0    0  0.18759077791E+02  0.19727706815E+02 -0.64265681954E+02  0.10599557902E+03  0.79774052664E+02 0.  0.
         -6    2    1    2    0  501  0.54691185204E+02  0.46380403367E+00 -0.85908793029E+03  0.87800368696E+03  0.17282089424E+03 0.  0.
        -24    2    5    5    0    0  0.76826131885E+02  0.39364752177E+02 -0.55356464546E+03  0.56918366299E+03  0.10042104985E+03 0.  0.
          4    1    4    4  502    0  0.57365382242E+01 -0.20583603026E+02  0.75113001127E+01  0.22649772929E+02  0.00000000000E+00 0. -1.
         -3    1    4    4    0  502  0.13022539567E+02  0.40311309842E+02 -0.71776982066E+02  0.83345806088E+02  0.00000000000E+00 0.  1.
          5    1    3    3  503    0 -0.73450262995E+02 -0.20191510849E+02 -0.20628628744E+03  0.21995172340E+03  0.47000000000E+01 0. -1.
         13    1    6    6    0    0  0.51053265203E+00 -0.29424196888E+02 -0.13849710396E+03  0.14158916559E+03  0.00000000000E+00 0. -1.
        -14    1    6    6    0    0  0.76315599233E+02  0.68788949065E+02 -0.41506754150E+03  0.42759449740E+03  0.00000000000E+00 0.  1.
         -5    1    5    5    0  501 -0.22134946682E+02 -0.38900948144E+02 -0.30552328483E+03  0.30882002397E+03  0.47000000000E+01 0.  1.
<mgrwt>
<rscale>  2 0.18152330E+03</rscale>
<asrwt>0</asrwt>
<pdfrwt beam="2">  1        2 0.17950698E+00 0.18152330E+03</pdfrwt>
<pdfrwt beam="1">  1       -2 0.57162380E-02 0.18152330E+03</pdfrwt>
<totfact> 0.33059846E+03</totfact>
</mgrwt>
</event>
<event>
12    1  0.5759937E-002  0.2013926E+03  0.7546771E-02  0.1148569E+00
         -2   -1    0    0    0  501 -0.00000000000E+00  0.00000000000E+00  0.19160518697E+02  0.19160518697E+02  0.00000000000E+00 0.  1.
          2   -1    0    0  503    0  0.00000000000E+00 -0.00000000000E+00 -0.22854622903E+04  0.22854622903E+04  0.00000000000E+00 0. -1.
          6    2    1    2  503    0  0.30043969217E+02 -0.97358522497E+02 -0.81847802172E+03  0.84281576549E+03  0.17335172492E+03 0.  0.
         24    2    3    3    0    0  0.10585938766E+02 -0.99525067538E+01 -0.18914150541E+03  0.20712325547E+03  0.83152987901E+02 0.  0.
         -6    2    1    2    0  501 -0.30043969217E+02  0.97358522497E+02 -0.14478237499E+04  0.14618070435E+04  0.17408302540E+03 0.  0.
        -24    2    5    5    0    0 -0.22317948719E+02  0.13435239149E+03 -0.10088094928E+04  0.10211440820E+04  0.80560458490E+02 0.  0.
          2    1    4    4  502    0 -0.12142129784E+02 -0.42784677866E+02 -0.98307590004E+02  0.10789968595E+03  0.00000000000E+00 0. -1.
         -1    1    4    4    0  502  0.22728068550E+02  0.32832171112E+02 -0.90833915408E+02  0.99223569520E+02  0.00000000000E+00 0.  1.
          5    1    3    3  503    0  0.19458030451E+02 -0.87406015743E+02 -0.62933651631E+03  0.63569251002E+03  0.47000000000E+01 0. -1.
         13    1    6    6    0    0 -0.35986846967E+02  0.16492668156E+02 -0.25166494888E+03  0.25475931338E+03  0.00000000000E+00 0. -1.
        -14    1    6    6    0    0  0.13668898249E+02  0.11785972334E+03 -0.75714454390E+03  0.76638476859E+03  0.00000000000E+00 0.  1.
         -5    1    5    5    0  501 -0.77260204989E+01 -0.36993868998E+02 -0.43901425710E+03  0.44066296154E+03  0.47000000000E+01 0.  1.
<mgrwt>
<rscale>  2 0.20139261E+03</rscale>
<asrwt>0</asrwt>
<pdfrwt beam="2">  1        2 0.35160976E+00 0.20139261E+03</pdfrwt>
<pdfrwt beam="1">  1       -2 0.29477706E-02 0.20139261E+03</pdfrwt>
<totfact> 0.22898777E+03</totfact>
</mgrwt>
</event>
<event>
12    1  0.5759937E-002  0.1869687E+03  0.7546771E-02  0.1161224E+00
          2   -1    0    0  503    0  0.00000000000E+00  0.00000000000E+00  0.40393661288E+03  0.40393661288E+03  0.00000000000E+00 0.  1.
         -2   -1    0    0    0  501 -0.00000000000E+00 -0.00000000000E+00 -0.10918919964E+03  0.10918919964E+03  0.00000000000E+00 0. -1.
          6    2    1    2  503    0 -0.19880272998E+02  0.11259157672E+02  0.26415952685E+03  0.32357589900E+03  0.18546997843E+03 0.  0.
         24    2    3    3    0    0 -0.34223473577E+00 -0.68230527575E+02  0.15502067821E+03  0.18707050246E+03  0.79425689805E+02 0.  0.
         -6    2    1    2    0  501  0.19880272998E+02 -0.11259157672E+02  0.30587886388E+02  0.18954991352E+03  0.18566517454E+03 0.  0.
        -24    2    5    5    0    0  0.36544912289E+02 -0.69798208982E+02  0.50891121000E+02  0.12521608053E+03  0.82956856475E+02 0.  0.
          2    1    4    4  502    0 -0.27123847325E+00 -0.65988514406E+02  0.51973265019E+02  0.83998677850E+02  0.00000000000E+00 0. -1.
         -1    1    4    4    0  502 -0.70996262516E-01 -0.22420131684E+01  0.10304741319E+03  0.10307182461E+03  0.00000000000E+00 0.  1.
          5    1    3    3  503    0 -0.19538038262E+02  0.79489685247E+02  0.10913884865E+03  0.13650539654E+03  0.47000000000E+01 0. -1.
         11    1    6    6    0    0 -0.19180357410E+02 -0.59075264099E+00 -0.55202807806E+01  0.19967688874E+02  0.00000000000E+00 0. -1.
        -12    1    6    6    0    0  0.55725269699E+02 -0.69207456341E+02  0.56411401780E+02  0.10524839166E+03  0.00000000000E+00 0.  1.
         -5    1    5    5    0  501 -0.16664639290E+02  0.58539051310E+02 -0.20303234612E+02  0.64333832986E+02  0.47000000000E+01 0.  1.
<mgrwt>
<rscale>  2 0.18696874E+03</rscale>
<asrwt>0</asrwt>
<pdfrwt beam="1">  1        2 0.62144093E-01 0.18696874E+03</pdfrwt>
<pdfrwt beam="2">  1       -2 0.16798339E-01 0.18696874E+03</pdfrwt>
<totfact> 0.22082669E+03</totfact>
</mgrwt>
</event>
<event>
12    1  0.5759937E-002  0.1737679E+03  0.7546771E-02  0.1173974E+00
         -2   -1    0    0    0  501 -0.00000000000E+00  0.00000000000E+00  0.24581937158E+02  0.24581937158E+02  0.00000000000E+00 0.  1.
          2   -1    0    0  503    0  0.00000000000E+00 -0.00000000000E+00 -0.19356607074E+04  0.19356607074E+04  0.00000000000E+00 0. -1.
          6    2    1    2  503    0  0.46750331561E+01 -0.66525302089E+01 -0.15450033517E+04  0.15546491660E+04  0.17272104859E+03 0.  0.
         24    2    3    3    0    0 -0.56280143367E+02  0.57680252158E+00 -0.70490022272E+03  0.71229344895E+03  0.85497638513E+02 0.  0.
         -6    2    1    2    0  501 -0.46750331561E+01  0.66525302089E+01 -0.36607541855E+03  0.40559347852E+03  0.17443837209E+03 0.  0.
        -24    2    5    5    0    0  0.17129262241E+02 -0.54777249705E+02 -0.14957470444E+03  0.17944376181E+03  0.80830147434E+02 0.  0.
          2    1    4    4  502    0 -0.15931368018E+02  0.41739191314E+02 -0.29746566118E+03  0.30080190851E+03  0.00000000000E+00 0. -1.
         -1    1    4    4    0  502 -0.40348775349E+02 -0.41162388792E+02 -0.40743456154E+03  0.41149154044E+03  0.00000000000E+00 0.  1.
          5    1    3    3  503    0  0.60955176523E+02 -0.72293327305E+01 -0.84010312894E+03  0.84235571705E+03  0.47000000000E+01 0. -1.
         13    1    6    6    0    0  0.26154776673E+02 -0.21911373383E+02 -0.13991994541E+03  0.14402003941E+03  0.00000000000E+00 0. -1.
        -14    1    6    6    0    0 -0.90255144316E+01 -0.32865876322E+02 -0.96547590300E+01  0.35423722406E+02  0.00000000000E+00 0.  1.
         -5    1    5    5    0  501 -0.21804295397E+02  0.61429779914E+02 -0.21650071410E+03  0.22614971670E+03  0.47000000000E+01 0.  1.
<mgrwt>
<rscale>  2 0.17376793E+03</rscale>
<asrwt>0</asrwt>
<pdfrwt beam="2">  1        2 0.29779405E+00 0.17376793E+03</pdfrwt>
<pdfrwt beam="1">  1       -2 0.37818353E-02 0.17376793E+03</pdfrwt>
<totfact> 0.24112911E+03</totfact>
</mgrwt>
</event>
<event>
12    1  0.5759937E-002  0.1937434E+03  0.7546771E-02  0.1155128E+00
         -2   -1    0    0    0  501 -0.00000000000E+00  0.00000000000E+00  0.13780886262E+04  0.13780886262E+04  0.00000000000E+00 0. -1.
          2   -1    0    0  503    0  0.00000000000E+00 -0.00000000000E+00 -0.32566657787E+02  0.32566657787E+02  0.00000000000E+00 0.  1.
          6    2    1    2  503    0  0.21825606264E+02  0.84869659406E+02  0.38793678348E+03  0.43369988209E+03  0.17297810142E+03 0.  0.
         24    2    3    3    0    0 -0.15733898503E+02  0.11677143560E+02  0.86128817884E+02  0.12084528508E+03  0.82471197465E+02 0.  0.
         -6    2    1    2    0  501 -0.21825606264E+02 -0.84869659406E+02  0.95758518493E+03  0.97695540190E+03  0.17260722673E+03 0.  0.
        -24    2    5    5    0    0 -0.23952578728E+02 -0.11770393282E+02  0.78533454298E+03  0.78976458917E+03  0.79154871678E+02 0.  0.
          4    1    4    4  502    0  0.20856107932E+02 -0.35192408798E+01 -0.47743272242E+01  0.21683092374E+02  0.00000000000E+00 0. -1.
         -3    1    4    4    0  502 -0.36590006436E+02  0.15196384439E+02  0.90903145108E+02  0.99162192702E+02  0.00000000000E+00 0.  1.
          5    1    3    3  503    0  0.37559504768E+02  0.73192515846E+02  0.30180796560E+03  0.31285459701E+03  0.47000000000E+01 0. -1.
         13    1    6    6    0    0 -0.29739473276E+02 -0.41808237734E+02  0.56348700457E+03  0.56581796484E+03  0.00000000000E+00 0. -1.
        -14    1    6    6    0    0  0.57868945480E+01  0.30037844451E+02  0.22184753841E+03  0.22394662433E+03  0.00000000000E+00 0.  1.
         -5    1    5    5    0  501  0.21269724641E+01 -0.73099266123E+02  0.17225064195E+03  0.18719081273E+03  0.47000000000E+01 0.  1.
<mgrwt>
<rscale>  2 0.19374339E+03</rscale>
<asrwt>0</asrwt>
<pdfrwt beam="2">  1        2 0.50102561E-02 0.19374339E+03</pdfrwt>
<pdfrwt beam="1">  1       -2 0.21201359E+00 0.19374339E+03</pdfrwt>
<totfact> 0.18983809E+02</totfact>
</mgrwt>
</event>
<event>
12    1  0.5759937E-002  0.2810771E+03  0.7546771E-02  0.1095102E+00
         -2   -1    0    0    0  501 -0.00000000000E+00  0.00000000000E+00  0.17874145659E+03  0.17874145659E+03  0.00000000000E+00 0. -1.
          2   -1    0    0  503    0  0.00000000000E+00 -0.00000000000E+00 -0.48835715789E+03  0.48835715789E+03  0.00000000000E+00 0.  1.
          6    2    1    2  503    0  0.18141319630E+03 -0.12711314922E+03 -0.25746832177E+03  0.38102463653E+03  0.17268855328E+03 0.  0.
         24    2    3    3    0    0  0.95462983773E+02 -0.15704026567E+02 -0.18001874340E+03  0.22033873537E+03  0.82356618476E+02 0.  0.
         -6    2    1    2    0  501 -0.18141319630E+03  0.12711314922E+03 -0.52147379525E+02  0.28607397794E+03  0.17335071725E+03 0.  0.
        -24    2    5    5    0    0 -0.20279941990E+03  0.87423557616E+02 -0.34450900511E+02  0.23741301196E+03  0.80047426957E+02 0.  0.
          4    1    4    4  502    0  0.93872951048E+02  0.13697592368E+02 -0.15486911887E+03  0.18161552509E+03  0.00000000000E+00 0. -1.
         -3    1    4    4    0  502  0.15900327256E+01 -0.29401618935E+02 -0.25149624533E+02  0.38723210278E+02  0.00000000000E+00 0.  1.
          5    1    3    3  503    0  0.85950212526E+02 -0.11140912265E+03 -0.77449578369E+02  0.16068590116E+03  0.47000000000E+01 0. -1.
         11    1    6    6    0    0 -0.16468784355E+03  0.10132456174E+03 -0.36572423276E+02  0.19678997629E+03  0.00000000000E+00 0. -1.
        -12    1    6    6    0    0 -0.38111576354E+02 -0.13901004126E+02  0.21215227650E+01  0.40623035666E+02  0.00000000000E+00 0.  1.
         -5    1    5    5    0  501  0.21386223601E+02  0.39689591600E+02 -0.17696479013E+02  0.48660965987E+02  0.47000000000E+01 0.  1.
<mgrwt>
<rscale>  2 0.28107707E+03</rscale>
<asrwt>0</asrwt>
<pdfrwt beam="2">  1        2 0.75131870E-01 0.28107707E+03</pdfrwt>
<pdfrwt beam="1">  1       -2 0.27498686E-01 0.28107707E+03</pdfrwt>
<totfact> 0.76841501E+02</totfact>
</mgrwt>
</event>
<event>
12    1  0.5759937E-002  0.1804500E+03  0.7546771E-02  0.1167368E+00
          2   -1    0    0  503    0  0.00000000000E+00  0.00000000000E+00  0.23524694336E+04  0.23524694336E+04  0.00000000000E+00 0.  1.
         -2   -1    0    0    0  501 -0.00000000000E+00 -0.00000000000E+00 -0.22536143302E+02  0.22536143302E+02  0.00000000000E+00 0. -1.
          6    2    1    2  503    0  0.42038774066E+02  0.64568283929E+01  0.19184274387E+04  0.19272889185E+04  0.17963793729E+03 0.  0.
         24    2    3    3    0    0 -0.10576924796E+02  0.66062105057E+02  0.11119484776E+04  0.11168867927E+04  0.80812237738E+02 0.  0.
         -6    2    1    2    0  501 -0.42038774066E+02 -0.64568283929E+01  0.41150585162E+03  0.44771665846E+03  0.17118466984E+03 0.  0.
        -24    2    5    5    0    0  0.41139504988E+02  0.60973483259E+01  0.24616259210E+03  0.26214533275E+03  0.79965725180E+02 0.  0.
          4    1    4    4  502    0 -0.10538833296E+02  0.69128784931E+02  0.49339162640E+03  0.49832233837E+03  0.00000000000E+00 0. -1.
         -3    1    4    4    0  502 -0.38091499463E-01 -0.30666798745E+01  0.61855685122E+03  0.61856445433E+03  0.00000000000E+00 0.  1.
          5    1    3    3  503    0  0.52615698862E+02 -0.59605276664E+02  0.80647896110E+03  0.81040212578E+03  0.47000000000E+01 0. -1.
         13    1    6    6    0    0 -0.55255026855E+01 -0.29669349888E+02  0.10437916909E+03  0.10865455556E+03  0.00000000000E+00 0. -1.
        -14    1    6    6    0    0  0.46665007674E+02  0.35766698214E+02  0.14178342301E+03  0.15349077719E+03  0.00000000000E+00 0.  1.
         -5    1    5    5    0  501 -0.83178279054E+02 -0.12554176719E+02  0.16534325952E+03  0.18557132571E+03  0.47000000000E+01 0.  1.
<mgrwt>
<rscale>  2 0.18044998E+03</rscale>
<asrwt>0</asrwt>
<pdfrwt beam="1">  1        2 0.36191818E+00 0.18044998E+03</pdfrwt>
<pdfrwt beam="2">  1       -2 0.34671008E-02 0.18044998E+03</pdfrwt>
<totfact> 0.16617451E+03</totfact>
</mgrwt>
</event>
<event>
12    1  0.5759937E-002  0.1913259E+03  0.7546771E-02  0.1157271E+00
          1   -1    0    0  503    0  0.00000000000E+00  0.00000000000E+00  0.58914389217E+02  0.58914389217E+02  0.00000000000E+00 0.  1.
         -1   -1    0    0    0  501 -0.00000000000E+00 -0.00000000000E+00 -0.10573147457E+04  0.10573147457E+04  0.00000000000E+00 0. -1.
          6    2    1    2  503    0  0.80109965092E+02  0.92407200132E+01 -0.85742362757E+03  0.87848720339E+03  0.17338250195E+03 0.  0.
         24    2    3    3    0    0  0.63190462973E+02 -0.60993397522E+02 -0.50110879406E+03  0.51489202823E+03  0.79312975590E+02 0.  0.
         -6    2    1    2    0  501 -0.80109965092E+02 -0.92407200132E+01 -0.14097672889E+03  0.23774193151E+03  0.17361967198E+03 0.  0.
        -24    2    5    5    0    0 -0.20938599109E+02  0.18016265737E+02 -0.13655825062E+03  0.17227585805E+03  0.10133017661E+03 0.  0.
          2    1    4    4  502    0  0.52238221032E+02 -0.66637782834E+02 -0.49282306715E+03  0.50004399942E+03  0.00000000000E+00 0. -1.
         -1    1    4    4    0  502  0.10952241941E+02  0.56443853115E+01 -0.82857269035E+01  0.14848028805E+02  0.00000000000E+00 0.  1.
          5    1    3    3  503    0  0.16919502119E+02  0.70234117535E+02 -0.35631483352E+03  0.36359517516E+03  0.47000000000E+01 0. -1.
         11    1    6    6    0    0 -0.57169566881E+02  0.37694892454E+01 -0.11320408065E+03  0.12687683911E+03  0.00000000000E+00 0. -1.
        -12    1    6    6    0    0  0.36230967771E+02  0.14246776492E+02 -0.23354169968E+02  0.45399018943E+02  0.00000000000E+00 0.  1.
         -5    1    5    5    0  501 -0.59171365983E+02 -0.27256985750E+02 -0.44184782784E+01  0.65466073464E+02  0.47000000000E+01 0.  1.
<mgrwt>
<rscale>  2 0.19132594E+03</rscale>
<asrwt>0</asrwt>
<pdfrwt beam="1">  1        1 0.90637523E-02 0.19132594E+03</pdfrwt>
<pdfrwt beam="2">  1       -1 0.16266381E+00 0.19132594E+03</pdfrwt>
<totfact> 0.22448126E+02</totfact>
</mgrwt>
</event>
<event>
12    1  0.5759937E-002  0.1795169E+03  0.7546771E-02  0.1168271E+00
          2   -1    0    0  503    0  0.00000000000E+00  0.00000000000E+00  0.29886866043E+04  0.29886866043E+04  0.00000000000E+00 0.  1.
         -2   -1    0    0    0  501 -0.00000000000E+00 -0.00000000000E+00 -0.18114521215E+02  0.18114521215E+02  0.00000000000E+00 0. -1.
          6    2    1    2  503    0 -0.40141493547E+02 -0.36451663281E+02  0.24360030008E+04  0.24425241398E+04  0.16992201208E+03 0.  0.
         24    2    3    3    0    0 -0.57911354141E+02 -0.74713097681E+02  0.21471099343E+04  0.21505292782E+04  0.75890279648E+02 0.  0.
         -6    2    1    2    0  501  0.40141493547E+02  0.36451663281E+02  0.53456908228E+03  0.56427698574E+03  0.17234949854E+03 0.  0.
        -24    2    5    5    0    0  0.25507173613E+02  0.90347281816E+02  0.33262683892E+03  0.35470203335E+03  0.79747547007E+02 0.  0.
          2    1    4    4  502    0 -0.53270947506E+02 -0.64862919126E+02  0.10449471151E+04  0.10483126754E+04  0.00000000000E+00 0. -1.
         -1    1    4    4    0  502 -0.46404066344E+01 -0.98501785554E+01  0.11021628193E+04  0.11022166028E+04  0.00000000000E+00 0.  1.
          5    1    3    3  503    0  0.17769860594E+02  0.38261434400E+02  0.28889306648E+03  0.29199486154E+03  0.47000000000E+01 0. -1.
         11    1    6    6    0    0  0.19308237214E+02  0.44353399502E+02  0.55100035430E+02  0.73321524644E+02  0.00000000000E+00 0. -1.
        -12    1    6    6    0    0  0.61989363991E+01  0.45993882314E+02  0.27752680349E+03  0.28138050871E+03  0.00000000000E+00 0.  1.
         -5    1    5    5    0  501  0.14634319934E+02 -0.53895618535E+02  0.20194224336E+03  0.20957495239E+03  0.47000000000E+01 0.  1.
<mgrwt>
<rscale>  2 0.17951687E+03</rscale>
<asrwt>0</asrwt>
<pdfrwt beam="1">  1        2 0.45979755E+00 0.17951687E+03</pdfrwt>
<pdfrwt beam="2">  1       -2 0.27868518E-02 0.17951687E+03</pdfrwt>
<totfact> 0.10202402E+03</totfact>
</mgrwt>
</event>
<event>
12    1  0.5759937E-002  0.2586465E+03  0.7546771E-02  0.1107959E+00
          1   -1    0    0  503    0  0.00000000000E+00  0.00000000000E+00  0.90584363644E+02  0.90584363644E+02  0.00000000000E+00 0.  1.
         -1   -1    0    0    0  501 -0.00000000000E+00 -0.00000000000E+00 -0.83181622430E+03  0.83181622430E+03  0.00000000000E+00 0. -1.
          6    2    1    2  503    0 -0.70959873642E+02 -0.17023568151E+03 -0.20999997699E+03  0.32930346569E+03  0.17414158392E+03 0.  0.
         24    2    3    3    0    0 -0.10652593602E+03 -0.11813041825E+03 -0.11424225282E+03  0.21453615766E+03  0.87589382080E+02 0.  0.
         -6    2    1    2    0  501  0.70959873642E+02  0.17023568151E+03 -0.53123188366E+03  0.59309712225E+03  0.18852424587E+03 0.  0.
        -24    2    5    5    0    0 -0.29273922415E+02  0.11435902224E+03 -0.23652442676E+03  0.27680044178E+03  0.82095868452E+02 0.  0.
          4    1    4    4  502    0 -0.16116992968E+02 -0.83055572224E+02 -0.54326507551E+02  0.10054528812E+03  0.00000000000E+00 0. -1.
         -3    1    4    4    0  502 -0.90408943057E+02 -0.35074846024E+02 -0.59915745270E+02  0.11399086954E+03  0.00000000000E+00 0.  1.
          5    1    3    3  503    0  0.35566062382E+02 -0.52105263264E+02 -0.95757724173E+02  0.11476730803E+03  0.47000000000E+01 0. -1.
         13    1    6    6    0    0  0.21382652852E+02  0.99410815749E+01 -0.69673546181E+02  0.73555733858E+02  0.00000000000E+00 0. -1.
        -14    1    6    6    0    0 -0.50656575267E+02  0.10441794066E+03 -0.16685088057E+03  0.20324470792E+03  0.00000000000E+00 0.  1.
         -5    1    5    5    0  501  0.10023379606E+03  0.55876659277E+02 -0.29470745691E+03  0.31629668047E+03  0.47000000000E+01 0.  1.
<mgrwt>
<rscale>  2 0.25864650E+03</rscale>
<asrwt>0</asrwt>
<pdfrwt beam="1">  1        1 0.13936056E-01 0.25864650E+03</pdfrwt>
<pdfrwt beam="2">  1       -1 0.12797173E+00 0.25864650E+03</pdfrwt>
<totfact> 0.23333074E+02</totfact>
</mgrwt>
</event>
<event>
12    1  0.5759937E-002  0.2187623E+03  0.7546771E-02  0.1134809E+00
         -2   -1    0    0    0  501 -0.00000000000E+00  0.00000000000E+00  0.10351327608E+03  0.10351327608E+03  0.00000000000E+00 0. -1.
          2   -1    0    0  503    0  0.00000000000E+00 -0.00000000000E+00 -0.47405704923E+03  0.47405704923E+03  0.00000000000E+00 0.  1.
          6    2    1    2  503    0  0.12982722305E+03 -0.20809949818E+02 -0.13946871659E+03  0.25905127504E+03  0.17426381821E+03 0.  0.
         24    2    3    3    0    0  0.15279549385E+03  0.16813870222E+02 -0.11889669015E+03  0.21018010184E+03  0.80062994625E+02 0.  0.
         -6    2    1    2    0  501 -0.12982722305E+03  0.20809949818E+02 -0.23107505656E+03  0.31851905026E+03  0.17541534072E+03 0.  0.
        -24    2    5    5    0    0 -0.75214310219E+02  0.64552294409E+02 -0.21271334463E+03  0.24602625460E+03  0.73876652570E+02 0.  0.
          2    1    4    4  502    0  0.89049777971E+02  0.49131765324E+02 -0.65594300344E+02  0.12102233496E+03  0.00000000000E+00 0. -1.
         -1    1    4    4    0  502  0.63745715882E+02 -0.32317895102E+02 -0.53302389808E+02  0.89157766888E+02  0.00000000000E+00 0.  1.
          5    1    3    3  503    0 -0.22968270801E+02 -0.37623820040E+02 -0.20572026436E+02  0.48871173197E+02  0.47000000000E+01 0. -1.
         11    1    6    6    0    0  0.11485710107E+02  0.20562071325E+02 -0.23359625642E+02  0.33172163390E+02  0.00000000000E+00 0. -1.
        -12    1    6    6    0    0 -0.86700020326E+02  0.43990223084E+02 -0.18935371898E+03  0.21285409121E+03  0.00000000000E+00 0.  1.
         -5    1    5    5    0  501 -0.54612912833E+02 -0.43742344591E+02 -0.18361711933E+02  0.72492795666E+02  0.47000000000E+01 0.  1.
<mgrwt>
<rscale>  2 0.21876231E+03</rscale>
<asrwt>0</asrwt>
<pdfrwt beam="2">  1        2 0.72931853E-01 0.21876231E+03</pdfrwt>
<pdfrwt beam="1">  1       -2 0.15925120E-01 0.21876231E+03</pdfrwt>
<totfact> 0.20340826E+03</totfact>
</mgrwt>
</event>
<event>
12    1  0.5759937E-002  0.1852587E+03  0.7546771E-02  0.1162809E+00
         -2   -1    0    0    0  501 -0.00000000000E+00  0.00000000000E+00  0.28809130035E+02  0.28809130035E+02  0.00000000000E+00 0.  1.
          2   -1    0    0  503    0  0.00000000000E+00 -0.00000000000E+00 -0.15025703056E+04  0.15025703056E+04  0.00000000000E+00 0. -1.
          6    2    1    2  503    0  0.44604312176E+02  0.47490380311E+02 -0.38901867202E+03  0.43096442776E+03  0.17363735175E+03 0.  0.
         24    2    3    3    0    0 -0.20206667571E+01 -0.12721817101E+02 -0.24673024940E+03  0.26951015377E+03  0.10767534207E+03 0.  0.
         -6    2    1    2    0  501 -0.44604312176E+02 -0.47490380311E+02 -0.10847425035E+04  0.11004150079E+04  0.17321088210E+03 0.  0.
        -24    2    5    5    0    0 -0.33096530126E+01 -0.71333113755E+02 -0.97415429331E+03  0.97989294742E+03  0.78193569485E+02 0.  0.
          4    1    4    4  502    0  0.14819294986E+02 -0.40472283811E+02 -0.22799087779E+03  0.23202900167E+03  0.00000000000E+00 0. -1.
         -3    1    4    4    0  502 -0.16839961743E+02  0.27750466711E+02 -0.18739371611E+02  0.37481152097E+02  0.00000000000E+00 0.  1.
          5    1    3    3  503    0  0.46624978933E+02  0.60212197412E+02 -0.14228842262E+03  0.16145427399E+03  0.47000000000E+01 0. -1.
         13    1    6    6    0    0  0.31307430440E+02 -0.17587791621E+02 -0.20807552905E+03  0.21115139451E+03  0.00000000000E+00 0. -1.
        -14    1    6    6    0    0 -0.34617083453E+02 -0.53745322135E+02 -0.76607876426E+03  0.76874155291E+03  0.00000000000E+00 0.  1.
         -5    1    5    5    0  501 -0.41294659163E+02  0.23842733445E+02 -0.11058821021E+03  0.12052206043E+03  0.47000000000E+01 0.  1.
<mgrwt>
<rscale>  2 0.18525866E+03</rscale>
<asrwt>0</asrwt>
<pdfrwt beam="2">  1        2 0.23116466E+00 0.18525866E+03</pdfrwt>
<pdfrwt beam="1">  1       -2 0.44321739E-02 0.18525866E+03</pdfrwt>
<totfact> 0.31916518E+03</totfact>
</mgrwt>
</event>
<event>
12    1  0.5759937E-002  0.2712778E+03  0.7546771E-02  0.1100551E+00
         -1   -1    0    0    0  501 -0.00000000000E+00  0.00000000000E+00  0.49886485265E+03  0.49886485265E+03  0.00000000000E+00 0. -1.
          1   -1    0    0  503    0  0.00000000000E+00 -0.00000000000E+00 -0.16956522363E+03  0.16956522363E+03  0.00000000000E+00 0.  1.
          6    2    1    2  503    0  0.58072294657E+02  0.20109802565E+03  0.44282378913E+02  0.27513914925E+03  0.17299657523E+03 0.  0.
         24    2    3    3    0    0 -0.75313099467E+01  0.15653866562E+03  0.64983372337E+02  0.19304170330E+03  0.92093355173E+02 0.  0.
         -6    2    1    2    0  501 -0.58072294657E+02 -0.20109802565E+03  0.28501725011E+03  0.39329092704E+03  0.17213399752E+03 0.  0.
        -24    2    5    5    0    0 -0.85941968157E+02 -0.10764794207E+03  0.22860890107E+03  0.28053619914E+03  0.86396921564E+02 0.  0.
          2    1    4    4  502    0 -0.11093376894E+02  0.91214475294E+02  0.84435478932E+02  0.12478979773E+03  0.00000000000E+00 0. -1.
         -1    1    4    4    0  502  0.35620669471E+01  0.65324190328E+02 -0.19452106595E+02  0.68251905570E+02  0.00000000000E+00 0.  1.
          5    1    3    3  503    0  0.65603604604E+02  0.44559360029E+02 -0.20700993424E+02  0.82097445953E+02  0.47000000000E+01 0. -1.
         13    1    6    6    0    0 -0.61160313050E+01 -0.73487884562E+02  0.83199451502E+02  0.11117564368E+03  0.00000000000E+00 0. -1.
        -14    1    6    6    0    0 -0.79825936852E+02 -0.34160057512E+02  0.14540944957E+03  0.16936055547E+03  0.00000000000E+00 0.  1.
         -5    1    5    5    0  501  0.27869673500E+02 -0.93450083578E+02  0.56408349034E+02  0.11275472789E+03  0.47000000000E+01 0.  1.
<mgrwt>
<rscale>  2 0.27127776E+03</rscale>
<asrwt>0</asrwt>
<pdfrwt beam="2">  1        1 0.26086958E-01 0.27127776E+03</pdfrwt>
<pdfrwt beam="1">  1       -1 0.76748438E-01 0.27127776E+03</pdfrwt>
<totfact> 0.32353370E+02</totfact>
</mgrwt>
</event>
<event>
12    1  0.5759937E-002  0.1780722E+03  0.7546771E-02  0.1169682E+00
          1   -1    0    0  503    0  0.00000000000E+00  0.00000000000E+00  0.69275654243E+03  0.69275654243E+03  0.00000000000E+00 0. -1.
         -1   -1    0    0    0  501 -0.00000000000E+00 -0.00000000000E+00 -0.73696198522E+02  0.73696198522E+02  0.00000000000E+00 0.  1.
          6    2    1    2  503    0 -0.38599623120E+02 -0.18429613747E+02  0.54571504181E+03  0.57411802545E+03  0.17313872681E+03 0.  0.
         24    2    3    3    0    0 -0.52834615043E+02 -0.42588162719E+01  0.15842185588E+03  0.18627585605E+03  0.82411019070E+02 0.  0.
         -6    2    1    2    0  501  0.38599623120E+02  0.18429613747E+02  0.73345302100E+02  0.19233471550E+03  0.17257904821E+03 0.  0.
        -24    2    5    5    0    0  0.63285577627E+02 -0.28013663518E+02  0.57091538465E+01  0.10652613258E+03  0.80779903473E+02 0.  0.
          4    1    4    4  502    0 -0.35755275209E+02 -0.24384534206E+02  0.15342343317E+03  0.15941077460E+03  0.00000000000E+00 0. -1.
         -3    1    4    4    0  502 -0.17079339834E+02  0.20125717934E+02  0.49984227064E+01  0.26865081445E+02  0.00000000000E+00 0.  1.
          5    1    3    3  503    0  0.14234991923E+02 -0.14170797475E+02  0.38729318593E+03  0.38784216940E+03  0.47000000000E+01 0. -1.
         11    1    6    6    0    0  0.40498589850E+01 -0.49631239119E+01  0.35681108607E+02  0.36251558148E+02  0.00000000000E+00 0. -1.
        -12    1    6    6    0    0  0.59235718642E+02 -0.23050539606E+02 -0.29971954760E+02  0.70274574430E+02  0.00000000000E+00 0.  1.
         -5    1    5    5    0  501 -0.24685954507E+02  0.46443277265E+02  0.67636148253E+02  0.85808582925E+02  0.47000000000E+01 0.  1.
<mgrwt>
<rscale>  2 0.17807220E+03</rscale>
<asrwt>0</asrwt>
<pdfrwt beam="1">  1        1 0.10657793E+00 0.17807220E+03</pdfrwt>
<pdfrwt beam="2">  1       -1 0.11337877E-01 0.17807220E+03</pdfrwt>
<totfact> 0.14289094E+03</totfact>
</mgrwt>
</event>
<event>
12    1  0.5759937E-002  0.2390890E+03  0.7546771E-02  0.1120401E+00
         -2   -1    0    0    0  501 -0.00000000000E+00  0.00000000000E+00  0.31713073172E+03  0.31713073172E+03  0.00000000000E+00 0. -1.
          2   -1    0    0  503    0  0.00000000000E+00 -0.00000000000E+00 -0.22361006940E+03  0.22361006940E+03  0.00000000000E+00 0.  1.
          6    2    1    2  503    0  0.14759204044E+03  0.75677239295E+02  0.16539787645E+03  0.28872255420E+03  0.16880106878E+03 0.  0.
         24    2    3    3    0    0  0.15015815984E+03  0.82427053443E+02  0.80187584794E+02  0.20307777173E+03  0.73951609252E+02 0.  0.
         -6    2    1    2    0  501 -0.14759204044E+03 -0.75677239295E+02 -0.71877214135E+02  0.25201824692E+03  0.17560298380E+03 0.  0.
        -24    2    5    5    0    0 -0.15423715060E+03 -0.31723024205E+02 -0.12035979874E+02  0.17732424561E+03  0.80644741798E+02 0.  0.
          4    1    4    4  502    0  0.68136038817E+02  0.44971783899E+02  0.77955608542E+02  0.11288072482E+03  0.00000000000E+00 0. -1.
         -3    1    4    4    0  502  0.82022121025E+02  0.37455269544E+02  0.22319762520E+01  0.90197046914E+02  0.00000000000E+00 0.  1.
          5    1    3    3  503    0 -0.25661194042E+01 -0.67498141487E+01  0.85210291654E+02  0.85644782465E+02  0.47000000000E+01 0. -1.
         11    1    6    6    0    0 -0.56373170281E+02 -0.47141311925E+02  0.14182972313E+02  0.74842463356E+02  0.00000000000E+00 0. -1.
        -12    1    6    6    0    0 -0.97863980323E+02  0.15418287720E+02 -0.26218952187E+02  0.10248178226E+03  0.00000000000E+00 0.  1.
         -5    1    5    5    0  501  0.66451101663E+01 -0.43954215089E+02 -0.59841234261E+02  0.74694001306E+02  0.47000000000E+01 0.  1.
<mgrwt>
<rscale>  2 0.23908902E+03</rscale>
<asrwt>0</asrwt>
<pdfrwt beam="2">  1        2 0.34401549E-01 0.23908902E+03</pdfrwt>
<pdfrwt beam="1">  1       -2 0.48789344E-01 0.23908902E+03</pdfrwt>
<totfact> 0.60950684E+02</totfact>
</mgrwt>
</event>
<event>
12    1  0.5759937E-002  0.2165023E+03  0.7546771E-02  0.1136518E+00
         -2   -1    0    0    0  501 -0.00000000000E+00  0.00000000000E+00  0.28171925950E+02  0.28171925950E+02  0.00000000000E+00 0. -1.
          2   -1    0    0  503    0  0.00000000000E+00 -0.00000000000E+00 -0.27904189345E+04  0.27904189345E+04  0.00000000000E+00 0.  1.
          6    2    1    2  503    0 -0.41900381433E+02  0.12370382177E+03 -0.48644731397E+03  0.53253585883E+03  0.17293112556E+03 0.  0.
         24    2    3    3    0    0  0.32328065064E+02  0.10135543922E+03 -0.35178972149E+03  0.37708789428E+03  0.84387457671E+02 0.  0.
         -6    2    1    2    0  501  0.41900381433E+02 -0.12370382177E+03 -0.22757996946E+04  0.22860550016E+04  0.17240923147E+03 0.  0.
        -24    2    5    5    0    0  0.19570517972E+02 -0.13936939087E+03 -0.12976088129E+04  0.13074725964E+04  0.76740645473E+02 0.  0.
          2    1    4    4  502    0  0.52322473092E+02  0.94658790181E+02 -0.32762885991E+03  0.34501970610E+03  0.00000000000E+00 0. -1.
         -1    1    4    4    0  502 -0.19994408028E+02  0.66966490407E+01 -0.24160861580E+02  0.32068188179E+02  0.00000000000E+00 0.  1.
          5    1    3    3  503    0 -0.74228446497E+02  0.22348382552E+02 -0.13465759248E+03  0.15544796456E+03  0.47000000000E+01 0. -1.
         13    1    6    6    0    0 -0.22821335178E+02 -0.19599146922E+02 -0.36703307113E+03  0.36826378481E+03  0.00000000000E+00 0. -1.
        -14    1    6    6    0    0  0.42391853149E+02 -0.11977024394E+03 -0.93057574179E+03  0.93920881159E+03  0.00000000000E+00 0.  1.
         -5    1    5    5    0  501  0.22329863461E+02  0.15665569092E+02 -0.97819088168E+03  0.97858240525E+03  0.47000000000E+01 0.  1.
<mgrwt>
<rscale>  2 0.21650231E+03</rscale>
<asrwt>0</asrwt>
<pdfrwt beam="2">  1        2 0.42929521E+00 0.21650231E+03</pdfrwt>
<pdfrwt beam="1">  1       -2 0.43341425E-02 0.21650231E+03</pdfrwt>
<totfact> 0.67991764E+02</totfact>
</mgrwt>
</event>
<event>
12    1  0.5759937E-002  0.1903396E+03  0.7546771E-02  0.1158155E+00
         -3   -1    0    0    0  501 -0.00000000000E+00  0.00000000000E+00  0.77217081565E+03  0.77217081565E+03  0.00000000000E+00 0. -1.
          3   -1    0    0  503    0  0.00000000000E+00 -0.00000000000E+00 -0.49062940894E+02  0.49062940894E+02  0.00000000000E+00 0.  1.
          6    2    1    2  503    0  0.34986143249E+02  0.71186554070E+02  0.44735162140E+03  0.48615116431E+03  0.17299689503E+03 0.  0.
         24    2    3    3    0    0  0.77395422199E+01  0.27256722874E+02  0.86911628571E+02  0.12199283917E+03  0.80782375381E+02 0.  0.
         -6    2    1    2    0  501 -0.34986143249E+02 -0.71186554070E+02  0.27575625335E+03  0.33508259224E+03  0.17305281464E+03 0.  0.
        -24    2    5    5    0    0  0.50352602893E+02 -0.11457623091E+02  0.13147578034E+03  0.15706800945E+03  0.68686367157E+02 0.  0.
          2    1    4    4  502    0 -0.34844815396E+02  0.21013673105E+02  0.54988032638E+02  0.68406281515E+02  0.00000000000E+00 0. -1.
         -1    1    4    4    0  502  0.42584357615E+02  0.62430497686E+01  0.31923595933E+02  0.53586557654E+02  0.00000000000E+00 0.  1.
          5    1    3    3  503    0  0.27246601029E+02  0.43929831197E+02  0.36043999283E+03  0.36415832514E+03  0.47000000000E+01 0. -1.
         11    1    6    6    0    0  0.33662943883E+02 -0.14535800836E+02  0.13486590766E+03  0.13976156963E+03  0.00000000000E+00 0. -1.
        -12    1    6    6    0    0  0.16689659010E+02  0.30781777456E+01 -0.33901273213E+01  0.17306439824E+02  0.00000000000E+00 0.  1.
         -5    1    5    5    0  501 -0.85338746142E+02 -0.59728930980E+02  0.14428047302E+03  0.17801458278E+03  0.47000000000E+01 0.  1.
<mgrwt>
<rscale>  2 0.19033958E+03</rscale>
<asrwt>0</asrwt>
<pdfrwt beam="2">  1        3 0.75481453E-02 0.19033958E+03</pdfrwt>
<pdfrwt beam="1">  1       -3 0.11879550E+00 0.19033958E+03</pdfrwt>
<totfact> 0.17272897E+02</totfact>
</mgrwt>
</event>
<event>
12    1  0.5759937E-002  0.3822764E+03  0.7546771E-02  0.1050096E+00
         -2   -1    0    0    0  501 -0.00000000000E+00  0.00000000000E+00  0.16222697265E+03  0.16222697265E+03  0.00000000000E+00 0.  1.
          2   -1    0    0  503    0  0.00000000000E+00 -0.00000000000E+00 -0.11810418099E+04  0.11810418099E+04  0.00000000000E+00 0. -1.
          6    2    1    2  503    0  0.26122442406E+03  0.21867606584E+03 -0.18227853145E+03  0.42353822978E+03  0.17349855204E+03 0.  0.
         24    2    3    3    0    0  0.10566985685E+03  0.53589011870E+02 -0.21638210044E+02  0.14554837092E+03  0.81720348159E+02 0.  0.
         -6    2    1    2    0  501 -0.26122442406E+03 -0.21867606584E+03 -0.83653630578E+03  0.91973055274E+03  0.17336054126E+03 0.  0.
        -24    2    5    5    0    0 -0.42735805470E+02 -0.83276612270E+02 -0.23210343883E+03  0.26289612222E+03  0.80504792023E+02 0.  0.
          2    1    4    4  502    0 -0.41938268099E+01 -0.15120620540E+01 -0.22196729119E+02  0.22639993342E+02  0.00000000000E+00 0. -1.
         -1    1    4    4    0  502  0.10986368366E+03  0.55101073924E+02  0.55851907529E+00  0.12290837758E+03  0.00000000000E+00 0.  1.
          5    1    3    3  503    0  0.15555456721E+03  0.16508705397E+03 -0.16064032141E+03  0.27798985887E+03  0.47000000000E+01 0. -1.
         11    1    6    6    0    0 -0.62499902631E+02 -0.77182194570E+02 -0.16405736878E+03  0.19177629999E+03  0.00000000000E+00 0. -1.
        -12    1    6    6    0    0  0.19764097161E+02 -0.60944176999E+01 -0.68046070056E+02  0.71119822228E+02  0.00000000000E+00 0.  1.
         -5    1    5    5    0  501 -0.21848861859E+03 -0.13539945358E+03 -0.60443286694E+03  0.65683443053E+03  0.47000000000E+01 0.  1.
<mgrwt>
<rscale>  2 0.38227638E+03</rscale>
<asrwt>0</asrwt>
<pdfrwt beam="2">  1        2 0.18169875E+00 0.38227638E+03</pdfrwt>
<pdfrwt beam="1">  1       -2 0.24957995E-01 0.38227638E+03</pdfrwt>
<totfact> 0.29036445E+02</totfact>
</mgrwt>
</event>
<event>
12    1  0.5759937E-002  0.2400865E+03  0.7546771E-02  0.1119735E+00
         -2   -1    0    0    0  501 -0.00000000000E+00  0.00000000000E+00  0.15683585529E+03  0.15683585529E+03  0.00000000000E+00 0. -1.
          2   -1    0    0  503    0  0.00000000000E+00 -0.00000000000E+00 -0.43153186619E+03  0.43153186619E+03  0.00000000000E+00 0.  1.
          6    2    1    2  503    0 -0.12502026308E+03 -0.10896237569E+03 -0.25066610149E+03  0.34712577187E+03  0.17366617853E+03 0.  0.
         24    2    3    3    0    0 -0.58332674189E+01 -0.68532983627E+02 -0.16070242045E+03  0.19234970918E+03  0.80264225089E+02 0.  0.
         -6    2    1    2    0  501  0.12502026308E+03  0.10896237569E+03 -0.24029909412E+02  0.24124194960E+03  0.17354358590E+03 0.  0.
        -24    2    5    5    0    0  0.74836525259E+02 -0.16048605168E+00  0.22831448298E+02  0.11222922410E+03  0.80458638080E+02 0.  0.
          4    1    4    4  502    0  0.25601989355E+02 -0.74844233173E+01 -0.13447394483E+02  0.29871572937E+02  0.00000000000E+00 0. -1.
         -3    1    4    4    0  502 -0.31435256774E+02 -0.61048560309E+02 -0.14725502597E+03  0.16247813624E+03  0.00000000000E+00 0.  1.
          5    1    3    3  503    0 -0.11918699566E+03 -0.40429392063E+02 -0.89963681035E+02  0.15477606269E+03  0.47000000000E+01 0. -1.
         13    1    6    6    0    0 -0.10592855613E+02  0.15380363607E+02  0.16914353814E+02  0.25196419183E+02  0.00000000000E+00 0. -1.
        -14    1    6    6    0    0  0.85429380871E+02 -0.15540849659E+02  0.59170944839E+01  0.87032804914E+02  0.00000000000E+00 0.  1.
         -5    1    5    5    0  501  0.50183737817E+02  0.10912286174E+03 -0.46861357709E+02  0.12901272551E+03  0.47000000000E+01 0.  1.
<mgrwt>
<rscale>  2 0.24008649E+03</rscale>
<asrwt>0</asrwt>
<pdfrwt beam="2">  1        2 0.66389517E-01 0.24008649E+03</pdfrwt>
<pdfrwt beam="1">  1       -2 0.24128593E-01 0.24008649E+03</pdfrwt>
<totfact> 0.11113052E+03</totfact>
</mgrwt>
</event>
<event>
12    1  0.5759937E-002  0.3933626E+03  0.7546771E-02  0.1046103E+00
          2   -1    0    0  503    0  0.00000000000E+00  0.00000000000E+00  0.77954936889E+03  0.77954936889E+03  0.00000000000E+00 0. -1.
         -2   -1    0    0    0  501 -0.00000000000E+00 -0.00000000000E+00 -0.20698239217E+03  0.20698239217E+03  0.00000000000E+00 0.  1.
          6    2    1    2  503    0 -0.30137469540E+03 -0.18435918348E+03  0.38636461053E+03  0.55155375582E+03  0.17354802716E+03 0.  0.
         24    2    3    3    0    0 -0.29987878165E+03 -0.15658910927E+03  0.39038336296E+03  0.52306419368E+03  0.82155631624E+02 0.  0.
         -6    2    1    2    0  501  0.30137469540E+03  0.18435918348E+03  0.18620236619E+03  0.43497800525E+03  0.17239352747E+03 0.  0.
        -24    2    5    5    0    0  0.12669276837E+03  0.20324658200E+02  0.91764111688E+02  0.17737021222E+03  0.81088782834E+02 0.  0.
          4    1    4    4  502    0 -0.28914262196E+03 -0.13190179380E+03  0.33664264159E+03  0.46295767320E+03  0.00000000000E+00 0. -1.
         -3    1    4    4    0  502 -0.10736159688E+02 -0.24687315475E+02  0.53740721378E+02  0.60106520482E+02  0.00000000000E+00 0.  1.
          5    1    3    3  503    0 -0.14959137479E+01 -0.27770074208E+02 -0.40187524379E+01  0.28489562135E+02  0.47000000000E+01 0. -1.
         11    1    6    6    0    0  0.89211004696E+02 -0.89629857935E+01  0.20969913262E+02  0.92079724888E+02  0.00000000000E+00 0. -1.
        -12    1    6    6    0    0  0.37481763673E+02  0.29287643993E+02  0.70794198426E+02  0.85290487333E+02  0.00000000000E+00 0.  1.
         -5    1    5    5    0  501  0.17468192703E+03  0.16403452528E+03  0.94438254500E+02  0.25760779303E+03  0.47000000000E+01 0.  1.
<mgrwt>
<rscale>  2 0.39336257E+03</rscale>
<asrwt>0</asrwt>
<pdfrwt beam="1">  1        2 0.11993067E+00 0.39336257E+03</pdfrwt>
<pdfrwt beam="2">  1       -2 0.31843445E-01 0.39336257E+03</pdfrwt>
<totfact> 0.33524185E+02</totfact>
</mgrwt>
</event>
<event>
12    1  0.5759937E-002  0.1915677E+03  0.7546771E-02  0.1157055E+00
         -1   -1    0    0    0  501 -0.00000000000E+00  0.00000000000E+00  0.34856193806E+03  0.34856193806E+03  0.00000000000E+00 0.  1.
          1   -1    0    0  503    0  0.00000000000E+00 -0.00000000000E+00 -0.13687298827E+03  0.13687298827E+03  0.00000000000E+00 0. -1.
          6    2    1    2  503    0  0.73127308930E+02  0.16665363947E+02 -0.95659976605E+01  0.19451441235E+03  0.17921777432E+03 0.  0.
         24    2    3    3    0    0  0.39792163138E+02 -0.26807474884E+02 -0.66322028869E+02  0.11549253728E+03  0.81473048896E+02 0.  0.
         -6    2    1    2    0  501 -0.73127308930E+02 -0.16665363947E+02  0.22125494745E+03  0.29092051398E+03  0.17336567139E+03 0.  0.
        -24    2    5    5    0    0 -0.10915075138E+03  0.13716547289E+02  0.18985701045E+03  0.23409913258E+03  0.81576278790E+02 0.  0.
          2    1    4    4  502    0  0.52555318468E+02 -0.13824744554E+02 -0.77106466751E+02  0.94332350103E+02  0.00000000000E+00 0. -1.
         -1    1    4    4    0  502 -0.12763155329E+02 -0.12982730330E+02  0.10784437882E+02  0.21160187173E+02  0.00000000000E+00 0.  1.
          5    1    3    3  503    0  0.33335145792E+02  0.43472838831E+02  0.56756031209E+02  0.79021875070E+02  0.47000000000E+01 0. -1.
         11    1    6    6    0    0 -0.30930663740E+02  0.43394981803E+02  0.73011770580E+02  0.90391089430E+02  0.00000000000E+00 0. -1.
        -12    1    6    6    0    0 -0.78220087642E+02 -0.29678434514E+02  0.11684523987E+03  0.14370804315E+03  0.00000000000E+00 0.  1.
         -5    1    5    5    0  501  0.36023442452E+02 -0.30381911237E+02  0.31397937004E+02  0.56821381404E+02  0.47000000000E+01 0.  1.
<mgrwt>
<rscale>  2 0.19156767E+03</rscale>
<asrwt>0</asrwt>
<pdfrwt beam="2">  1        1 0.21057383E-01 0.19156767E+03</pdfrwt>
<pdfrwt beam="1">  1       -1 0.53624913E-01 0.19156767E+03</pdfrwt>
<totfact> 0.85814279E+02</totfact>
</mgrwt>
</event>
<event>
12    1  0.5759937E-002  0.2230035E+03  0.7546771E-02  0.1131663E+00
         -2   -1    0    0    0  501 -0.00000000000E+00  0.00000000000E+00  0.85118343834E+02  0.85118343834E+02  0.00000000000E+00 0.  1.
          2   -1    0    0  503    0  0.00000000000E+00 -0.00000000000E+00 -0.79450540213E+03  0.79450540213E+03  0.00000000000E+00 0. -1.
          6    2    1    2  503    0  0.10466955870E+03 -0.89352180606E+02 -0.12549146369E+03  0.25366587256E+03  0.17221712674E+03 0.  0.
         24    2    3    3    0    0  0.10867477561E+02 -0.85701720618E+01 -0.97099604832E+02  0.12657239916E+03  0.80004306467E+02 0.  0.
         -6    2    1    2    0  501 -0.10466955870E+03  0.89352180606E+02 -0.58389559460E+03  0.62595787341E+03  0.17874469275E+03 0.  0.
        -24    2    5    5    0    0 -0.10979564772E+03  0.44791508344E+02 -0.55311666883E+03  0.57135601837E+03  0.80301226132E+02 0.  0.
          2    1    4    4  502    0 -0.38522510905E+01 -0.29684964835E+02 -0.96273734533E+02  0.10081998282E+03  0.00000000000E+00 0. -1.
         -1    1    4    4    0  502  0.14719728652E+02  0.21114792774E+02 -0.82587029899E+00  0.25752416337E+02  0.00000000000E+00 0.  1.
          5    1    3    3  503    0  0.93802081135E+02 -0.80782008544E+02 -0.28391858859E+02  0.12709347339E+03  0.47000000000E+01 0. -1.
         11    1    6    6    0    0 -0.97923489235E+02  0.36678657092E+02 -0.29762346513E+03  0.31545849271E+03  0.00000000000E+00 0. -1.
        -12    1    6    6    0    0 -0.11872158489E+02  0.81128512518E+01 -0.25549320370E+03  0.25589752566E+03  0.00000000000E+00 0.  1.
         -5    1    5    5    0  501  0.51260890275E+01  0.44560672262E+02 -0.30778925775E+02  0.54601855033E+02  0.47000000000E+01 0.  1.
<mgrwt>
<rscale>  2 0.22300345E+03</rscale>
<asrwt>0</asrwt>
<pdfrwt beam="2">  1        2 0.12223160E+00 0.22300345E+03</pdfrwt>
<pdfrwt beam="1">  1       -2 0.13095130E-01 0.22300345E+03</pdfrwt>
<totfact> 0.15320871E+03</totfact>
</mgrwt>
</event>
<event>
12    1  0.5759937E-002  0.2054725E+03  0.7546771E-02  0.1145202E+00
         -2   -1    0    0    0  501 -0.00000000000E+00  0.00000000000E+00  0.94308999064E+01  0.94308999064E+01  0.00000000000E+00 0. -1.
          2   -1    0    0  503    0  0.00000000000E+00 -0.00000000000E+00 -0.47683723983E+04  0.47683723983E+04  0.00000000000E+00 0.  1.
          6    2    1    2  503    0 -0.21151810393E+02  0.11020336671E+03 -0.29661222147E+04  0.29732039079E+04  0.17166334505E+03 0.  0.
         24    2    3    3    0    0 -0.36179565695E+02  0.11508493717E+03 -0.29302512277E+04  0.29337263083E+04  0.76317041106E+02 0.  0.
         -6    2    1    2    0  501  0.21151810393E+02 -0.11020336671E+03 -0.17928192837E+04  0.18045993903E+04  0.17258561514E+03 0.  0.
        -24    2    5    5    0    0 -0.45260007408E+01  0.23641722828E+02 -0.82855209652E+03  0.83073741028E+03  0.55196489394E+02 0.  0.
          4    1    4    4  502    0  0.85794870194E+01  0.77481668141E+02 -0.12281924491E+04  0.12306639300E+04  0.00000000000E+00 0. -1.
         -3    1    4    4    0  502 -0.44759052714E+02  0.37603269028E+02 -0.17020587785E+04  0.17030623783E+04  0.00000000000E+00 0.  1.
          5    1    3    3  503    0  0.15027755301E+02 -0.48815704613E+01 -0.35870987034E+02  0.39477599602E+02  0.47000000000E+01 0. -1.
         13    1    6    6    0    0  0.35459191577E+00  0.27958620375E+02 -0.81696958772E+03  0.81744792950E+03  0.00000000000E+00 0. -1.
        -14    1    6    6    0    0 -0.48805926566E+01 -0.43168975469E+01 -0.11582508805E+02  0.13289480777E+02  0.00000000000E+00 0.  1.
         -5    1    5    5    0  501  0.25677811134E+02 -0.13384508954E+03 -0.96426718717E+03  0.97386198007E+03  0.47000000000E+01 0.  1.
<mgrwt>
<rscale>  2 0.20547246E+03</rscale>
<asrwt>0</asrwt>
<pdfrwt beam="2">  1        2 0.73359655E+00 0.20547246E+03</pdfrwt>
<pdfrwt beam="1">  1       -2 0.14509061E-02 0.20547246E+03</pdfrwt>
<totfact> 0.11829885E+02</totfact>
</mgrwt>
</event>
<event>
12    1  0.5759937E-002  0.1858483E+03  0.7546771E-02  0.1162260E+00
         -1   -1    0    0    0  501 -0.00000000000E+00  0.00000000000E+00  0.29433278286E+03  0.29433278286E+03  0.00000000000E+00 0.  1.
          1   -1    0    0  503    0  0.00000000000E+00 -0.00000000000E+00 -0.14071495162E+03  0.14071495162E+03  0.00000000000E+00 0. -1.
          6    2    1    2  503    0 -0.66485171466E+02  0.12187548915E+02  0.16531328598E+03  0.24844121019E+03  0.17270129711E+03 0.  0.
         24    2    3    3    0    0 -0.10482655898E+03  0.20736416467E+02  0.15970957212E+03  0.20848327302E+03  0.80867306546E+02 0.  0.
         -6    2    1    2    0  501  0.66485171466E+02 -0.12187548915E+02 -0.11695454742E+02  0.18660652429E+03  0.17354076430E+03 0.  0.
        -24    2    5    5    0    0  0.31706191452E+02 -0.50840225314E+02  0.36627180812E+02  0.11546740741E+03  0.91657845895E+02 0.  0.
          2    1    4    4  502    0 -0.37266393367E+02  0.47078505152E+02  0.87735152138E+02  0.10631381210E+03  0.00000000000E+00 0. -1.
         -1    1    4    4    0  502 -0.67560165617E+02 -0.26342088685E+02  0.71974419980E+02  0.10216946093E+03  0.00000000000E+00 0.  1.
          5    1    3    3  503    0  0.38341387518E+02 -0.85488675521E+01  0.56037138581E+01  0.39957937162E+02  0.47000000000E+01 0. -1.
         11    1    6    6    0    0  0.15830158735E+02 -0.24859955651E+02 -0.30097419693E+02  0.42124410889E+02  0.00000000000E+00 0. -1.
        -12    1    6    6    0    0  0.15876032717E+02 -0.25980269663E+02  0.66724600505E+02  0.73342996525E+02  0.00000000000E+00 0.  1.
         -5    1    5    5    0  501  0.34778980014E+02  0.38652676399E+02 -0.48322635553E+02  0.71139116880E+02  0.47000000000E+01 0.  1.
<mgrwt>
<rscale>  2 0.18584826E+03</rscale>
<asrwt>0</asrwt>
<pdfrwt beam="2">  1        1 0.21648454E-01 0.18584826E+03</pdfrwt>
<pdfrwt beam="1">  1       -1 0.45281966E-01 0.18584826E+03</pdfrwt>
<totfact> 0.11291550E+03</totfact>
</mgrwt>
</event>
<event>
12    1  0.5759937E-002  0.2021878E+03  0.7546771E-02  0.1147906E+00
         -2   -1    0    0    0  501 -0.00000000000E+00  0.00000000000E+00  0.58281981516E+02  0.58281981516E+02  0.00000000000E+00 0. -1.
          2   -1    0    0  503    0  0.00000000000E+00 -0.00000000000E+00 -0.10484827934E+04  0.10484827934E+04  0.00000000000E+00 0.  1.
          6    2    1    2  503    0 -0.86307754825E+02  0.53203422342E+02 -0.17523241144E+03  0.26686983666E+03  0.17387777031E+03 0.  0.
         24    2    3    3    0    0 -0.60510670090E+02 -0.35814924454E+02 -0.77806890428E+02  0.13232030009E+03  0.80687667025E+02 0.  0.
         -6    2    1    2    0  501  0.86307754825E+02 -0.53203422342E+02 -0.81496840046E+03  0.83989493827E+03  0.17598403589E+03 0.  0.
        -24    2    5    5    0    0  0.10058290360E+03 -0.67347510362E+02 -0.41046590744E+03  0.43486630723E+03  0.77290596761E+02 0.  0.
          4    1    4    4  502    0 -0.80619495025E+01 -0.25209755157E+02  0.10980481033E+02  0.28654803238E+02  0.00000000000E+00 0. -1.
         -3    1    4    4    0  502 -0.52448720587E+02 -0.10605169297E+02 -0.88787371461E+02  0.10366549685E+03  0.00000000000E+00 0.  1.
          5    1    3    3  503    0 -0.25797084736E+02  0.89018346796E+02 -0.97425521010E+02  0.13454953657E+03  0.47000000000E+01 0. -1.
         11    1    6    6    0    0  0.90606156593E+01 -0.61701212487E+01 -0.11700701635E+01  0.11024255827E+02  0.00000000000E+00 0. -1.
        -12    1    6    6    0    0  0.91522287939E+02 -0.61177389113E+02 -0.40929583727E+03  0.42384205140E+03  0.00000000000E+00 0.  1.
         -5    1    5    5    0  501 -0.14275148773E+02  0.14144088020E+02 -0.40450249302E+03  0.40502863104E+03  0.47000000000E+01 0.  1.
<mgrwt>
<rscale>  2 0.20218779E+03</rscale>
<asrwt>0</asrwt>
<pdfrwt beam="2">  1        2 0.16130504E+00 0.20218779E+03</pdfrwt>
<pdfrwt beam="1">  1       -2 0.89664589E-02 0.20218779E+03</pdfrwt>
<totfact> 0.19327470E+03</totfact>
</mgrwt>
</event>
<event>
12    1  0.5759937E-002  0.2326168E+03  0.7546771E-02  0.1124811E+00
          2   -1    0    0  503    0  0.00000000000E+00  0.00000000000E+00  0.49733431888E+03  0.49733431888E+03  0.00000000000E+00 0.  1.
         -2   -1    0    0    0  501 -0.00000000000E+00 -0.00000000000E+00 -0.11998040332E+03  0.11998040332E+03  0.00000000000E+00 0. -1.
          6    2    1    2  503    0 -0.11656006811E+03  0.10224565100E+03  0.28272201572E+03  0.36597038856E+03  0.17309582462E+03 0.  0.
         24    2    3    3    0    0 -0.66744030381E+02  0.13501961748E+03  0.19032633776E+03  0.25590303736E+03  0.81099858140E+02 0.  0.
         -6    2    1    2    0  501  0.11656006811E+03 -0.10224565100E+03  0.94631899841E+02  0.25134433364E+03  0.17371918420E+03 0.  0.
        -24    2    5    5    0    0  0.82699580372E+01 -0.20419975123E+02 -0.87990688060E+01  0.80633336786E+02  0.77064543075E+02 0.  0.
          4    1    4    4  502    0 -0.20849869462E+02  0.89948246520E+02  0.58735056691E+02  0.10943130719E+03  0.00000000000E+00 0. -1.
         -3    1    4    4    0  502 -0.45894160919E+02  0.45071370958E+02  0.13159128107E+03  0.14647173017E+03  0.00000000000E+00 0.  1.
          5    1    3    3  503    0 -0.49816037729E+02 -0.32773966476E+02  0.92395677962E+02  0.11006735120E+03  0.47000000000E+01 0. -1.
         13    1    6    6    0    0  0.35740295891E+02  0.11772080500E+02 -0.70060297295E+01  0.38275776703E+02  0.00000000000E+00 0. -1.
        -14    1    6    6    0    0 -0.27470337853E+02 -0.32192055623E+02 -0.17930390766E+01  0.42357560083E+02  0.00000000000E+00 0.  1.
         -5    1    5    5    0  501  0.10829011007E+03 -0.81825675879E+02  0.10343096865E+03  0.17071099686E+03  0.47000000000E+01 0.  1.
<mgrwt>
<rscale>  2 0.23261680E+03</rscale>
<asrwt>0</asrwt>
<pdfrwt beam="1">  1        2 0.76512971E-01 0.23261680E+03</pdfrwt>
<pdfrwt beam="2">  1       -2 0.18458524E-01 0.23261680E+03</pdfrwt>
<totfact> 0.15070724E+03</totfact>
</mgrwt>
</event>
<event>
12    1  0.5759937E-002  0.2619353E+03  0.7546771E-02  0.1105986E+00
         -2   -1    0    0    0  501 -0.00000000000E+00  0.00000000000E+00  0.60712564423E+02  0.60712564423E+02  0.00000000000E+00 0.  1.
          2   -1    0    0  503    0  0.00000000000E+00 -0.00000000000E+00 -0.11469684684E+04  0.11469684684E+04  0.00000000000E+00 0. -1.
          6    2    1    2  503    0 -0.94466712759E+02 -0.17212266422E+03 -0.61962924047E+03  0.67335654343E+03  0.17583647964E+03 0.  0.
         24    2    3    3    0    0  0.53323305955E+01 -0.19102614974E+02 -0.21789926407E+03  0.23201308481E+03  0.77179262708E+02 0.  0.
         -6    2    1    2    0  501  0.94466712759E+02  0.17212266422E+03 -0.46662666346E+03  0.53432448935E+03  0.17091531679E+03 0.  0.
        -24    2    5    5    0    0 -0.47876053925E+01  0.77902165568E+02 -0.29010042366E+03  0.31091337643E+03  0.80107448292E+02 0.  0.
          4    1    4    4  502    0  0.46573626056E+01 -0.27611607803E+02 -0.22112297034E+03  0.22288889592E+03  0.00000000000E+00 0. -1.
         -3    1    4    4    0  502  0.67496798990E+00  0.85089928283E+01  0.32237062724E+01  0.91241888884E+01  0.00000000000E+00 0.  1.
          5    1    3    3  503    0 -0.99799043354E+02 -0.15302004924E+03 -0.40172997640E+03  0.44134345862E+03  0.47000000000E+01 0. -1.
         13    1    6    6    0    0 -0.11946618531E+02 -0.11749718639E+01 -0.21232363291E+01  0.12190585946E+02  0.00000000000E+00 0. -1.
        -14    1    6    6    0    0  0.71590131382E+01  0.79077137432E+02 -0.28797718733E+03  0.29872279049E+03  0.00000000000E+00 0.  1.
         -5    1    5    5    0  501  0.99254318151E+02  0.94220498648E+02 -0.17652623980E+03  0.22341111292E+03  0.47000000000E+01 0.  1.
<mgrwt>
<rscale>  2 0.26193534E+03</rscale>
<asrwt>0</asrwt>
<pdfrwt beam="2">  1        2 0.17645668E+00 0.26193534E+03</pdfrwt>
<pdfrwt beam="1">  1       -2 0.93403951E-02 0.26193534E+03</pdfrwt>
<totfact> 0.15871118E+03</totfact>
</mgrwt>
</event>
<event>
12    1  0.5759937E-002  0.1798462E+03  0.7546771E-02  0.1167952E+00
         -1   -1    0    0    0  501 -0.00000000000E+00  0.00000000000E+00  0.13894820621E+03  0.13894820621E+03  0.00000000000E+00 0. -1.
          1   -1    0    0  503    0  0.00000000000E+00 -0.00000000000E+00 -0.80799607213E+03  0.80799607213E+03  0.00000000000E+00 0.  1.
          6    2    1    2  503    0 -0.36327378109E+02  0.37295361865E+02 -0.73434434347E+03  0.75619494369E+03  0.17279628366E+03 0.  0.
         24    2    3    3    0    0 -0.46382647023E+02  0.32448111134E+02 -0.73726283526E+03  0.74373653821E+03  0.79895682934E+02 0.  0.
         -6    2    1    2    0  501  0.36327378109E+02 -0.37295361865E+02  0.65296477561E+02  0.19074933465E+03  0.17149651971E+03 0.  0.
        -24    2    5    5    0    0  0.54217625228E+02 -0.62359652288E+02 -0.34867217499E+01  0.11524106952E+03  0.80250045206E+02 0.  0.
          2    1    4    4  502    0 -0.42377860609E+02  0.37287037089E+02 -0.24440244170E+03  0.25083612123E+03  0.00000000000E+00 0. -1.
         -1    1    4    4    0  502 -0.40047864140E+01 -0.48389259554E+01 -0.49286039357E+03  0.49290041699E+03  0.00000000000E+00 0.  1.
          5    1    3    3  503    0  0.10055268914E+02  0.48472507313E+01  0.29184917905E+01  0.12458405473E+02  0.47000000000E+01 0. -1.
         13    1    6    6    0    0  0.14288118711E+02  0.72701593164E+01  0.25314627583E+02  0.29963910333E+02  0.00000000000E+00 0. -1.
        -14    1    6    6    0    0  0.39929506517E+02 -0.69629811604E+02 -0.28801349333E+02  0.85277159182E+02  0.00000000000E+00 0.  1.
         -5    1    5    5    0  501 -0.17890247119E+02  0.25064290423E+02  0.68783199311E+02  0.75508265136E+02  0.47000000000E+01 0.  1.
<mgrwt>
<rscale>  2 0.17984620E+03</rscale>
<asrwt>0</asrwt>
<pdfrwt beam="2">  1        1 0.12430709E+00 0.17984620E+03</pdfrwt>
<pdfrwt beam="1">  1       -1 0.21376647E-01 0.17984620E+03</pdfrwt>
<totfact> 0.41658896E+02</totfact>
</mgrwt>
</event>
<event>
12    1  0.5759937E-002  0.1881269E+03  0.7546771E-02  0.1160162E+00
          2   -1    0    0  503    0  0.00000000000E+00  0.00000000000E+00  0.13847116560E+03  0.13847116560E+03  0.00000000000E+00 0.  1.
         -2   -1    0    0    0  501 -0.00000000000E+00 -0.00000000000E+00 -0.26095949143E+03  0.26095949143E+03  0.00000000000E+00 0. -1.
          6    2    1    2  503    0  0.25723296631E+02 -0.69952965084E+02 -0.90159232994E+02  0.20941135781E+03  0.17369318977E+03 0.  0.
         24    2    3    3    0    0 -0.21163153888E+02 -0.80960439926E+02 -0.15465810373E+02  0.12041303689E+03  0.85191761610E+02 0.  0.
         -6    2    1    2    0  501 -0.25723296631E+02  0.69952965084E+02 -0.32329092838E+02  0.19001929921E+03  0.17177618728E+03 0.  0.
        -24    2    5    5    0    0 -0.16049036710E+02  0.74706004941E+01  0.40238649886E+02  0.93656420086E+02  0.82698214175E+02 0.  0.
          2    1    4    4  502    0 -0.48400045888E+02 -0.65087468838E+02 -0.28954672724E+02  0.86123841730E+02  0.00000000000E+00 0. -1.
         -1    1    4    4    0  502  0.27236892000E+02 -0.15872971088E+02  0.13488862351E+02  0.34289195157E+02  0.00000000000E+00 0.  1.
          5    1    3    3  503    0  0.46886450519E+02  0.11007474842E+02 -0.74693422621E+02  0.88998320925E+02  0.47000000000E+01 0. -1.
         11    1    6    6    0    0  0.30912736331E+02 -0.27236162318E+01  0.83794198259E-01  0.31032601797E+02  0.00000000000E+00 0. -1.
        -12    1    6    6    0    0 -0.46961773041E+02  0.10194216726E+02  0.40154855688E+02  0.62623818289E+02  0.00000000000E+00 0.  1.
         -5    1    5    5    0  501 -0.96742599208E+01  0.62482364590E+02 -0.72567742724E+02  0.96362879128E+02  0.47000000000E+01 0.  1.
<mgrwt>
<rscale>  2 0.18812695E+03</rscale>
<asrwt>0</asrwt>
<pdfrwt beam="1">  1        2 0.21303257E-01 0.18812695E+03</pdfrwt>
<pdfrwt beam="2">  1       -2 0.40147614E-01 0.18812695E+03</pdfrwt>
<totfact> 0.15087248E+03</totfact>
</mgrwt>
</event>
<event>
12    1  0.5759937E-002  0.2211079E+03  0.7546771E-02  0.1133060E+00
          1   -1    0    0  503    0  0.00000000000E+00  0.00000000000E+00  0.16970774029E+03  0.16970774029E+03  0.00000000000E+00 0. -1.
         -1   -1    0    0    0  501 -0.00000000000E+00 -0.00000000000E+00 -0.34183824924E+03  0.34183824924E+03  0.00000000000E+00 0.  1.
          6    2    1    2  503    0  0.12168750589E+03 -0.63896497706E+02  0.15504393284E+02  0.22123537288E+03  0.17266757801E+03 0.  0.
         24    2    3    3    0    0  0.78821046918E+02 -0.92266199550E+02 -0.34939154178E+02  0.14906186827E+03  0.79201559713E+02 0.  0.
         -6    2    1    2    0  501 -0.12168750589E+03  0.63896497706E+02 -0.18763490223E+03  0.29031061665E+03  0.17373193746E+03 0.  0.
        -24    2    5    5    0    0 -0.84667708438E+02  0.10667299739E+03 -0.11671552438E+03  0.19947041363E+03  0.87282203560E+02 0.  0.
          2    1    4    4  502    0  0.79468111243E+02 -0.91779024662E+02 -0.75247354561E+01  0.12163548708E+03  0.00000000000E+00 0. -1.
         -1    1    4    4    0  502 -0.64706432455E+00 -0.48717488781E+00 -0.27414418722E+02  0.27426381195E+02  0.00000000000E+00 0.  1.
          5    1    3    3  503    0  0.42866458968E+02  0.28369701843E+02  0.50443547462E+02  0.72173504609E+02  0.47000000000E+01 0. -1.
         13    1    6    6    0    0 -0.91583368382E+02  0.63567990342E+02 -0.10746368082E+03  0.15484458485E+03  0.00000000000E+00 0. -1.
        -14    1    6    6    0    0  0.69156599439E+01  0.43105007053E+02 -0.92518435531E+01  0.44625828784E+02  0.00000000000E+00 0.  1.
         -5    1    5    5    0  501 -0.37019797447E+02 -0.42776499689E+02 -0.70919377854E+02  0.90840203015E+02  0.47000000000E+01 0.  1.
<mgrwt>
<rscale>  2 0.22110790E+03</rscale>
<asrwt>0</asrwt>
<pdfrwt beam="1">  1        1 0.26108883E-01 0.22110790E+03</pdfrwt>
<pdfrwt beam="2">  1       -1 0.52590500E-01 0.22110790E+03</pdfrwt>
<totfact> 0.67738428E+02</totfact>
</mgrwt>
</event>
<event>
12    1  0.5759937E-002  0.1791162E+03  0.7546771E-02  0.1168661E+00
         -2   -1    0    0    0  501 -0.00000000000E+00  0.00000000000E+00  0.22887167442E+02  0.22887167442E+02  0.00000000000E+00 0. -1.
          2   -1    0    0  503    0  0.00000000000E+00 -0.00000000000E+00 -0.14124823790E+04  0.14124823790E+04  0.00000000000E+00 0.  1.
          6    2    1    2  503    0  0.58764114575E+00 -0.44788982492E+02 -0.63291010001E+03  0.65780987342E+03  0.17358639521E+03 0.  0.
         24    2    3    3    0    0 -0.11189162908E+02 -0.40958071005E+02 -0.63738147254E+03  0.64382945252E+03  0.80364553428E+02 0.  0.
         -6    2    1    2    0  501 -0.58764114575E+00  0.44788982492E+02 -0.75668511155E+03  0.77755967302E+03  0.17326363956E+03 0.  0.
        -24    2    5    5    0    0  0.85337554399E+01  0.94903181090E+02 -0.46776243568E+03  0.48414352587E+03  0.80708231595E+02 0.  0.
          4    1    4    4  502    0 -0.42001878964E+02 -0.15964395735E+02 -0.21844440574E+03  0.22301788755E+03  0.00000000000E+00 0. -1.
         -3    1    4    4    0  502  0.30812716056E+02 -0.24993675269E+02 -0.41893706680E+03  0.42081156497E+03  0.00000000000E+00 0.  1.
          5    1    3    3  503    0  0.11776804054E+02 -0.38309114869E+01  0.44713725230E+01  0.13980420909E+02  0.47000000000E+01 0. -1.
         13    1    6    6    0    0 -0.28340540009E+02  0.33475127945E+02 -0.96066991882E+02  0.10560604778E+03  0.00000000000E+00 0. -1.
        -14    1    6    6    0    0  0.36874295449E+02  0.61428053145E+02 -0.37169544379E+03  0.37853747808E+03  0.00000000000E+00 0.  1.
         -5    1    5    5    0  501 -0.91213965856E+01 -0.50114198598E+02 -0.28892267587E+03  0.29341614715E+03  0.47000000000E+01 0.  1.
<mgrwt>
<rscale>  2 0.17911620E+03</rscale>
<asrwt>0</asrwt>
<pdfrwt beam="2">  1        2 0.21730495E+00 0.17911620E+03</pdfrwt>
<pdfrwt beam="1">  1       -2 0.35211032E-02 0.17911620E+03</pdfrwt>
<totfact> 0.50248336E+03</totfact>
</mgrwt>
</event>
<event>
12    1  0.5759937E-002  0.1996228E+03  0.7546771E-02  0.1150058E+00
         -2   -1    0    0    0  501 -0.00000000000E+00  0.00000000000E+00  0.76670706890E+02  0.76670706890E+02  0.00000000000E+00 0. -1.
          2   -1    0    0  503    0  0.00000000000E+00 -0.00000000000E+00 -0.56200942329E+03  0.56200942329E+03  0.00000000000E+00 0.  1.
          6    2    1    2  503    0  0.82890745206E+02 -0.54531819204E+02 -0.15611231421E+03  0.25412257885E+03  0.17424877470E+03 0.  0.
         24    2    3    3    0    0  0.11918992255E+02 -0.59499401811E+02 -0.25037648807E+02  0.10491023182E+03  0.81835393877E+02 0.  0.
         -6    2    1    2    0  501 -0.82890745206E+02  0.54531819204E+02 -0.32922640219E+03  0.38455755133E+03  0.17219143835E+03 0.  0.
        -24    2    5    5    0    0 -0.42076460291E+02  0.61569679814E+02 -0.90432320576E+02  0.14215284686E+03  0.80424954360E+02 0.  0.
          4    1    4    4  502    0 -0.10077849399E+01 -0.75371477821E+02 -0.38905582599E+01  0.75478551543E+02  0.00000000000E+00 0. -1.
         -3    1    4    4    0  502  0.12926777195E+02  0.15872076010E+02 -0.21147090547E+02  0.29431680280E+02  0.00000000000E+00 0.  1.
          5    1    3    3  503    0  0.70971752950E+02  0.49675826072E+01 -0.13107466540E+03  0.14921234702E+03  0.47000000000E+01 0. -1.
         13    1    6    6    0    0 -0.17223828666E+02  0.77944986235E+02 -0.63262780701E+02  0.10185411418E+03  0.00000000000E+00 0. -1.
        -14    1    6    6    0    0 -0.24852631625E+02 -0.16375306421E+02 -0.27169539874E+02  0.40298732686E+02  0.00000000000E+00 0.  1.
         -5    1    5    5    0  501 -0.40814284914E+02 -0.70378606097E+01 -0.23879408161E+03  0.24240470446E+03  0.47000000000E+01 0.  1.
<mgrwt>
<rscale>  2 0.19962281E+03</rscale>
<asrwt>0</asrwt>
<pdfrwt beam="2">  1        2 0.86462989E-01 0.19962281E+03</pdfrwt>
<pdfrwt beam="1">  1       -2 0.11795493E-01 0.19962281E+03</pdfrwt>
<totfact> 0.27386705E+03</totfact>
</mgrwt>
</event>
<event>
12    1  0.5759937E-002  0.1937563E+03  0.7546771E-02  0.1155116E+00
          1   -1    0    0  503    0  0.00000000000E+00  0.00000000000E+00  0.70117854914E+03  0.70117854914E+03  0.00000000000E+00 0.  1.
         -1   -1    0    0    0  501 -0.00000000000E+00 -0.00000000000E+00 -0.53546057181E+02  0.53546057181E+02  0.00000000000E+00 0. -1.
          6    2    1    2  503    0 -0.51223869123E+02  0.65158818422E+02  0.32357200446E+03  0.37635760481E+03  0.17342620403E+03 0.  0.
         24    2    3    3    0    0 -0.77285837932E+02  0.13735640247E+00  0.13284743942E+03  0.17312137170E+03  0.79683420905E+02 0.  0.
         -6    2    1    2    0  501  0.51223869123E+02 -0.65158818422E+02  0.32406048750E+03  0.37836700151E+03  0.17685257104E+03 0.  0.
        -24    2    5    5    0    0  0.63321347608E+02  0.21860116227E+02  0.16074239808E+03  0.19285815454E+03  0.82877569258E+02 0.  0.
          4    1    4    4  502    0 -0.70060388068E+02  0.32779843328E+02  0.87593064463E+02  0.11685683997E+03  0.00000000000E+00 0. -1.
         -3    1    4    4    0  502 -0.72254498633E+01 -0.32642486925E+02  0.45254374959E+02  0.56264531735E+02  0.00000000000E+00 0.  1.
          5    1    3    3  503    0  0.26061968809E+02  0.65021462019E+02  0.19072456503E+03  0.20323623311E+03  0.47000000000E+01 0. -1.
         13    1    6    6    0    0  0.29829324182E+02  0.49646858775E+02  0.11999232539E+03  0.13323947358E+03  0.00000000000E+00 0. -1.
        -14    1    6    6    0    0  0.33492023426E+02 -0.27786742548E+02  0.40750072687E+02  0.59618680953E+02  0.00000000000E+00 0.  1.
         -5    1    5    5    0  501 -0.12097478485E+02 -0.87018934648E+02  0.16331808942E+03  0.18550884697E+03  0.47000000000E+01 0.  1.
<mgrwt>
<rscale>  2 0.19375629E+03</rscale>
<asrwt>0</asrwt>
<pdfrwt beam="1">  1        1 0.10787362E+00 0.19375629E+03</pdfrwt>
<pdfrwt beam="2">  1       -1 0.82378554E-02 0.19375629E+03</pdfrwt>
<totfact> 0.22963058E+03</totfact>
</mgrwt>
</event>
<event>
12    1  0.5759937E-002  0.2312219E+03  0.7546771E-02  0.1125783E+00
         -2   -1    0    0    0  501 -0.00000000000E+00  0.00000000000E+00  0.39305215086E+02  0.39305215086E+02  0.00000000000E+00 0. -1.
          2   -1    0    0  503    0  0.00000000000E+00 -0.00000000000E+00 -0.24346225606E+04  0.24346225606E+04  0.00000000000E+00 0.  1.
          6    2    1    2  503    0 -0.80747826706E+02 -0.12325638970E+03 -0.38584435416E+03  0.45157520222E+03  0.18257039329E+03 0.  0.
         24    2    3    3    0    0 -0.47428836041E+02  0.16964492557E+02 -0.16816758031E+03  0.19046733403E+03  0.73893042761E+02 0.  0.
         -6    2    1    2    0  501  0.80747826706E+02  0.12325638970E+03 -0.20094729913E+04  0.20223525734E+04  0.17382715349E+03 0.  0.
        -24    2    5    5    0    0  0.53588927036E+02  0.46483098196E+02 -0.55759373759E+03  0.56818366937E+03  0.83002737428E+02 0.  0.
          4    1    4    4  502    0 -0.60655050587E+02  0.18453618693E+02 -0.83929643440E+02  0.10518439168E+03  0.00000000000E+00 0. -1.
         -3    1    4    4    0  502  0.13226214546E+02 -0.14891261354E+01 -0.84237936869E+02  0.85282942349E+02  0.00000000000E+00 0.  1.
          5    1    3    3  503    0 -0.33318990665E+02 -0.14022088226E+03 -0.21767677385E+03  0.26110786820E+03  0.47000000000E+01 0. -1.
         11    1    6    6    0    0 -0.10505467697E+02  0.42788422560E+02 -0.26412053875E+03  0.26777018681E+03  0.00000000000E+00 0. -1.
        -12    1    6    6    0    0  0.64094394733E+02  0.36946756362E+01 -0.29347319884E+03  0.30041348256E+03  0.00000000000E+00 0.  1.
         -5    1    5    5    0  501  0.27158899670E+02  0.76773291505E+02 -0.14518792537E+04  0.14541689041E+04  0.47000000000E+01 0.  1.
<mgrwt>
<rscale>  2 0.23122190E+03</rscale>
<asrwt>0</asrwt>
<pdfrwt beam="2">  1        2 0.37455736E+00 0.23122190E+03</pdfrwt>
<pdfrwt beam="1">  1       -2 0.60469554E-02 0.23122190E+03</pdfrwt>
<totfact> 0.64206013E+02</totfact>
</mgrwt>
</event>
<event>
12    1  0.5759937E-002  0.2000017E+03  0.7546771E-02  0.1149738E+00
         -1   -1    0    0    0  501 -0.00000000000E+00  0.00000000000E+00  0.23332678867E+03  0.23332678867E+03  0.00000000000E+00 0.  1.
          1   -1    0    0  503    0  0.00000000000E+00 -0.00000000000E+00 -0.30183976215E+03  0.30183976215E+03  0.00000000000E+00 0. -1.
          6    2    1    2  503    0  0.71894306045E+02 -0.69747203719E+02  0.14165700506E+03  0.24479808161E+03  0.17270185294E+03 0.  0.
         24    2    3    3    0    0 -0.16100756804E+01 -0.82043584248E+01  0.73619294171E+01  0.79729388997E+02  0.78947283831E+02 0.  0.
         -6    2    1    2    0  501 -0.71894306045E+02  0.69747203719E+02 -0.21016997854E+03  0.29036846921E+03  0.17351934866E+03 0.  0.
        -24    2    5    5    0    0 -0.11602876250E+03  0.42812522036E+02 -0.16933411988E+03  0.22431557618E+03  0.79673381941E+02 0.  0.
          2    1    4    4  502    0 -0.19877440776E+02  0.19468393357E+02 -0.21976056752E+02  0.35455296672E+02  0.00000000000E+00 0. -1.
         -1    1    4    4    0  502  0.18267365096E+02 -0.27672751782E+02  0.29337986170E+02  0.44274092325E+02  0.00000000000E+00 0.  1.
          5    1    3    3  503    0  0.73504381725E+02 -0.61542845295E+02  0.13429507564E+03  0.16506869261E+03  0.47000000000E+01 0. -1.
         13    1    6    6    0    0 -0.80153927493E+02  0.51785344964E+02 -0.15980271272E+03  0.18612705617E+03  0.00000000000E+00 0. -1.
        -14    1    6    6    0    0 -0.35874835011E+02 -0.89728229272E+01 -0.95314071658E+01  0.38188520015E+02  0.00000000000E+00 0.  1.
         -5    1    5    5    0  501  0.44134456460E+02  0.26934681683E+02 -0.40835858659E+02  0.66052893024E+02  0.47000000000E+01 0.  1.
<mgrwt>
<rscale>  2 0.20000165E+03</rscale>
<asrwt>0</asrwt>
<pdfrwt beam="2">  1        1 0.46436887E-01 0.20000165E+03</pdfrwt>
<pdfrwt beam="1">  1       -1 0.35896429E-01 0.20000165E+03</pdfrwt>
<totfact> 0.65284585E+02</totfact>
</mgrwt>
</event>
<event>
12    1  0.5759937E-002  0.2154771E+03  0.7546771E-02  0.1137301E+00
         -1   -1    0    0    0  501 -0.00000000000E+00  0.00000000000E+00  0.18680900045E+03  0.18680900045E+03  0.00000000000E+00 0.  1.
          1   -1    0    0  503    0  0.00000000000E+00 -0.00000000000E+00 -0.43130294906E+03  0.43130294906E+03  0.00000000000E+00 0. -1.
          6    2    1    2  503    0  0.10040110422E+03 -0.78645016954E+02  0.79031887642E+02  0.22922826944E+03  0.17330360592E+03 0.  0.
         24    2    3    3    0    0  0.96335645154E+02 -0.11753974893E+03  0.79997559860E+02  0.18982838802E+03  0.80864443432E+02 0.  0.
         -6    2    1    2    0  501 -0.10040110422E+03  0.78645016954E+02 -0.32352583625E+03  0.38888368007E+03  0.17405783373E+03 0.  0.
        -24    2    5    5    0    0 -0.12710493203E+03  0.97609460647E+02 -0.29915359215E+03  0.34778817148E+03  0.76029402004E+02 0.  0.
          2    1    4    4  502    0  0.10179704529E+03 -0.73982064114E+02  0.44856346943E+02  0.13359669195E+03  0.00000000000E+00 0. -1.
         -1    1    4    4    0  502 -0.54614001348E+01 -0.43557684813E+02  0.35141212917E+02  0.56231696070E+02  0.00000000000E+00 0.  1.
          5    1    3    3  503    0  0.40654590706E+01  0.38894731973E+02 -0.96567221795E+00  0.39399881415E+02  0.47000000000E+01 0. -1.
         13    1    6    6    0    0 -0.47046902682E+02  0.97395375929E+01 -0.14732449386E+03  0.15496056317E+03  0.00000000000E+00 0. -1.
        -14    1    6    6    0    0 -0.80058029348E+02  0.87869923054E+02 -0.15182909829E+03  0.19282760831E+03  0.00000000000E+00 0.  1.
         -5    1    5    5    0  501  0.26703827805E+02 -0.18964443692E+02 -0.24372244105E+02  0.41095508596E+02  0.47000000000E+01 0.  1.
<mgrwt>
<rscale>  2 0.21547708E+03</rscale>
<asrwt>0</asrwt>
<pdfrwt beam="2">  1        1 0.66354299E-01 0.21547708E+03</pdfrwt>
<pdfrwt beam="1">  1       -1 0.28739847E-01 0.21547708E+03</pdfrwt>
<totfact> 0.60746206E+02</totfact>
</mgrwt>
</event>
<event>
12    1  0.5759937E-002  0.1769264E+03  0.7546771E-02  0.1170811E+00
         -1   -1    0    0    0  501 -0.00000000000E+00  0.00000000000E+00  0.21054483908E+02  0.21054483908E+02  0.00000000000E+00 0. -1.
          1   -1    0    0  503    0  0.00000000000E+00 -0.00000000000E+00 -0.16896139932E+04  0.16896139932E+04  0.00000000000E+00 0.  1.
          6    2    1    2  503    0  0.30207479208E+02  0.86800294430E+01 -0.54059541286E+03  0.56901219487E+03  0.17476739626E+03 0.  0.
         24    2    3    3    0    0 -0.16385126885E+02 -0.14036334089E+02 -0.48770116622E+03  0.49480440928E+03  0.80706163668E+02 0.  0.
         -6    2    1    2    0  501 -0.30207479208E+02 -0.86800294430E+01 -0.11279640964E+04  0.11416562822E+04  0.17345958959E+03 0.  0.
        -24    2    5    5    0    0 -0.67823297909E+02  0.37424745201E+02 -0.57442708457E+03  0.58491045732E+03  0.78442056972E+02 0.  0.
          4    1    4    4  502    0 -0.41986730972E+02  0.74411394396E+00 -0.40119143080E+03  0.40338319676E+03  0.00000000000E+00 0. -1.
         -3    1    4    4    0  502  0.25601604087E+02 -0.14780448033E+02 -0.86509735418E+02  0.91421212516E+02  0.00000000000E+00 0.  1.
          5    1    3    3  503    0  0.46592606093E+02  0.22716363532E+02 -0.52894246647E+02  0.74207785595E+02  0.47000000000E+01 0. -1.
         11    1    6    6    0    0 -0.64115753564E+02  0.40851777338E+02 -0.27155045711E+03  0.28199175223E+03  0.00000000000E+00 0. -1.
        -12    1    6    6    0    0 -0.37075443443E+01 -0.34270321366E+01 -0.30287662746E+03  0.30291870509E+03  0.00000000000E+00 0.  1.
         -5    1    5    5    0  501  0.37615818701E+02 -0.46104774644E+02 -0.55353701183E+03  0.55674582489E+03  0.47000000000E+01 0.  1.
<mgrwt>
<rscale>  2 0.17692638E+03</rscale>
<asrwt>0</asrwt>
<pdfrwt beam="2">  1        1 0.25994068E+00 0.17692638E+03</pdfrwt>
<pdfrwt beam="1">  1       -1 0.32391506E-02 0.17692638E+03</pdfrwt>
<totfact> 0.18114977E+03</totfact>
</mgrwt>
</event>
<event>
12    1  0.5759937E-002  0.2167644E+03  0.7546771E-02  0.1136319E+00
         -1   -1    0    0    0  501 -0.00000000000E+00  0.00000000000E+00  0.28952980049E+03  0.28952980049E+03  0.00000000000E+00 0.  1.
          1   -1    0    0  503    0  0.00000000000E+00 -0.00000000000E+00 -0.29811087933E+03  0.29811087933E+03  0.00000000000E+00 0. -1.
          6    2    1    2  503    0 -0.74027122154E+02  0.10803588110E+03  0.19404325312E+03  0.29022497893E+03  0.17154004750E+03 0.  0.
         24    2    3    3    0    0  0.18842785621E+02  0.29106009320E+02  0.47577634687E+02  0.99623269043E+02  0.80367618255E+02 0.  0.
         -6    2    1    2    0  501  0.74027122154E+02 -0.10803588110E+03 -0.20262433197E+03  0.29741570089E+03  0.17391869598E+03 0.  0.
        -24    2    5    5    0    0  0.37616184115E+02 -0.13639484820E+03 -0.11481667620E+03  0.19810677966E+03  0.77748923411E+02 0.  0.
          2    1    4    4  502    0  0.49824452588E+02  0.97298571368E+01  0.24156535406E+02  0.56219964411E+02  0.00000000000E+00 0. -1.
         -1    1    4    4    0  502 -0.30981666966E+02  0.19376152184E+02  0.23421099282E+02  0.43403304632E+02  0.00000000000E+00 0.  1.
          5    1    3    3  503    0 -0.92869907775E+02  0.78929871780E+02  0.14646561843E+03  0.19060170989E+03  0.47000000000E+01 0. -1.
         11    1    6    6    0    0  0.35291933079E+02 -0.43129651157E+02 -0.80255823105E+01  0.56303617298E+02  0.00000000000E+00 0. -1.
        -12    1    6    6    0    0  0.23242510366E+01 -0.93265197043E+02 -0.10679109389E+03  0.14180316237E+03  0.00000000000E+00 0.  1.
         -5    1    5    5    0  501  0.36410938039E+02  0.28358967099E+02 -0.87807655765E+02  0.99308921225E+02  0.47000000000E+01 0.  1.
<mgrwt>
<rscale>  2 0.21676444E+03</rscale>
<asrwt>0</asrwt>
<pdfrwt beam="2">  1        1 0.45863212E-01 0.21676444E+03</pdfrwt>
<pdfrwt beam="1">  1       -1 0.44543046E-01 0.21676444E+03</pdfrwt>
<totfact> 0.45227707E+02</totfact>
</mgrwt>
</event>
<event>
12    1  0.5759937E-002  0.1844583E+03  0.7546771E-02  0.1163557E+00
         -1   -1    0    0    0  501 -0.00000000000E+00  0.00000000000E+00  0.10494733967E+03  0.10494733967E+03  0.00000000000E+00 0.  1.
          1   -1    0    0  503    0  0.00000000000E+00 -0.00000000000E+00 -0.40826437769E+03  0.40826437769E+03  0.00000000000E+00 0. -1.
          6    2    1    2  503    0 -0.18854795999E+02 -0.62268621264E+02 -0.26891476308E+03  0.32682626499E+03  0.17397520846E+03 0.  0.
         24    2    3    3    0    0  0.42068648726E+02  0.80717379524E+01 -0.14448036017E+03  0.17137388360E+03  0.81605816866E+02 0.  0.
         -6    2    1    2    0  501  0.18854795999E+02  0.62268621264E+02 -0.34402274948E+02  0.18638545237E+03  0.17123999477E+03 0.  0.
        -24    2    5    5    0    0 -0.19750070128E+01  0.21027568861E+02  0.45181165454E+02  0.94242524902E+02  0.79964094963E+02 0.  0.
          2    1    4    4  502    0  0.48350338901E+02 -0.18871783345E+02 -0.46921484443E+02  0.69968029705E+02  0.00000000000E+00 0. -1.
         -1    1    4    4    0  502 -0.62816901752E+01  0.26943521297E+02 -0.97558875723E+02  0.10140585389E+03  0.00000000000E+00 0.  1.
          5    1    3    3  503    0 -0.60923444725E+02 -0.70340359217E+02 -0.12443440291E+03  0.15545238139E+03  0.47000000000E+01 0. -1.
         13    1    6    6    0    0 -0.14849835371E+02  0.37978907704E+02 -0.36813969115E+01  0.40944691037E+02  0.00000000000E+00 0. -1.
        -14    1    6    6    0    0  0.12874828358E+02 -0.16951338843E+02  0.48862562366E+02  0.53297833865E+02  0.00000000000E+00 0.  1.
         -5    1    5    5    0  501  0.20829803012E+02  0.41241052403E+02 -0.79583440403E+02  0.92142927472E+02  0.47000000000E+01 0.  1.
<mgrwt>
<rscale>  2 0.18445830E+03</rscale>
<asrwt>0</asrwt>
<pdfrwt beam="2">  1        1 0.62809905E-01 0.18445830E+03</pdfrwt>
<pdfrwt beam="1">  1       -1 0.16145744E-01 0.18445830E+03</pdfrwt>
<totfact> 0.16707436E+03</totfact>
</mgrwt>
</event>
<event>
12    1  0.5759937E-002  0.2287834E+03  0.7546771E-02  0.1127499E+00
          1   -1    0    0  503    0  0.00000000000E+00  0.00000000000E+00  0.84172238387E+03  0.84172238387E+03  0.00000000000E+00 0.  1.
         -1   -1    0    0    0  501 -0.00000000000E+00 -0.00000000000E+00 -0.70789665359E+02  0.70789665359E+02  0.00000000000E+00 0. -1.
          6    2    1    2  503    0  0.14031162178E+03  0.55311718261E+02  0.54446914904E+03  0.59056344417E+03  0.17196450201E+03 0.  0.
         24    2    3    3    0    0  0.54121560697E+02  0.63353135923E+02  0.43820853854E+03  0.45342556329E+03  0.81395669648E+02 0.  0.
         -6    2    1    2    0  501 -0.14031162178E+03 -0.55311718261E+02  0.22646356947E+03  0.32194860506E+03  0.17210002504E+03 0.  0.
        -24    2    5    5    0    0 -0.16791364344E+02 -0.10033273233E+02  0.35104307346E+02  0.89681842946E+02  0.80174210764E+02 0.  0.
          2    1    4    4  502    0  0.41799560211E+01  0.66184324668E+02  0.23856316999E+03  0.24760901223E+03  0.00000000000E+00 0. -1.
         -1    1    4    4    0  502  0.49941604676E+02 -0.28311887457E+01  0.19964536855E+03  0.20581655106E+03  0.00000000000E+00 0.  1.
          5    1    3    3  503    0  0.86190061083E+02 -0.80414176620E+01  0.10626061050E+03  0.13713788088E+03  0.47000000000E+01 0. -1.
         13    1    6    6    0    0 -0.23626291912E+02 -0.39344466581E+02  0.37810631840E+02  0.59462867407E+02  0.00000000000E+00 0. -1.
        -14    1    6    6    0    0  0.68349275680E+01  0.29311193348E+02 -0.27063244937E+01  0.30218975539E+02  0.00000000000E+00 0.  1.
         -5    1    5    5    0  501 -0.12352025744E+03 -0.45278445028E+02  0.19135926213E+03  0.23226676211E+03  0.47000000000E+01 0.  1.
<mgrwt>
<rscale>  2 0.22878338E+03</rscale>
<asrwt>0</asrwt>
<pdfrwt beam="1">  1        1 0.12949574E+00 0.22878338E+03</pdfrwt>
<pdfrwt beam="2">  1       -1 0.10890718E-01 0.22878338E+03</pdfrwt>
<totfact> 0.11367174E+03</totfact>
</mgrwt>
</event>
<event>
12    1  0.5759937E-002  0.2515958E+03  0.7546771E-02  0.1112300E+00
         -1   -1    0    0    0  501 -0.00000000000E+00  0.00000000000E+00  0.29864545238E+02  0.29864545238E+02  0.00000000000E+00 0.  1.
          1   -1    0    0  503    0  0.00000000000E+00 -0.00000000000E+00 -0.24415164279E+04  0.24415164279E+04  0.00000000000E+00 0. -1.
          6    2    1    2  503    0 -0.25021012912E+02  0.18109471480E+03 -0.16560332240E+04  0.16750906699E+04  0.17338214056E+03 0.  0.
         24    2    3    3    0    0 -0.65906399323E+02  0.81811959871E+02 -0.64038716078E+03  0.65377402169E+03  0.79296314442E+02 0.  0.
         -6    2    1    2    0  501  0.25021012912E+02 -0.18109471480E+03 -0.75561865874E+03  0.79629030329E+03  0.17232917008E+03 0.  0.
        -24    2    5    5    0    0  0.63225864117E+02 -0.17230937839E+03 -0.70016646508E+03  0.72821807273E+03  0.79877724405E+02 0.  0.
          2    1    4    4  502    0 -0.24217843108E+02  0.70205711599E+02 -0.53050107715E+03  0.53567409749E+03  0.00000000000E+00 0. -1.
         -1    1    4    4    0  502 -0.41688556215E+02  0.11606248272E+02 -0.10988608364E+03  0.11809992420E+03  0.00000000000E+00 0.  1.
          5    1    3    3  503    0  0.40885386411E+02  0.99282754931E+02 -0.10156460632E+04  0.10213166482E+04  0.47000000000E+01 0. -1.
         13    1    6    6    0    0  0.19978055605E+02 -0.73488514125E+02 -0.44054410613E+03  0.44707806238E+03  0.00000000000E+00 0. -1.
        -14    1    6    6    0    0  0.43247808512E+02 -0.98820864261E+02 -0.25962235895E+03  0.28114001036E+03  0.00000000000E+00 0.  1.
         -5    1    5    5    0  501 -0.38204851205E+02 -0.87853364152E+01 -0.55452193656E+02  0.68072230555E+02  0.47000000000E+01 0.  1.
<mgrwt>
<rscale>  2 0.25159579E+03</rscale>
<asrwt>0</asrwt>
<pdfrwt beam="2">  1        1 0.37561765E+00 0.25159579E+03</pdfrwt>
<pdfrwt beam="1">  1       -1 0.45945486E-02 0.25159579E+03</pdfrwt>
<totfact> 0.34778107E+02</totfact>
</mgrwt>
</event>
<event>
12    1  0.5759937E-002  0.1866038E+03  0.7546771E-02  0.1161561E+00
          2   -1    0    0  503    0  0.00000000000E+00  0.00000000000E+00  0.69397102077E+03  0.69397102077E+03  0.00000000000E+00 0.  1.
         -2   -1    0    0    0  501 -0.00000000000E+00 -0.00000000000E+00 -0.51856077260E+02  0.51856077260E+02  0.00000000000E+00 0. -1.
          6    2    1    2  503    0 -0.70142582305E+02  0.23469117266E+02  0.25659726913E+03  0.31819337426E+03  0.17301469181E+03 0.  0.
         24    2    3    3    0    0  0.29410933019E+00 -0.40268145316E+02  0.86831448867E+02  0.12360074876E+03  0.78203801404E+02 0.  0.
         -6    2    1    2    0  501  0.70142582305E+02 -0.23469117266E+02  0.38551767438E+03  0.42763372377E+03  0.16963473444E+03 0.  0.
        -24    2    5    5    0    0  0.58708689549E+02  0.19815881961E+02  0.36380632938E+03  0.37765575299E+03  0.80183807993E+02 0.  0.
          2    1    4    4  502    0 -0.21408743057E+01 -0.18254502372E+02 -0.12241012704E+02  0.22082857416E+02  0.00000000000E+00 0. -1.
         -1    1    4    4    0  502  0.24349836359E+01 -0.22013642944E+02  0.99072461571E+02  0.10151789134E+03  0.00000000000E+00 0.  1.
          5    1    3    3  503    0 -0.70436691636E+02  0.63737262582E+02  0.16976582026E+03  0.19459262550E+03  0.47000000000E+01 0. -1.
         13    1    6    6    0    0  0.24551535567E+02  0.29191713081E+02  0.55632376514E+02  0.67452911931E+02  0.00000000000E+00 0. -1.
        -14    1    6    6    0    0  0.34157153982E+02 -0.93758311200E+01  0.30817395286E+03  0.31020284106E+03  0.00000000000E+00 0.  1.
         -5    1    5    5    0  501  0.11433892756E+02 -0.43284999227E+02  0.21711345005E+02  0.49977970783E+02  0.47000000000E+01 0.  1.
<mgrwt>
<rscale>  2 0.18660381E+03</rscale>
<asrwt>0</asrwt>
<pdfrwt beam="1">  1        2 0.10676477E+00 0.18660381E+03</pdfrwt>
<pdfrwt beam="2">  1       -2 0.79778585E-02 0.18660381E+03</pdfrwt>
<totfact> 0.39653841E+03</totfact>
</mgrwt>
</event>
<event>
12    1  0.5759937E-002  0.3363574E+03  0.7546771E-02  0.1068358E+00
          2   -1    0    0  503    0  0.00000000000E+00  0.00000000000E+00  0.36316185198E+03  0.36316185198E+03  0.00000000000E+00 0.  1.
         -2   -1    0    0    0  501 -0.00000000000E+00 -0.00000000000E+00 -0.34188960814E+03  0.34188960814E+03  0.00000000000E+00 0. -1.
          6    2    1    2  503    0 -0.22909197573E+03 -0.17587304089E+03 -0.94400953961E+02  0.34968221028E+03  0.17306544491E+03 0.  0.
         24    2    3    3    0    0 -0.13778789021E+03 -0.16813244652E+03 -0.19724858507E+02  0.23138190569E+03  0.76775607962E+02 0.  0.
         -6    2    1    2    0  501  0.22909197573E+03  0.17587304089E+03  0.11567319780E+03  0.35536924983E+03  0.17173396629E+03 0.  0.
        -24    2    5    5    0    0  0.12305099239E+03  0.17618584484E+03  0.78258112382E+02  0.24282251904E+03  0.81580910446E+02 0.  0.
          2    1    4    4  502    0 -0.72401846041E+02 -0.10380477695E+03  0.25516841976E+02  0.12910680947E+03  0.00000000000E+00 0. -1.
         -1    1    4    4    0  502 -0.65386044170E+02 -0.64327669569E+02 -0.45241700484E+02  0.10227509622E+03  0.00000000000E+00 0.  1.
          5    1    3    3  503    0 -0.91304085521E+02 -0.77405943741E+01 -0.74676095454E+02  0.11830030459E+03  0.47000000000E+01 0. -1.
         11    1    6    6    0    0  0.96369014540E+02  0.66982737026E+02  0.43354458266E+02  0.12511308115E+03  0.00000000000E+00 0. -1.
        -12    1    6    6    0    0  0.26681977850E+02  0.10920310781E+03  0.34903654116E+02  0.11770943789E+03  0.00000000000E+00 0.  1.
         -5    1    5    5    0  501  0.10604098334E+03 -0.31280394872E+00  0.37415085421E+02  0.11254673079E+03  0.47000000000E+01 0.  1.
<mgrwt>
<rscale>  2 0.33635744E+03</rscale>
<asrwt>0</asrwt>
<pdfrwt beam="1">  1        2 0.55871054E-01 0.33635744E+03</pdfrwt>
<pdfrwt beam="2">  1       -2 0.52598401E-01 0.33635744E+03</pdfrwt>
<totfact> 0.30894691E+02</totfact>
</mgrwt>
</event>
<event>
12    1  0.5759937E-002  0.1883259E+03  0.7546771E-02  0.1159980E+00
          2   -1    0    0  503    0  0.00000000000E+00  0.00000000000E+00  0.63343651334E+03  0.63343651334E+03  0.00000000000E+00 0. -1.
         -2   -1    0    0    0  501 -0.00000000000E+00 -0.00000000000E+00 -0.56096111338E+02  0.56096111338E+02  0.00000000000E+00 0.  1.
          6    2    1    2  503    0  0.77844420775E+02 -0.19382367944E+01  0.30272088780E+03  0.35622694350E+03  0.17086307020E+03 0.  0.
         24    2    3    3    0    0  0.26281554076E+02  0.63065696985E+02  0.16791510099E+03  0.19786365613E+03  0.79287723240E+02 0.  0.
         -6    2    1    2    0  501 -0.77844420775E+02  0.19382367944E+01  0.27461951420E+03  0.33330568118E+03  0.17208512113E+03 0.  0.
        -24    2    5    5    0    0 -0.77441077548E+02  0.37148590723E+02  0.27348004342E+03  0.29776246659E+03  0.80585445802E+02 0.  0.
          2    1    4    4  502    0  0.42172136206E+02  0.48643698609E+02  0.16382117964E+03  0.17601726445E+03  0.00000000000E+00 0. -1.
         -1    1    4    4    0  502 -0.15890582130E+02  0.14421998376E+02  0.40939213555E+01  0.21846391685E+02  0.00000000000E+00 0.  1.
          5    1    3    3  503    0  0.51562866699E+02 -0.65003933779E+02  0.13480578681E+03  0.15836328737E+03  0.47000000000E+01 0. -1.
         11    1    6    6    0    0 -0.42029545500E+02  0.46766572477E+02  0.23996456345E+03  0.24806569031E+03  0.00000000000E+00 0. -1.
        -12    1    6    6    0    0 -0.35411532048E+02 -0.96179817538E+01  0.33515479969E+02  0.49696776280E+02  0.00000000000E+00 0.  1.
         -5    1    5    5    0  501 -0.40334322702E+00 -0.35210353928E+02  0.11394707811E+01  0.35543214587E+02  0.47000000000E+01 0.  1.
<mgrwt>
<rscale>  2 0.18832586E+03</rscale>
<asrwt>0</asrwt>
<pdfrwt beam="1">  1        2 0.97451766E-01 0.18832586E+03</pdfrwt>
<pdfrwt beam="2">  1       -2 0.86301714E-02 0.18832586E+03</pdfrwt>
<totfact> 0.39091341E+03</totfact>
</mgrwt>
</event>
<event>
12    1  0.5759937E-002  0.1768405E+03  0.7546771E-02  0.1170896E+00
          2   -1    0    0  503    0  0.00000000000E+00  0.00000000000E+00  0.21940995414E+04  0.21940995414E+04  0.00000000000E+00 0. -1.
         -2   -1    0    0    0  501 -0.00000000000E+00 -0.00000000000E+00 -0.14312884137E+02  0.14312884137E+02  0.00000000000E+00 0.  1.
          6    2    1    2  503    0  0.25532345523E+02  0.23549728041E+02  0.11418031275E+04  0.11549918592E+04  0.17054419512E+03 0.  0.
         24    2    3    3    0    0  0.44427768552E+02  0.51338097399E+01  0.34396376372E+03  0.35670248595E+03  0.83219048929E+02 0.  0.
         -6    2    1    2    0  501 -0.25532345523E+02 -0.23549728041E+02  0.10379835298E+04  0.10534205664E+04  0.17629121125E+03 0.  0.
        -24    2    5    5    0    0 -0.83492068213E+02 -0.30000933293E+02  0.67389242735E+03  0.68465862638E+03  0.82191542064E+02 0.  0.
          4    1    4    4  502    0  0.58250561836E+01 -0.27579694543E+02  0.42347005188E+02  0.50870813627E+02  0.00000000000E+00 0. -1.
         -3    1    4    4    0  502  0.38602712368E+02  0.32713504283E+02  0.30161675853E+03  0.30583167232E+03  0.00000000000E+00 0.  1.
          5    1    3    3  503    0 -0.18895423029E+02  0.18415918301E+02  0.79783936374E+03  0.79828937322E+03  0.47000000000E+01 0. -1.
         13    1    6    6    0    0 -0.74241207581E+02 -0.28750001706E+02  0.66971670563E+03  0.67443219474E+03  0.00000000000E+00 0. -1.
        -14    1    6    6    0    0 -0.92508606321E+01 -0.12509315865E+01  0.41757217206E+01  0.10226431643E+02  0.00000000000E+00 0.  1.
         -5    1    5    5    0  501  0.57959722690E+02  0.64512052516E+01  0.36409110247E+03  0.36876194001E+03  0.47000000000E+01 0.  1.
<mgrwt>
<rscale>  2 0.17684052E+03</rscale>
<asrwt>0</asrwt>
<pdfrwt beam="1">  1        2 0.33755351E+00 0.17684052E+03</pdfrwt>
<pdfrwt beam="2">  1       -2 0.22019839E-02 0.17684052E+03</pdfrwt>
<totfact> 0.39365219E+03</totfact>
</mgrwt>
</event>
<event>
12    1  0.5759937E-002  0.1807643E+03  0.7546771E-02  0.1167065E+00
         -2   -1    0    0    0  501 -0.00000000000E+00  0.00000000000E+00  0.23347135522E+02  0.23347135522E+02  0.00000000000E+00 0. -1.
          2   -1    0    0  503    0  0.00000000000E+00 -0.00000000000E+00 -0.16499493656E+04  0.16499493656E+04  0.00000000000E+00 0.  1.
          6    2    1    2  503    0 -0.15393427753E+02 -0.52917606418E+02 -0.11413075851E+04  0.11556200297E+04  0.17273511127E+03 0.  0.
         24    2    3    3    0    0 -0.24956279027E+01 -0.18863675682E+02 -0.10870354326E+04  0.10900946150E+04  0.79361020069E+02 0.  0.
         -6    2    1    2    0  501  0.15393427753E+02  0.52917606418E+02 -0.48529464501E+03  0.51767647141E+03  0.17158323311E+03 0.  0.
        -24    2    5    5    0    0  0.70386858421E+02  0.40030992904E+02 -0.39067855126E+03  0.40738305627E+03  0.82306949249E+02 0.  0.
          2    1    4    4  502    0 -0.82488283814E+01  0.30438097678E+02 -0.47860324554E+03  0.47964110291E+03  0.00000000000E+00 0. -1.
         -1    1    4    4    0  502  0.57532004787E+01 -0.49301773360E+02 -0.60843218710E+03  0.61045351213E+03  0.00000000000E+00 0.  1.
          5    1    3    3  503    0 -0.12897799851E+02 -0.34053930736E+02 -0.54272152433E+02  0.65525414682E+02  0.47000000000E+01 0. -1.
         11    1    6    6    0    0  0.56327050762E+01  0.14242738327E+02 -0.60136469749E+01  0.16454388821E+02  0.00000000000E+00 0. -1.
        -12    1    6    6    0    0  0.64754153345E+02  0.25788254577E+02 -0.38466490428E+03  0.39092866745E+03  0.00000000000E+00 0.  1.
         -5    1    5    5    0  501 -0.54993430668E+02  0.12886613515E+02 -0.94616093759E+02  0.11029341514E+03  0.47000000000E+01 0.  1.
<mgrwt>
<rscale>  2 0.18076433E+03</rscale>
<asrwt>0</asrwt>
<pdfrwt beam="2">  1        2 0.25383844E+00 0.18076433E+03</pdfrwt>
<pdfrwt beam="1">  1       -2 0.35918660E-02 0.18076433E+03</pdfrwt>
<totfact> 0.36594600E+03</totfact>
</mgrwt>
</event>
<event>
12    1  0.5759937E-002  0.2957346E+03  0.7546771E-02  0.1087392E+00
          2   -1    0    0  503    0  0.00000000000E+00  0.00000000000E+00  0.18038902253E+03  0.18038902253E+03  0.00000000000E+00 0. -1.
         -2   -1    0    0    0  501 -0.00000000000E+00 -0.00000000000E+00 -0.48643378612E+03  0.48643378612E+03  0.00000000000E+00 0.  1.
          6    2    1    2  503    0 -0.88474937885E+02  0.22228860833E+03 -0.17225019699E+03  0.34243788545E+03  0.17422265927E+03 0.  0.
         24    2    3    3    0    0 -0.18779135867E+02  0.27450970254E+02 -0.70098150968E+02  0.11162120378E+03  0.80245440079E+02 0.  0.
         -6    2    1    2    0  501  0.88474937885E+02 -0.22228860833E+03 -0.13379456660E+03  0.32438492321E+03  0.17344899056E+03 0.  0.
        -24    2    5    5    0    0  0.36123116800E+02 -0.36772209466E+02 -0.15399649015E+02  0.98118500758E+02  0.82054957467E+02 0.  0.
          2    1    4    4  502    0 -0.28627655597E+02 -0.21907546059E+02 -0.23507320591E+02  0.43035768387E+02  0.00000000000E+00 0. -1.
         -1    1    4    4    0  502  0.98485197298E+01  0.49358516313E+02 -0.46590830377E+02  0.68585435398E+02  0.00000000000E+00 0.  1.
          5    1    3    3  503    0 -0.69695802018E+02  0.19483763807E+03 -0.10215204602E+03  0.23081668166E+03  0.47000000000E+01 0. -1.
         13    1    6    6    0    0  0.59893052371E+02 -0.12013915801E+02 -0.15443105885E+01  0.61105619958E+02  0.00000000000E+00 0. -1.
        -14    1    6    6    0    0 -0.23769935571E+02 -0.24758293665E+02 -0.13855338426E+02  0.37012880800E+02  0.00000000000E+00 0.  1.
         -5    1    5    5    0  501  0.52351821085E+02 -0.18551639886E+03 -0.11839491759E+03  0.22626642245E+03  0.47000000000E+01 0.  1.
<mgrwt>
<rscale>  2 0.29573465E+03</rscale>
<asrwt>0</asrwt>
<pdfrwt beam="1">  1        2 0.27752158E-01 0.29573465E+03</pdfrwt>
<pdfrwt beam="2">  1       -2 0.74835966E-01 0.29573465E+03</pdfrwt>
<totfact> 0.31687161E+02</totfact>
</mgrwt>
</event>
<event>
12    1  0.5759937E-002  0.2327322E+03  0.7546771E-02  0.1124731E+00
          2   -1    0    0  503    0  0.00000000000E+00  0.00000000000E+00  0.10876540395E+04  0.10876540395E+04  0.00000000000E+00 0.  1.
         -2   -1    0    0    0  501 -0.00000000000E+00 -0.00000000000E+00 -0.51879037905E+02  0.51879037905E+02  0.00000000000E+00 0. -1.
          6    2    1    2  503    0 -0.36718379227E+02  0.15259476637E+03  0.63052282305E+03  0.67187167076E+03  0.17093598067E+03 0.  0.
         24    2    3    3    0    0 -0.32568773045E+02  0.40017158115E+02  0.15051124149E+03  0.17879546413E+03  0.81560322815E+02 0.  0.
         -6    2    1    2    0  501  0.36718379227E+02 -0.15259476637E+03  0.40525217855E+03  0.46766140665E+03  0.17275549472E+03 0.  0.
        -24    2    5    5    0    0  0.30061151848E+02 -0.42985021863E+02  0.76430173046E+02  0.12095603307E+03  0.77700744069E+02 0.  0.
          4    1    4    4  502    0 -0.74862805288E+01  0.58316569325E+02  0.64126365943E+02  0.87000330247E+02  0.00000000000E+00 0. -1.
         -3    1    4    4    0  502 -0.25082492516E+02 -0.18299411211E+02  0.86384875548E+02  0.91795133884E+02  0.00000000000E+00 0.  1.
          5    1    3    3  503    0 -0.41496061821E+01  0.11257760825E+03  0.48001158156E+03  0.49307620663E+03  0.47000000000E+01 0. -1.
         11    1    6    6    0    0  0.47578923283E+02 -0.42484423400E+02  0.28389449180E+02  0.69818629298E+02  0.00000000000E+00 0. -1.
        -12    1    6    6    0    0 -0.17517771434E+02 -0.50059846370E+00  0.48040723866E+02  0.51137403771E+02  0.00000000000E+00 0.  1.
         -5    1    5    5    0  501  0.66572273784E+01 -0.10960974450E+03  0.32882200550E+03  0.34670537358E+03  0.47000000000E+01 0.  1.
<mgrwt>
<rscale>  2 0.23273222E+03</rscale>
<asrwt>0</asrwt>
<pdfrwt beam="1">  1        2 0.16733137E+00 0.23273222E+03</pdfrwt>
<pdfrwt beam="2">  1       -2 0.79813912E-02 0.23273222E+03</pdfrwt>
<totfact> 0.22012867E+03</totfact>
</mgrwt>
</event>
<event>
12    1  0.5759937E-002  0.3669920E+03  0.7546771E-02  0.1055849E+00
          2   -1    0    0  503    0  0.00000000000E+00  0.00000000000E+00  0.21186898474E+04  0.21186898474E+04  0.00000000000E+00 0.  1.
         -2   -1    0    0    0  501 -0.00000000000E+00 -0.00000000000E+00 -0.93994530425E+02  0.93994530425E+02  0.00000000000E+00 0. -1.
          6    2    1    2  503    0 -0.56753554487E+02 -0.31867361319E+03  0.16421105597E+04  0.16826574100E+04  0.17330617833E+03 0.  0.
         24    2    3    3    0    0  0.26496097883E+02 -0.15777370265E+03  0.66841970051E+03  0.69224574553E+03  0.82611692454E+02 0.  0.
         -6    2    1    2    0  501  0.56753554487E+02  0.31867361319E+03  0.38258475722E+03  0.53002696777E+03  0.17257940902E+03 0.  0.
        -24    2    5    5    0    0  0.40753150748E+02  0.74970058163E+02  0.11579275381E+03  0.16829848018E+03  0.87378988771E+02 0.  0.
          2    1    4    4  502    0  0.50668051925E+02 -0.56317815417E+02  0.27960338110E+03  0.28968430842E+03  0.00000000000E+00 0. -1.
         -1    1    4    4    0  502 -0.24171954042E+02 -0.10145588723E+03  0.38881631941E+03  0.40256143712E+03  0.00000000000E+00 0.  1.
          5    1    3    3  503    0 -0.83249652370E+02 -0.16089991054E+03  0.97369085923E+03  0.99041166450E+03  0.47000000000E+01 0. -1.
         11    1    6    6    0    0  0.49371943187E+02  0.39866570156E+02  0.11591923291E+03  0.13215218783E+03  0.00000000000E+00 0. -1.
        -12    1    6    6    0    0 -0.86187924389E+01  0.35103488007E+02 -0.12647910233E+00  0.36146292346E+02  0.00000000000E+00 0.  1.
         -5    1    5    5    0  501  0.16000403739E+02  0.24370355503E+03  0.26679200341E+03  0.36172848760E+03  0.47000000000E+01 0.  1.
<mgrwt>
<rscale>  2 0.36699199E+03</rscale>
<asrwt>0</asrwt>
<pdfrwt beam="1">  1        2 0.32595225E+00 0.36699199E+03</pdfrwt>
<pdfrwt beam="2">  1       -2 0.14460699E-01 0.36699199E+03</pdfrwt>
<totfact> 0.23030857E+02</totfact>
</mgrwt>
</event>
<event>
12    1  0.5759937E-002  0.1797503E+03  0.7546771E-02  0.1168045E+00
          1   -1    0    0  503    0  0.00000000000E+00  0.00000000000E+00  0.22575050033E+04  0.22575050033E+04  0.00000000000E+00 0. -1.
         -1   -1    0    0    0  501 -0.00000000000E+00 -0.00000000000E+00 -0.14752205399E+02  0.14752205399E+02  0.00000000000E+00 0.  1.
          6    2    1    2  503    0  0.50130394468E+02 -0.14599870544E+01  0.92516847389E+03  0.94246770503E+03  0.17260788490E+03 0.  0.
         24    2    3    3    0    0 -0.84234454867E+01  0.42696476775E+02  0.69353021516E+03  0.69945182411E+03  0.79716694280E+02 0.  0.
         -6    2    1    2    0  501 -0.50130394468E+02  0.14599870544E+01  0.13175843240E+04  0.13297895037E+04  0.17261658431E+03 0.  0.
        -24    2    5    5    0    0  0.39659537950E+01  0.36961119041E+02  0.38252496531E+03  0.39248227572E+03  0.79593558538E+02 0.  0.
          2    1    4    4  502    0 -0.11747963406E+02  0.54208132763E+02  0.67568100983E+03  0.67795380620E+03  0.00000000000E+00 0. -1.
         -1    1    4    4    0  502  0.33245179194E+01 -0.11511655988E+02  0.17849205337E+02  0.21498017912E+02  0.00000000000E+00 0.  1.
          5    1    3    3  503    0  0.58553839955E+02 -0.44156463829E+02  0.23163825873E+03  0.24301588092E+03  0.47000000000E+01 0. -1.
         13    1    6    6    0    0 -0.64206198817E+00 -0.20031655143E+02  0.20497246155E+03  0.20594996831E+03  0.00000000000E+00 0. -1.
        -14    1    6    6    0    0  0.46080157831E+01  0.56992774184E+02  0.17755250375E+03  0.18653230741E+03  0.00000000000E+00 0.  1.
         -5    1    5    5    0  501 -0.54096348263E+02 -0.35501131987E+02  0.93505935872E+03  0.93730722797E+03  0.47000000000E+01 0.  1.
<mgrwt>
<rscale>  2 0.17975030E+03</rscale>
<asrwt>0</asrwt>
<pdfrwt beam="1">  1        1 0.34730819E+00 0.17975030E+03</pdfrwt>
<pdfrwt beam="2">  1       -1 0.22695718E-02 0.17975030E+03</pdfrwt>
<totfact> 0.13148944E+03</totfact>
</mgrwt>
</event>
<event>
12    1  0.5759937E-002  0.1810119E+03  0.7546771E-02  0.1166827E+00
          2   -1    0    0  503    0  0.00000000000E+00  0.00000000000E+00  0.22295946180E+03  0.22295946180E+03  0.00000000000E+00 0.  1.
         -2   -1    0    0    0  501 -0.00000000000E+00 -0.00000000000E+00 -0.40937795700E+03  0.40937795700E+03  0.00000000000E+00 0. -1.
          6    2    1    2  503    0  0.25171464247E+02 -0.39548815240E+02 -0.34685598258E+03  0.39261693390E+03  0.17787993911E+03 0.  0.
         24    2    3    3    0    0 -0.66276011187E+01  0.36959568061E+02 -0.24918975479E+03  0.26445494530E+03  0.80193200649E+02 0.  0.
         -6    2    1    2    0  501 -0.25171464247E+02  0.39548815240E+02  0.16043748738E+03  0.23972048490E+03  0.17183716747E+03 0.  0.
        -24    2    5    5    0    0 -0.30476373374E+02  0.91160028214E+02  0.10267057511E+03  0.16193253262E+03  0.80261684826E+02 0.  0.
          2    1    4    4  502    0 -0.88147017889E+01 -0.53470206223E+01 -0.19684806033E+03  0.19711785422E+03  0.00000000000E+00 0. -1.
         -1    1    4    4    0  502  0.21871006701E+01  0.42306588683E+02 -0.52341694467E+02  0.67337091079E+02  0.00000000000E+00 0.  1.
          5    1    3    3  503    0  0.31799065366E+02 -0.76508383301E+02 -0.97666227780E+02  0.12816198860E+03  0.47000000000E+01 0. -1.
         11    1    6    6    0    0 -0.57935590220E+02  0.55657575067E+02  0.66342221965E+02  0.10419015640E+03  0.00000000000E+00 0. -1.
        -12    1    6    6    0    0  0.27459216847E+02  0.35502453147E+02  0.36328353144E+02  0.57742376219E+02  0.00000000000E+00 0.  1.
         -5    1    5    5    0  501  0.53049091265E+01 -0.51611212974E+02  0.57766912271E+02  0.77787952273E+02  0.47000000000E+01 0.  1.
<mgrwt>
<rscale>  2 0.18101194E+03</rscale>
<asrwt>0</asrwt>
<pdfrwt beam="1">  1        2 0.34301456E-01 0.18101194E+03</pdfrwt>
<pdfrwt beam="2">  1       -2 0.62981223E-01 0.18101194E+03</pdfrwt>
<totfact> 0.36311261E+02</totfact>
</mgrwt>
</event>
<event>
12    1  0.5759937E-002  0.1869816E+03  0.7546771E-02  0.1161212E+00
          3   -1    0    0  503    0  0.00000000000E+00  0.00000000000E+00  0.95830913445E+03  0.95830913445E+03  0.00000000000E+00 0.  1.
         -3   -1    0    0    0  501 -0.00000000000E+00 -0.00000000000E+00 -0.38577231056E+02  0.38577231056E+02  0.00000000000E+00 0. -1.
          6    2    1    2  503    0 -0.52557847054E+02 -0.48960405608E+02  0.57741368131E+03  0.60712365398E+03  0.17330067299E+03 0.  0.
         24    2    3    3    0    0 -0.85028019414E+02 -0.45205131074E+02  0.27086186398E+03  0.29879830490E+03  0.81492390389E+02 0.  0.
         -6    2    1    2    0  501  0.52557847054E+02  0.48960405608E+02  0.34231822209E+03  0.38976271153E+03  0.17197022277E+03 0.  0.
        -24    2    5    5    0    0  0.67108880535E+02  0.68623829861E+02  0.34188478867E+03  0.36484964883E+03  0.83768882361E+02 0.  0.
          4    1    4    4  502    0 -0.92010447017E+02 -0.34618705202E+02  0.16415610669E+03  0.19134159107E+03  0.00000000000E+00 0. -1.
         -3    1    4    4    0  502  0.69824276023E+01 -0.10586425872E+02  0.10670575729E+03  0.10745671383E+03  0.00000000000E+00 0.  1.
          5    1    3    3  503    0  0.32470172360E+02 -0.37552745333E+01  0.30655181732E+03  0.30832534908E+03  0.47000000000E+01 0. -1.
         13    1    6    6    0    0  0.41754893722E+02  0.24933133640E+02  0.54435519362E+02  0.72995603094E+02  0.00000000000E+00 0. -1.
        -14    1    6    6    0    0  0.25353986813E+02  0.43690696220E+02  0.28744926931E+03  0.29185404573E+03  0.00000000000E+00 0.  1.
         -5    1    5    5    0  501 -0.14551033481E+02 -0.19663424253E+02  0.43343341943E+00  0.24913062703E+02  0.47000000000E+01 0.  1.
<mgrwt>
<rscale>  2 0.18698164E+03</rscale>
<asrwt>0</asrwt>
<pdfrwt beam="1">  1        3 0.14743216E+00 0.18698164E+03</pdfrwt>
<pdfrwt beam="2">  1       -3 0.59349593E-02 0.18698164E+03</pdfrwt>
<totfact> 0.15101132E+02</totfact>
</mgrwt>
</event>
<event>
12    1  0.5759937E-002  0.2633400E+03  0.7546771E-02  0.1105153E+00
          1   -1    0    0  503    0  0.00000000000E+00  0.00000000000E+00  0.20135666260E+04  0.20135666260E+04  0.00000000000E+00 0. -1.
         -1   -1    0    0    0  501 -0.00000000000E+00 -0.00000000000E+00 -0.35548365683E+02  0.35548365683E+02  0.00000000000E+00 0.  1.
          6    2    1    2  503    0  0.67112555267E+02 -0.18870669854E+03  0.80489095993E+03  0.84659669562E+03  0.16959420543E+03 0.  0.
         24    2    3    3    0    0 -0.17514817887E+02 -0.45409630228E+02  0.23533292994E+03  0.25320451367E+03  0.79762989332E+02 0.  0.
         -6    2    1    2    0  501 -0.67112555267E+02  0.18870669854E+03  0.11731273004E+04  0.12025182960E+04  0.17236088969E+03 0.  0.
        -24    2    5    5    0    0 -0.80048963499E+02  0.67343814188E+02  0.44488558521E+03  0.46410487115E+03  0.80790603631E+02 0.  0.
          4    1    4    4  502    0  0.16036376223E+02  0.13728668442E+02  0.28393073002E+02  0.35380902957E+02  0.00000000000E+00 0. -1.
         -3    1    4    4    0  502 -0.33551194110E+02 -0.59138298670E+02  0.20693985694E+03  0.21782361071E+03  0.00000000000E+00 0.  1.
          5    1    3    3  503    0  0.84627373154E+02 -0.14329706831E+03  0.56955802999E+03  0.59339218195E+03  0.47000000000E+01 0. -1.
         13    1    6    6    0    0 -0.16442500915E+01  0.45035049151E+02  0.22789076643E+03  0.23230381107E+03  0.00000000000E+00 0. -1.
        -14    1    6    6    0    0 -0.78404713408E+02  0.22308765037E+02  0.21699481877E+03  0.23180106009E+03  0.00000000000E+00 0.  1.
         -5    1    5    5    0  501  0.12936408232E+02  0.12136288435E+03  0.72824171517E+03  0.73841342489E+03  0.47000000000E+01 0.  1.
<mgrwt>
<rscale>  2 0.26333996E+03</rscale>
<asrwt>0</asrwt>
<pdfrwt beam="1">  1        1 0.30977939E+00 0.26333996E+03</pdfrwt>
<pdfrwt beam="2">  1       -1 0.54689809E-02 0.26333996E+03</pdfrwt>
<totfact> 0.50876426E+02</totfact>
</mgrwt>
</event>
<event>
12    1  0.5759937E-002  0.2246684E+03  0.7546771E-02  0.1130450E+00
          2   -1    0    0  503    0  0.00000000000E+00  0.00000000000E+00  0.18521415256E+04  0.18521415256E+04  0.00000000000E+00 0. -1.
         -2   -1    0    0    0  501 -0.00000000000E+00 -0.00000000000E+00 -0.36179648918E+02  0.36179648918E+02  0.00000000000E+00 0.  1.
          6    2    1    2  503    0  0.13935341743E+03 -0.92982818577E+01  0.13836194348E+04  0.14020992372E+04  0.17881190610E+03 0.  0.
         24    2    3    3    0    0  0.15153742722E+03  0.32158303386E+02  0.91768070750E+03  0.93413760832E+03  0.80482557397E+02 0.  0.
         -6    2    1    2    0  501 -0.13935341743E+03  0.92982818577E+01  0.43234244189E+03  0.48622193727E+03  0.17316452358E+03 0.  0.
        -24    2    5    5    0    0 -0.58500347212E+02 -0.53138243451E+02  0.28635869979E+03  0.30798366524E+03  0.81281422061E+02 0.  0.
          4    1    4    4  502    0  0.11223339716E+03  0.20300994708E+02  0.82400277572E+03  0.83185878622E+03  0.00000000000E+00 0. -1.
         -3    1    4    4    0  502  0.39304030056E+02  0.11857308678E+02  0.93677931779E+02  0.10227882210E+03  0.00000000000E+00 0.  1.
          5    1    3    3  503    0 -0.12184009788E+02 -0.41456585244E+02  0.46593872727E+03  0.46796162890E+03  0.47000000000E+01 0. -1.
         13    1    6    6    0    0  0.14444531768E+02 -0.17089602205E+02  0.21974091301E+02  0.31361755213E+02  0.00000000000E+00 0. -1.
        -14    1    6    6    0    0 -0.72944878979E+02 -0.36048641246E+02  0.26438460849E+03  0.27662191003E+03  0.00000000000E+00 0.  1.
         -5    1    5    5    0  501 -0.80853070217E+02  0.62436525308E+02  0.14598374210E+03  0.17823827203E+03  0.47000000000E+01 0.  1.
<mgrwt>
<rscale>  2 0.22466837E+03</rscale>
<asrwt>0</asrwt>
<pdfrwt beam="1">  1        2 0.28494478E+00 0.22466837E+03</pdfrwt>
<pdfrwt beam="2">  1       -2 0.55661013E-02 0.22466837E+03</pdfrwt>
<totfact> 0.14817975E+03</totfact>
</mgrwt>
</event>
<event>
12    1  0.5759937E-002  0.2005941E+03  0.7546771E-02  0.1149239E+00
          2   -1    0    0  503    0  0.00000000000E+00  0.00000000000E+00  0.92249603884E+03  0.92249603884E+03  0.00000000000E+00 0.  1.
         -2   -1    0    0    0  501 -0.00000000000E+00 -0.00000000000E+00 -0.44791066622E+02  0.44791066622E+02  0.00000000000E+00 0. -1.
          6    2    1    2  503    0 -0.10054267376E+03 -0.79237345536E+01  0.36039812640E+03  0.41241490554E+03  0.17328482329E+03 0.  0.
         24    2    3    3    0    0 -0.48209244941E+02  0.16351124183E+02  0.33558907841E+03  0.34944161438E+03  0.83053728071E+02 0.  0.
         -6    2    1    2    0  501  0.10054267376E+03  0.79237345536E+01  0.51730684582E+03  0.55487219992E+03  0.17350841680E+03 0.  0.
        -24    2    5    5    0    0  0.66657158298E+02  0.51601941236E+02  0.18530818900E+03  0.21826974594E+03  0.78718612740E+02 0.  0.
          2    1    4    4  502    0  0.20739759574E+02  0.14411758608E+02  0.55365680351E+02  0.60853882161E+02  0.00000000000E+00 0. -1.
         -1    1    4    4    0  502 -0.68949004515E+02  0.19393655744E+01  0.28022339806E+03  0.28858773221E+03  0.00000000000E+00 0.  1.
          5    1    3    3  503    0 -0.52333428815E+02 -0.24274858736E+02  0.24809047989E+02  0.62973291166E+02  0.47000000000E+01 0. -1.
         11    1    6    6    0    0  0.31886681850E+02 -0.17871761735E+02  0.73932806790E+02  0.82475573758E+02  0.00000000000E+00 0. -1.
        -12    1    6    6    0    0  0.34770476448E+02  0.69473702970E+02  0.11137538221E+03  0.13579417218E+03  0.00000000000E+00 0.  1.
         -5    1    5    5    0  501  0.33885515458E+02 -0.43678206682E+02  0.33199865682E+03  0.33660245398E+03  0.47000000000E+01 0.  1.
<mgrwt>
<rscale>  2 0.20059411E+03</rscale>
<asrwt>0</asrwt>
<pdfrwt beam="1">  1        2 0.14192245E+00 0.20059411E+03</pdfrwt>
<pdfrwt beam="2">  1       -2 0.68909340E-02 0.20059411E+03</pdfrwt>
<totfact> 0.34781029E+03</totfact>
</mgrwt>
</event>
<event>
12    1  0.5759937E-002  0.2235765E+03  0.7546771E-02  0.1131244E+00
         -3   -1    0    0    0  501 -0.00000000000E+00  0.00000000000E+00  0.10086309283E+03  0.10086309283E+03  0.00000000000E+00 0.  1.
          3   -1    0    0  503    0  0.00000000000E+00 -0.00000000000E+00 -0.60337587504E+03  0.60337587504E+03  0.00000000000E+00 0. -1.
          6    2    1    2  503    0  0.49590604670E+02 -0.13178904424E+03 -0.39978239494E+03  0.45789405217E+03  0.17324381505E+03 0.  0.
         24    2    3    3    0    0  0.79248456870E+02 -0.33373192029E+02 -0.20428318838E+03  0.23697031436E+03  0.83840449475E+02 0.  0.
         -6    2    1    2    0  501 -0.49590604670E+02  0.13178904424E+03 -0.10273038726E+03  0.24634491570E+03  0.17408246542E+03 0.  0.
        -24    2    5    5    0    0 -0.61837147266E+02  0.37021518492E+02 -0.36230187577E+01  0.10859433590E+03  0.81149109118E+02 0.  0.
          4    1    4    4  502    0  0.74558507726E+02 -0.35611307794E+02 -0.21207612055E+03  0.22760364062E+03  0.00000000000E+00 0. -1.
         -3    1    4    4    0  502  0.46899491442E+01  0.22381157647E+01  0.77929321653E+01  0.93666737364E+01  0.00000000000E+00 0.  1.
          5    1    3    3  503    0 -0.29657852200E+02 -0.98415852214E+02 -0.19549920656E+03  0.22092373782E+03  0.47000000000E+01 0. -1.
         13    1    6    6    0    0 -0.53216299244E+02 -0.15166503209E+02 -0.59075344227E+01  0.55649764490E+02  0.00000000000E+00 0. -1.
        -14    1    6    6    0    0 -0.86208480217E+01  0.52188021701E+02  0.22845156650E+01  0.52944571407E+02  0.00000000000E+00 0.  1.
         -5    1    5    5    0  501  0.12246542596E+02  0.94767525751E+02 -0.99107368507E+02  0.13775057980E+03  0.47000000000E+01 0.  1.
<mgrwt>
<rscale>  2 0.22357645E+03</rscale>
<asrwt>0</asrwt>
<pdfrwt beam="2">  1        3 0.92827058E-01 0.22357645E+03</pdfrwt>
<pdfrwt beam="1">  1       -3 0.15517399E-01 0.22357645E+03</pdfrwt>
<totfact> 0.92659096E+01</totfact>
</mgrwt>
</event>
<event>
12    1  0.5759937E-002  0.5711656E+03  0.7546771E-02  0.9967103E-01
         -2   -1    0    0    0  501 -0.00000000000E+00  0.00000000000E+00  0.15129371770E+03  0.15129371770E+03  0.00000000000E+00 0.  1.
          2   -1    0    0  503    0  0.00000000000E+00 -0.00000000000E+00 -0.23278903037E+04  0.23278903037E+04  0.00000000000E+00 0. -1.
          6    2    1    2  503    0  0.27687389539E+03 -0.46946864388E+03 -0.14234135439E+04  0.15334261562E+04  0.16801695744E+03 0.  0.
         24    2    3    3    0    0  0.21526145259E+03 -0.45014055114E+03 -0.12439664486E+04  0.13426566138E+04  0.79437073755E+02 0.  0.
         -6    2    1    2    0  501 -0.27687389539E+03  0.46946864388E+03 -0.75318304213E+03  0.94575786524E+03  0.17353179296E+03 0.  0.
        -24    2    5    5    0    0 -0.69016738146E+02  0.13990415865E+03 -0.18166916535E+03  0.25404437751E+03  0.84843245792E+02 0.  0.
          2    1    4    4  502    0  0.17724069261E+03 -0.32613973634E+03 -0.83941490279E+03  0.91782284225E+03  0.00000000000E+00 0. -1.
         -1    1    4    4    0  502  0.38020759980E+02 -0.12400081481E+03 -0.40455154582E+03  0.42483377160E+03  0.00000000000E+00 0.  1.
          5    1    3    3  503    0  0.61612442800E+02 -0.19328092737E+02 -0.17944709526E+03  0.19076954231E+03  0.47000000000E+01 0. -1.
         11    1    6    6    0    0 -0.71604455331E+02  0.56631285638E+02 -0.11797811625E+03  0.14917485193E+03  0.00000000000E+00 0. -1.
        -12    1    6    6    0    0  0.25877171850E+01  0.83272873012E+02 -0.63691049100E+02  0.10486952558E+03  0.00000000000E+00 0.  1.
         -5    1    5    5    0  501 -0.20785715724E+03  0.32956448523E+03 -0.57151387678E+03  0.69171348772E+03  0.47000000000E+01 0.  1.
<mgrwt>
<rscale>  2 0.57116556E+03</rscale>
<asrwt>0</asrwt>
<pdfrwt beam="2">  1        2 0.35813696E+00 0.57116556E+03</pdfrwt>
<pdfrwt beam="1">  1       -2 0.23275957E-01 0.57116556E+03</pdfrwt>
<totfact> 0.75586610E+01</totfact>
</mgrwt>
</event>
<event>
12    1  0.5759937E-002  0.1826246E+03  0.7546771E-02  0.1165287E+00
         -1   -1    0    0    0  501 -0.00000000000E+00  0.00000000000E+00  0.38812295237E+02  0.38812295237E+02  0.00000000000E+00 0. -1.
          1   -1    0    0  503    0  0.00000000000E+00 -0.00000000000E+00 -0.93403464106E+03  0.93403464106E+03  0.00000000000E+00 0.  1.
          6    2    1    2  503    0  0.48789312874E+01 -0.58591334387E+02 -0.31114423269E+03  0.36103041616E+03  0.17342283421E+03 0.  0.
         24    2    3    3    0    0  0.28091233145E+02 -0.68069055603E+02 -0.31607271116E+03  0.33504930654E+03  0.83268033275E+02 0.  0.
         -6    2    1    2    0  501 -0.48789312874E+01  0.58591334387E+02 -0.58407811314E+03  0.61181652014E+03  0.17238173810E+03 0.  0.
        -24    2    5    5    0    0 -0.38497950660E+02  0.51289623702E+01 -0.25591728997E+03  0.27760090179E+03  0.10030056285E+03 0.  0.
          4    1    4    4  502    0 -0.61326433519E+01 -0.55143115871E+02 -0.27279843268E+03  0.27838347187E+03  0.00000000000E+00 0. -1.
         -3    1    4    4    0  502  0.34223876497E+02 -0.12925939732E+02 -0.43274278482E+02  0.56665834667E+02  0.00000000000E+00 0.  1.
          5    1    3    3  503    0 -0.23212301858E+02  0.94777212163E+01  0.49284784723E+01  0.25981109619E+02  0.47000000000E+01 0. -1.
         11    1    6    6    0    0  0.27311319944E+02  0.22222042627E+02 -0.53301069330E+02  0.63880602434E+02  0.00000000000E+00 0. -1.
        -12    1    6    6    0    0 -0.65809270604E+02 -0.17093080257E+02 -0.20261622064E+03  0.21372029936E+03  0.00000000000E+00 0.  1.
         -5    1    5    5    0  501  0.33619019373E+02  0.53462372016E+02 -0.32816082316E+03  0.33421561834E+03  0.47000000000E+01 0.  1.
<mgrwt>
<rscale>  2 0.18262457E+03</rscale>
<asrwt>0</asrwt>
<pdfrwt beam="2">  1        1 0.14369762E+00 0.18262457E+03</pdfrwt>
<pdfrwt beam="1">  1       -1 0.59711232E-02 0.18262457E+03</pdfrwt>
<totfact> 0.24010871E+03</totfact>
</mgrwt>
</event>
<event>
12    1  0.5759937E-002  0.1988819E+03  0.7546771E-02  0.1150686E+00
         -2   -1    0    0    0  501 -0.00000000000E+00  0.00000000000E+00  0.16303196796E+02  0.16303196796E+02  0.00000000000E+00 0. -1.
          2   -1    0    0  503    0  0.00000000000E+00 -0.00000000000E+00 -0.26447755844E+04  0.26447755844E+04  0.00000000000E+00 0.  1.
          6    2    1    2  503    0 -0.63578641416E+02  0.54061209019E+02 -0.17371444537E+04  0.17493342995E+04  0.18850671231E+03 0.  0.
         24    2    3    3    0    0 -0.33495251488E+02  0.10869931112E+03 -0.13415934361E+04  0.13488682834E+04  0.81456897244E+02 0.  0.
         -6    2    1    2    0  501  0.63578641416E+02 -0.54061209019E+02 -0.89132793396E+03  0.91174448170E+03  0.17276474206E+03 0.  0.
        -24    2    5    5    0    0 -0.35590025093E+02  0.68786616075E+01 -0.30518664715E+03  0.31413943625E+03  0.65044061514E+02 0.  0.
          2    1    4    4  502    0 -0.26049260148E+00  0.53928129527E+02 -0.26839805316E+03  0.27376235306E+03  0.00000000000E+00 0. -1.
         -1    1    4    4    0  502 -0.33234758887E+02  0.54771181594E+02 -0.10731953830E+04  0.10751059304E+04  0.00000000000E+00 0.  1.
          5    1    3    3  503    0 -0.30083389928E+02 -0.54638102102E+02 -0.39555101756E+03  0.40046601609E+03  0.47000000000E+01 0. -1.
         11    1    6    6    0    0  0.14238386295E+02 -0.13146367952E+02 -0.56835790211E+02  0.60048860802E+02  0.00000000000E+00 0. -1.
        -12    1    6    6    0    0 -0.49828411388E+02  0.20025029560E+02 -0.24835085694E+03  0.25409057545E+03  0.00000000000E+00 0.  1.
         -5    1    5    5    0  501  0.99168666509E+02 -0.60939870627E+02 -0.58614128681E+03  0.59760504545E+03  0.47000000000E+01 0.  1.
<mgrwt>
<rscale>  2 0.19888186E+03</rscale>
<asrwt>0</asrwt>
<pdfrwt beam="2">  1        2 0.40688869E+00 0.19888186E+03</pdfrwt>
<pdfrwt beam="1">  1       -2 0.25081833E-02 0.19888186E+03</pdfrwt>
<totfact> 0.18600323E+03</totfact>
</mgrwt>
</event>
<event>
12    1  0.5759937E-002  0.2130159E+03  0.7546771E-02  0.1139200E+00
         -2   -1    0    0    0  501 -0.00000000000E+00  0.00000000000E+00  0.27580588963E+02  0.27580588963E+02  0.00000000000E+00 0.  1.
          2   -1    0    0  503    0  0.00000000000E+00 -0.00000000000E+00 -0.16602298250E+04  0.16602298250E+04  0.00000000000E+00 0. -1.
          6    2    1    2  503    0 -0.12372399872E+03 -0.12704646881E+02 -0.89525650834E+03  0.92016898350E+03  0.17250422183E+03 0.  0.
         24    2    3    3    0    0 -0.34721244261E+02  0.34437016975E+02 -0.61986973410E+03  0.62690495195E+03  0.79874016952E+02 0.  0.
         -6    2    1    2    0  501  0.12372399872E+03  0.12704646881E+02 -0.73739272768E+03  0.76764143045E+03  0.17336751425E+03 0.  0.
        -24    2    5    5    0    0  0.27281701222E+02 -0.26042093699E+02 -0.50445969465E+03  0.51252907377E+03  0.82364956576E+02 0.  0.
          4    1    4    4  502    0 -0.59114052559E+02  0.27736547430E+02 -0.36611219052E+03  0.37188966552E+03  0.00000000000E+00 0. -1.
         -3    1    4    4    0  502  0.24392808298E+02  0.67004695446E+01 -0.25375754358E+03  0.25501528643E+03  0.00000000000E+00 0.  1.
          5    1    3    3  503    0 -0.89002754460E+02 -0.47141663856E+02 -0.27538677424E+03  0.29326403155E+03  0.47000000000E+01 0. -1.
         13    1    6    6    0    0  0.20322452459E+02 -0.46688671135E+02 -0.17258720315E+03  0.17994214842E+03  0.00000000000E+00 0. -1.
        -14    1    6    6    0    0  0.69592487627E+01  0.20646577436E+02 -0.33187249150E+03  0.33258692535E+03  0.00000000000E+00 0.  1.
         -5    1    5    5    0  501  0.96442297499E+02  0.38746740580E+02 -0.23293303303E+03  0.25511235668E+03  0.47000000000E+01 0.  1.
<mgrwt>
<rscale>  2 0.21301594E+03</rscale>
<asrwt>0</asrwt>
<pdfrwt beam="2">  1        2 0.25542006E+00 0.21301594E+03</pdfrwt>
<pdfrwt beam="1">  1       -2 0.42431662E-02 0.21301594E+03</pdfrwt>
<totfact> 0.28181971E+03</totfact>
</mgrwt>
</event>
<event>
12    1  0.5759937E-002  0.2009648E+03  0.7546771E-02  0.1148928E+00
          2   -1    0    0  503    0  0.00000000000E+00  0.00000000000E+00  0.55790158711E+03  0.55790158711E+03  0.00000000000E+00 0. -1.
         -2   -1    0    0    0  501 -0.00000000000E+00 -0.00000000000E+00 -0.82649721810E+02  0.82649721810E+02  0.00000000000E+00 0.  1.
          6    2    1    2  503    0 -0.10193995941E+03  0.71733806608E+01  0.12527714555E+03  0.23721467663E+03  0.17358924764E+03 0.  0.
         24    2    3    3    0    0 -0.58148258626E+02  0.57189420063E+01 -0.34478053908E+01  0.10115575026E+03  0.82502558566E+02 0.  0.
         -6    2    1    2    0  501  0.10193995941E+03 -0.71733806608E+01  0.34997471975E+03  0.40333663229E+03  0.17249615001E+03 0.  0.
        -24    2    5    5    0    0  0.21936502077E+02 -0.50686419773E+02  0.24964644127E+03  0.26775716769E+03  0.79499886410E+02 0.  0.
          4    1    4    4  502    0 -0.44192990586E+02  0.29907783007E+01  0.37357205607E+02  0.57944162627E+02  0.00000000000E+00 0. -1.
         -3    1    4    4    0  502 -0.13955268040E+02  0.27281637055E+01 -0.40805010998E+02  0.43211587634E+02  0.00000000000E+00 0.  1.
          5    1    3    3  503    0 -0.43791700788E+02  0.14544386546E+01  0.12872495094E+03  0.13605892637E+03  0.47000000000E+01 0. -1.
         13    1    6    6    0    0  0.18805172945E+02  0.13342679508E+02  0.12990455511E+03  0.13193504108E+03  0.00000000000E+00 0. -1.
        -14    1    6    6    0    0  0.31313291322E+01 -0.64029099281E+02  0.11974188616E+03  0.13582212661E+03  0.00000000000E+00 0.  1.
         -5    1    5    5    0  501  0.80003457337E+02  0.43513039112E+02  0.10032827849E+03  0.13557946461E+03  0.47000000000E+01 0.  1.
<mgrwt>
<rscale>  2 0.20096478E+03</rscale>
<asrwt>0</asrwt>
<pdfrwt beam="1">  1        2 0.85831011E-01 0.20096478E+03</pdfrwt>
<pdfrwt beam="2">  1       -2 0.12715342E-01 0.20096478E+03</pdfrwt>
<totfact> 0.24467791E+03</totfact>
</mgrwt>
</event>
<event>
12    1  0.5759937E-002  0.3481131E+03  0.7546771E-02  0.1063392E+00
          1   -1    0    0  503    0  0.00000000000E+00  0.00000000000E+00  0.71284116795E+03  0.71284116795E+03  0.00000000000E+00 0. -1.
         -1   -1    0    0    0  501 -0.00000000000E+00 -0.00000000000E+00 -0.41327072703E+03  0.41327072703E+03  0.00000000000E+00 0.  1.
          6    2    1    2  503    0 -0.22268685569E+03  0.20480767362E+03 -0.28236089823E+03  0.44756526450E+03  0.17044462522E+03 0.  0.
         24    2    3    3    0    0 -0.98105556978E+02  0.15843291894E+03 -0.22380889005E+03  0.30223273022E+03  0.80799219265E+02 0.  0.
         -6    2    1    2    0  501  0.22268685569E+03 -0.20480767362E+03  0.58193133915E+03  0.67854663048E+03  0.17391327546E+03 0.  0.
        -24    2    5    5    0    0  0.53609765854E+02 -0.90593788319E+02  0.31059381169E+03  0.33902046402E+03  0.85936707458E+02 0.  0.
          2    1    4    4  502    0 -0.87710290423E+02  0.75226650175E+02 -0.15743632122E+03  0.19529039706E+03  0.00000000000E+00 0. -1.
         -1    1    4    4    0  502 -0.10395266554E+02  0.83206268764E+02 -0.66372568831E+02  0.10694233316E+03  0.00000000000E+00 0.  1.
          5    1    3    3  503    0 -0.12458129871E+03  0.46374754684E+02 -0.58552008182E+02  0.14533253429E+03  0.47000000000E+01 0. -1.
         11    1    6    6    0    0  0.58442366516E+02 -0.22147835031E+02  0.19305222040E+03  0.20291672332E+03  0.00000000000E+00 0. -1.
        -12    1    6    6    0    0 -0.48326006622E+01 -0.68445953288E+02  0.11754159128E+03  0.13610374070E+03  0.00000000000E+00 0.  1.
         -5    1    5    5    0  501  0.16907708983E+03 -0.11421388530E+03  0.27133752747E+03  0.33952616647E+03  0.47000000000E+01 0.  1.
<mgrwt>
<rscale>  2 0.34811312E+03</rscale>
<asrwt>0</asrwt>
<pdfrwt beam="1">  1        1 0.10966787E+00 0.34811312E+03</pdfrwt>
<pdfrwt beam="2">  1       -1 0.63580112E-01 0.34811312E+03</pdfrwt>
<totfact> 0.71158765E+01</totfact>
</mgrwt>
</event>
<event>
12    1  0.5759937E-002  0.2383506E+03  0.7546771E-02  0.1120896E+00
         -2   -1    0    0    0  501 -0.00000000000E+00  0.00000000000E+00  0.20136344663E+03  0.20136344663E+03  0.00000000000E+00 0. -1.
          2   -1    0    0  503    0  0.00000000000E+00 -0.00000000000E+00 -0.29815851156E+03  0.29815851156E+03  0.00000000000E+00 0.  1.
          6    2    1    2  503    0  0.15806282609E+03 -0.49607391838E+02 -0.10627624478E+03  0.26084112369E+03  0.17116863407E+03 0.  0.
         24    2    3    3    0    0  0.15180444492E+03 -0.75845784079E+02 -0.12626276212E+03  0.22694169246E+03  0.82237912304E+02 0.  0.
         -6    2    1    2    0  501 -0.15806282609E+03  0.49607391838E+02  0.94811798482E+01  0.23868083449E+03  0.17156310111E+03 0.  0.
        -24    2    5    5    0    0 -0.32608072132E+02  0.90647917489E+01 -0.34245929787E+02  0.99696130903E+02  0.87298785745E+02 0.  0.
          2    1    4    4  502    0  0.90698414573E+02 -0.85690249241E+02 -0.68805534515E+02  0.14248937785E+03  0.00000000000E+00 0. -1.
         -1    1    4    4    0  502  0.61106030350E+02  0.98444651620E+01 -0.57457227603E+02  0.84452314611E+02  0.00000000000E+00 0.  1.
          5    1    3    3  503    0  0.62583811715E+01  0.26238392241E+02  0.19986517340E+02  0.33899431229E+02  0.47000000000E+01 0. -1.
         13    1    6    6    0    0 -0.33363861789E+02 -0.16640187961E+02  0.18047447834E+02  0.41421654991E+02  0.00000000000E+00 0. -1.
        -14    1    6    6    0    0  0.75578965772E+00  0.25704979710E+02 -0.52293377620E+02  0.58274475912E+02  0.00000000000E+00 0.  1.
         -5    1    5    5    0  501 -0.12545475396E+03  0.40542600089E+02  0.43727109635E+02  0.13898470359E+03  0.47000000000E+01 0.  1.
<mgrwt>
<rscale>  2 0.23835060E+03</rscale>
<asrwt>0</asrwt>
<pdfrwt beam="2">  1        2 0.45870540E-01 0.23835060E+03</pdfrwt>
<pdfrwt beam="1">  1       -2 0.30978992E-01 0.23835060E+03</pdfrwt>
<totfact> 0.10602567E+03</totfact>
</mgrwt>
</event>
<event>
12    1  0.5759937E-002  0.1746365E+03  0.7546771E-02  0.1173097E+00
          2   -1    0    0  503    0  0.00000000000E+00  0.00000000000E+00  0.21183653362E+03  0.21183653362E+03  0.00000000000E+00 0. -1.
         -2   -1    0    0    0  501 -0.00000000000E+00 -0.00000000000E+00 -0.24975363828E+03  0.24975363828E+03  0.00000000000E+00 0.  1.
          6    2    1    2  503    0 -0.21345129019E+02 -0.27890611801E+01  0.13134595737E+03  0.21703214896E+03  0.17142870170E+03 0.  0.
         24    2    3    3    0    0  0.49758028885E+02  0.54243561014E+01  0.10258972277E+03  0.13975258946E+03  0.80627848570E+02 0.  0.
         -6    2    1    2    0  501  0.21345129019E+02  0.27890611801E+01 -0.16926306203E+03  0.24455802294E+03  0.17520059652E+03 0.  0.
        -24    2    5    5    0    0 -0.22631074621E+02  0.47531828164E+02 -0.47035907956E+02  0.10709024898E+03  0.80526421513E+02 0.  0.
          2    1    4    4  502    0  0.42711257820E+02  0.26918266034E+02  0.10548921813E+03  0.11694793599E+03  0.00000000000E+00 0. -1.
         -1    1    4    4    0  502  0.70467710648E+01 -0.21493909933E+02 -0.28994953567E+01  0.22804653472E+02  0.00000000000E+00 0.  1.
          5    1    3    3  503    0 -0.71103157904E+02 -0.82134172816E+01  0.28756234602E+02  0.77279559496E+02  0.47000000000E+01 0. -1.
         11    1    6    6    0    0  0.76787926201E+01  0.50732012318E+02 -0.31961114815E+00  0.51310847598E+02  0.00000000000E+00 0. -1.
        -12    1    6    6    0    0 -0.30309867241E+02 -0.32001841540E+01 -0.46716296808E+02  0.55779401380E+02  0.00000000000E+00 0.  1.
         -5    1    5    5    0  501  0.43976203640E+02 -0.44742766984E+02 -0.12222715407E+03  0.13746777396E+03  0.47000000000E+01 0.  1.
<mgrwt>
<rscale>  2 0.17463651E+03</rscale>
<asrwt>0</asrwt>
<pdfrwt beam="1">  1        2 0.32590236E-01 0.17463651E+03</pdfrwt>
<pdfrwt beam="2">  1       -2 0.38423637E-01 0.17463651E+03</pdfrwt>
<totfact> 0.10221039E+03</totfact>
</mgrwt>
</event>
<event>
12    1  0.5759937E-002  0.1934292E+03  0.7546771E-02  0.1155404E+00
          4   -1    0    0  503    0  0.00000000000E+00  0.00000000000E+00  0.13726199719E+03  0.13726199719E+03  0.00000000000E+00 0. -1.
         -4   -1    0    0    0  501 -0.00000000000E+00 -0.00000000000E+00 -0.29783774541E+03  0.29783774541E+03  0.00000000000E+00 0.  1.
          6    2    1    2  503    0  0.56061554939E+02 -0.51220687002E+02 -0.17384671176E+02  0.19535728081E+03  0.17915296161E+03 0.  0.
         24    2    3    3    0    0  0.69058142161E+01 -0.56730030743E+02 -0.72078096464E+02  0.12146478807E+03  0.79325002944E+02 0.  0.
         -6    2    1    2    0  501 -0.56061554939E+02  0.51220687002E+02 -0.14319107704E+03  0.23974246179E+03  0.17665306882E+03 0.  0.
        -24    2    5    5    0    0 -0.69222183542E+02  0.65814990453E+02 -0.35621329157E+02  0.13029139282E+03  0.81139659171E+02 0.  0.
          2    1    4    4  502    0  0.86052886160E+01 -0.21798306883E+02 -0.81860776925E+02  0.85149304013E+02  0.00000000000E+00 0. -1.
         -1    1    4    4    0  502 -0.16994743999E+01 -0.34931723859E+02  0.97826804608E+01  0.36315484053E+02  0.00000000000E+00 0.  1.
          5    1    3    3  503    0  0.49155740723E+02  0.55093437401E+01  0.54693425288E+02  0.73892492746E+02  0.47000000000E+01 0. -1.
         11    1    6    6    0    0  0.12909347509E+02  0.27056899995E+02  0.56994059834E+01  0.30515738874E+02  0.00000000000E+00 0. -1.
        -12    1    6    6    0    0 -0.82131531051E+02  0.38758090458E+02 -0.41320735140E+02  0.99775653950E+02  0.00000000000E+00 0.  1.
         -5    1    5    5    0  501  0.13160628603E+02 -0.14594303450E+02 -0.10756974788E+03  0.10945106896E+03  0.47000000000E+01 0.  1.
<mgrwt>
<rscale>  2 0.19342921E+03</rscale>
<asrwt>0</asrwt>
<pdfrwt beam="1">  1        4 0.21117231E-01 0.19342921E+03</pdfrwt>
<pdfrwt beam="2">  1       -4 0.45821191E-01 0.19342921E+03</pdfrwt>
<totfact> 0.16756347E+02</totfact>
</mgrwt>
</event>
<event>
12    1  0.5759937E-002  0.1894001E+03  0.7546771E-02  0.1159003E+00
         -2   -1    0    0    0  501 -0.00000000000E+00  0.00000000000E+00  0.22034883573E+03  0.22034883573E+03  0.00000000000E+00 0.  1.
          2   -1    0    0  503    0  0.00000000000E+00 -0.00000000000E+00 -0.17834833792E+03  0.17834833792E+03  0.00000000000E+00 0. -1.
          6    2    1    2  503    0 -0.50988591543E+02  0.55315252582E+02  0.79941609373E+02  0.20635206339E+03  0.17473093464E+03 0.  0.
         24    2    3    3    0    0  0.11255660274E+02  0.81315676626E+02  0.76744796682E+02  0.13865657945E+03  0.81221635376E+02 0.  0.
         -6    2    1    2    0  501  0.50988591543E+02 -0.55315252582E+02 -0.37941111565E+02  0.19234511027E+03  0.17290893517E+03 0.  0.
        -24    2    5    5    0    0 -0.32224914400E+02 -0.53670081661E+02 -0.37516888717E+02  0.10898166430E+03  0.80935551157E+02 0.  0.
          2    1    4    4  502    0  0.40472414315E+02  0.31814223347E+02  0.59426909336E+02  0.78623906548E+02  0.00000000000E+00 0. -1.
         -1    1    4    4    0  502 -0.29216754041E+02  0.49501453279E+02  0.17317887346E+02  0.60032672901E+02  0.00000000000E+00 0.  1.
          5    1    3    3  503    0 -0.62244251817E+02 -0.26000424044E+02  0.31968126911E+01  0.67695483942E+02  0.47000000000E+01 0. -1.
         13    1    6    6    0    0 -0.26273599852E+02 -0.10431378268E+02 -0.55098663045E+02  0.61927202190E+02  0.00000000000E+00 0. -1.
        -14    1    6    6    0    0 -0.59513145474E+01 -0.43238703393E+02  0.17581774328E+02  0.47054462110E+02  0.00000000000E+00 0.  1.
         -5    1    5    5    0  501  0.83213505943E+02 -0.16451709213E+01 -0.42422284753E+00  0.83363445968E+02  0.47000000000E+01 0.  1.
<mgrwt>
<rscale>  2 0.18940015E+03</rscale>
<asrwt>0</asrwt>
<pdfrwt beam="2">  1        2 0.27438206E-01 0.18940015E+03</pdfrwt>
<pdfrwt beam="1">  1       -2 0.33899821E-01 0.18940015E+03</pdfrwt>
<totfact> 0.15621035E+03</totfact>
</mgrwt>
</event>
<event>
12    1  0.5759937E-002  0.2886053E+03  0.7546771E-02  0.1091080E+00
         -2   -1    0    0    0  501 -0.00000000000E+00  0.00000000000E+00  0.88031643873E+02  0.88031643873E+02  0.00000000000E+00 0.  1.
          2   -1    0    0  503    0  0.00000000000E+00 -0.00000000000E+00 -0.12096192856E+04  0.12096192856E+04  0.00000000000E+00 0. -1.
          6    2    1    2  503    0 -0.14263532365E+03 -0.18123504620E+03 -0.25687555125E+03  0.38581278734E+03  0.17226572651E+03 0.  0.
         24    2    3    3    0    0 -0.12964246651E+03 -0.61885249627E+02 -0.17369765113E+03  0.23968325116E+03  0.81487628713E+02 0.  0.
         -6    2    1    2    0  501  0.14263532365E+03  0.18123504620E+03 -0.86471209046E+03  0.91183814211E+03  0.17473070851E+03 0.  0.
        -24    2    5    5    0    0  0.94837860747E+00  0.56495145010E+02 -0.25960687276E+03  0.27795357231E+03  0.81669205601E+02 0.  0.
          2    1    4    4  502    0 -0.28798171040E+02  0.19930777082E+02 -0.31388591787E+02  0.47029929032E+02  0.00000000000E+00 0. -1.
         -1    1    4    4    0  502 -0.10084429547E+03 -0.81816026709E+02 -0.14230905934E+03  0.19265332213E+03  0.00000000000E+00 0.  1.
          5    1    3    3  503    0 -0.12992857131E+02 -0.11934979657E+03 -0.83177900121E+02  0.14612953619E+03  0.47000000000E+01 0. -1.
         13    1    6    6    0    0 -0.20674009329E+02  0.68988153910E+02 -0.21615356341E+03  0.22783578081E+03  0.00000000000E+00 0. -1.
        -14    1    6    6    0    0  0.21622387937E+02 -0.12493008900E+02 -0.43453309351E+02  0.50117791501E+02  0.00000000000E+00 0.  1.
         -5    1    5    5    0  501  0.14168694504E+03  0.12473990119E+03 -0.60510521770E+03  0.63388456980E+03  0.47000000000E+01 0.  1.
<mgrwt>
<rscale>  2 0.28860532E+03</rscale>
<asrwt>0</asrwt>
<pdfrwt beam="2">  1        2 0.18609527E+00 0.28860532E+03</pdfrwt>
<pdfrwt beam="1">  1       -2 0.13543330E-01 0.28860532E+03</pdfrwt>
<totfact> 0.80126897E+02</totfact>
</mgrwt>
</event>
<event>
12    1  0.5759937E-002  0.2658528E+03  0.7546771E-02  0.1103677E+00
          1   -1    0    0  503    0  0.00000000000E+00  0.00000000000E+00  0.53941471825E+03  0.53941471825E+03  0.00000000000E+00 0.  1.
         -1   -1    0    0    0  501 -0.00000000000E+00 -0.00000000000E+00 -0.16192477804E+03  0.16192477804E+03  0.00000000000E+00 0. -1.
          6    2    1    2  503    0 -0.85101911544E+02  0.18289320060E+03  0.35285743163E+02  0.26770420999E+03  0.17241868287E+03 0.  0.
         24    2    3    3    0    0 -0.98739065280E+02  0.16713713657E+03  0.74582977659E+02  0.22297627516E+03  0.80446089353E+02 0.  0.
         -6    2    1    2    0  501  0.85101911544E+02 -0.18289320060E+03  0.34220419704E+03  0.43363528630E+03  0.17390684540E+03 0.  0.
        -24    2    5    5    0    0  0.10317320410E+03 -0.13083137945E+03  0.16108270172E+03  0.24425711728E+03  0.77151426780E+02 0.  0.
          2    1    4    4  502    0 -0.67888726616E+02  0.16263212339E+03  0.49758550352E+02  0.18312290979E+03  0.00000000000E+00 0. -1.
         -1    1    4    4    0  502 -0.30850338664E+02  0.45050131858E+01  0.24824427307E+02  0.39853365361E+02  0.00000000000E+00 0.  1.
          5    1    3    3  503    0  0.13637153736E+02  0.15756064032E+02 -0.39297234496E+02  0.44727934837E+02  0.47000000000E+01 0. -1.
         13    1    6    6    0    0  0.79723224944E+02 -0.39280155642E+02  0.84207713942E+02  0.12243227642E+03  0.00000000000E+00 0. -1.
        -14    1    6    6    0    0  0.23449979152E+02 -0.91551223808E+02  0.76874987781E+02  0.12182484085E+03  0.00000000000E+00 0.  1.
         -5    1    5    5    0  501 -0.18071292552E+02 -0.52061821153E+02  0.18112149532E+03  0.18937816902E+03  0.47000000000E+01 0.  1.
<mgrwt>
<rscale>  2 0.26585275E+03</rscale>
<asrwt>0</asrwt>
<pdfrwt beam="1">  1        1 0.82986878E-01 0.26585275E+03</pdfrwt>
<pdfrwt beam="2">  1       -1 0.24911505E-01 0.26585275E+03</pdfrwt>
<totfact> 0.57362935E+02</totfact>
</mgrwt>
</event>
<event>
12    1  0.5759937E-002  0.1750056E+03  0.7546771E-02  0.1172726E+00
         -1   -1    0    0    0  501 -0.00000000000E+00  0.00000000000E+00  0.14818474408E+02  0.14818474408E+02  0.00000000000E+00 0.  1.
          1   -1    0    0  503    0  0.00000000000E+00 -0.00000000000E+00 -0.24009342342E+04  0.24009342342E+04  0.00000000000E+00 0. -1.
          6    2    1    2  503    0 -0.10755732807E+02 -0.16524922175E+02 -0.16430823894E+04  0.16523657845E+04  0.17379352262E+03 0.  0.
         24    2    3    3    0    0 -0.21622373549E+02 -0.76705714232E+02 -0.10662896448E+04  0.10723211553E+04  0.80918229447E+02 0.  0.
         -6    2    1    2    0  501  0.10755732807E+02  0.16524922175E+02 -0.74303337035E+03  0.76338692409E+03  0.17398921684E+03 0.  0.
        -24    2    5    5    0    0 -0.42339887108E+02 -0.38725063743E+02 -0.39282498795E+03  0.40486257777E+03  0.79435125243E+02 0.  0.
          4    1    4    4  502    0 -0.68036588040E+00 -0.88181197352E+02 -0.90282000127E+03  0.90711649812E+03  0.00000000000E+00 0. -1.
         -3    1    4    4    0  502 -0.20942007669E+02  0.11475483119E+02 -0.16346964352E+03  0.16520465717E+03  0.00000000000E+00 0.  1.
          5    1    3    3  503    0  0.10866640743E+02  0.60180792057E+02 -0.57679274462E+03  0.58004462920E+03  0.47000000000E+01 0. -1.
         11    1    6    6    0    0  0.20768270122E+02 -0.47668631618E+01 -0.15550791747E+03  0.15696100287E+03  0.00000000000E+00 0. -1.
        -12    1    6    6    0    0 -0.63108157231E+02 -0.33958200582E+02 -0.23731707048E+03  0.24790157490E+03  0.00000000000E+00 0.  1.
         -5    1    5    5    0  501  0.53095619915E+02  0.55249985918E+02 -0.35020838240E+03  0.35852434632E+03  0.47000000000E+01 0.  1.
<mgrwt>
<rscale>  2 0.17500559E+03</rscale>
<asrwt>0</asrwt>
<pdfrwt beam="2">  1        1 0.36937405E+00 0.17500559E+03</pdfrwt>
<pdfrwt beam="1">  1       -1 0.22797680E-02 0.17500559E+03</pdfrwt>
<totfact> 0.10546687E+03</totfact>
</mgrwt>
</event>
<event>
12    1  0.5759937E-002  0.2010396E+03  0.7546771E-02  0.1148865E+00
          1   -1    0    0  503    0  0.00000000000E+00  0.00000000000E+00  0.94942654420E+02  0.94942654420E+02  0.00000000000E+00 0. -1.
         -1   -1    0    0    0  501 -0.00000000000E+00 -0.00000000000E+00 -0.63188802453E+03  0.63188802453E+03  0.00000000000E+00 0.  1.
          6    2    1    2  503    0  0.69907274579E+02 -0.79395302660E+02 -0.47508699493E+03  0.51545355525E+03  0.16968816616E+03 0.  0.
         24    2    3    3    0    0  0.82391265297E+02 -0.10127523083E+03 -0.46012645637E+03  0.48578052043E+03  0.84978616141E+02 0.  0.
         -6    2    1    2    0  501 -0.69907274579E+02  0.79395302660E+02 -0.61858375172E+02  0.21137712370E+03  0.17223004593E+03 0.  0.
        -24    2    5    5    0    0 -0.92734268238E+02  0.34182692366E+02  0.53778862945E+01  0.12706783225E+03  0.79681938785E+02 0.  0.
          2    1    4    4  502    0  0.49317739293E+02 -0.29807525311E+02 -0.31905627201E+03  0.32421849529E+03  0.00000000000E+00 0. -1.
         -1    1    4    4    0  502  0.33073526005E+02 -0.71467705519E+02 -0.14107018436E+03  0.16156202514E+03  0.00000000000E+00 0.  1.
          5    1    3    3  503    0 -0.12483990719E+02  0.21879928170E+02 -0.14960538565E+02  0.29673034816E+02  0.47000000000E+01 0. -1.
         11    1    6    6    0    0 -0.51905541528E+02  0.35031051582E+02  0.39340739983E+02  0.73953050232E+02  0.00000000000E+00 0. -1.
        -12    1    6    6    0    0 -0.40828726710E+02 -0.84835921539E+00 -0.33962853688E+02  0.53114782017E+02  0.00000000000E+00 0.  1.
         -5    1    5    5    0  501  0.22826993659E+02  0.45212610294E+02 -0.67236261466E+02  0.84309291452E+02  0.47000000000E+01 0.  1.
<mgrwt>
<rscale>  2 0.20103964E+03</rscale>
<asrwt>0</asrwt>
<pdfrwt beam="1">  1        1 0.14606563E-01 0.20103964E+03</pdfrwt>
<pdfrwt beam="2">  1       -1 0.97213539E-01 0.20103964E+03</pdfrwt>
<totfact> 0.41572683E+02</totfact>
</mgrwt>
</event>
<event>
12    1  0.5759937E-002  0.1830681E+03  0.7546771E-02  0.1164866E+00
         -2   -1    0    0    0  501 -0.00000000000E+00  0.00000000000E+00  0.18519124607E+02  0.18519124607E+02  0.00000000000E+00 0. -1.
          2   -1    0    0  503    0  0.00000000000E+00 -0.00000000000E+00 -0.18516827005E+04  0.18516827005E+04  0.00000000000E+00 0.  1.
          6    2    1    2  503    0  0.13887651667E+02 -0.58919399741E+02 -0.10557474963E+04  0.10714449217E+04  0.17241543371E+03 0.  0.
         24    2    3    3    0    0 -0.23256113180E+02  0.29182089492E+02 -0.57584852764E+03  0.58209163236E+03  0.76398301933E+02 0.  0.
         -6    2    1    2    0  501 -0.13887651667E+02  0.58919399741E+02 -0.77741607956E+03  0.79875690336E+03  0.17312558267E+03 0.  0.
        -24    2    5    5    0    0  0.57571608943E+02  0.42951176470E+02 -0.49064674186E+03  0.50274988803E+03  0.82848843684E+02 0.  0.
          4    1    4    4  502    0 -0.38938718582E+02  0.81426873326E+01 -0.50457729471E+03  0.50614303660E+03  0.00000000000E+00 0. -1.
         -3    1    4    4    0  502  0.15682605402E+02  0.21039402160E+02 -0.71271232924E+02  0.75948595760E+02  0.00000000000E+00 0.  1.
          5    1    3    3  503    0  0.37143764848E+02 -0.88101489233E+02 -0.47989896868E+03  0.48935328937E+03  0.47000000000E+01 0. -1.
         13    1    6    6    0    0  0.30804380482E+02  0.14066972736E+02 -0.50248931713E+02  0.60594923196E+02  0.00000000000E+00 0. -1.
        -14    1    6    6    0    0  0.26767228461E+02  0.28884203734E+02 -0.44039781015E+03  0.44215496483E+03  0.00000000000E+00 0.  1.
         -5    1    5    5    0  501 -0.71459260610E+02  0.15968223271E+02 -0.28676933770E+03  0.29600701534E+03  0.47000000000E+01 0.  1.
<mgrwt>
<rscale>  2 0.18306805E+03</rscale>
<asrwt>0</asrwt>
<pdfrwt beam="2">  1        2 0.28487429E+00 0.18306805E+03</pdfrwt>
<pdfrwt beam="1">  1       -2 0.28490959E-02 0.18306805E+03</pdfrwt>
<totfact> 0.40573431E+03</totfact>
</mgrwt>
</event>
<event>
12    1  0.5759937E-002  0.1989195E+03  0.7546771E-02  0.1150654E+00
          1   -1    0    0  503    0  0.00000000000E+00  0.00000000000E+00  0.69051130478E+03  0.69051130478E+03  0.00000000000E+00 0. -1.
         -1   -1    0    0    0  501 -0.00000000000E+00 -0.00000000000E+00 -0.60016267029E+02  0.60016267029E+02  0.00000000000E+00 0.  1.
          6    2    1    2  503    0  0.72126481631E+02 -0.68613465908E+02  0.39633731049E+03  0.44385063372E+03  0.17323418919E+03 0.  0.
         24    2    3    3    0    0  0.65743432784E+02 -0.54390441504E+01  0.11722104889E+03  0.15756453840E+03  0.82061119321E+02 0.  0.
         -6    2    1    2    0  501 -0.72126481631E+02  0.68613465908E+02  0.23415772726E+03  0.30667693809E+03  0.17120416487E+03 0.  0.
        -24    2    5    5    0    0 -0.10806092196E+02  0.99515167822E+02  0.13840858867E+03  0.18875708021E+03  0.80325946361E+02 0.  0.
          4    1    4    4  502    0  0.67759401977E+02  0.23365535779E+02  0.10271549387E+03  0.12525077844E+03  0.00000000000E+00 0. -1.
         -3    1    4    4    0  502 -0.20159691929E+01 -0.28804579930E+02  0.14505555021E+02  0.32313759967E+02  0.00000000000E+00 0.  1.
          5    1    3    3  503    0  0.63830488470E+01 -0.63174421758E+02  0.27911626160E+03  0.28628609531E+03  0.47000000000E+01 0. -1.
         13    1    6    6    0    0  0.28436878978E+02  0.11759049730E+02  0.22219579796E+02  0.37955777728E+02  0.00000000000E+00 0. -1.
        -14    1    6    6    0    0 -0.39242971174E+02  0.87756118092E+02  0.11618900887E+03  0.15080130249E+03  0.00000000000E+00 0.  1.
         -5    1    5    5    0  501 -0.61320389435E+02 -0.30901701914E+02  0.95749138592E+02  0.11791985788E+03  0.47000000000E+01 0.  1.
<mgrwt>
<rscale>  2 0.19891950E+03</rscale>
<asrwt>0</asrwt>
<pdfrwt beam="1">  1        1 0.10623250E+00 0.19891950E+03</pdfrwt>
<pdfrwt beam="2">  1       -1 0.92332724E-02 0.19891950E+03</pdfrwt>
<totfact> 0.19729547E+03</totfact>
</mgrwt>
</event>
<event>
12    1  0.5759937E-002  0.1784161E+03  0.7546771E-02  0.1169345E+00
         -1   -1    0    0    0  501 -0.00000000000E+00  0.00000000000E+00  0.14925151459E+03  0.14925151459E+03  0.00000000000E+00 0. -1.
          1   -1    0    0  503    0  0.00000000000E+00 -0.00000000000E+00 -0.22519263312E+03  0.22519263312E+03  0.00000000000E+00 0.  1.
          6    2    1    2  503    0  0.34466519658E+02 -0.53182596058E-01  0.37078844131E+01  0.18369509506E+03  0.18039455573E+03 0.  0.
         24    2    3    3    0    0  0.70106827388E+02  0.51888485612E+02  0.90344476402E+01  0.12030242429E+03  0.82363036982E+02 0.  0.
         -6    2    1    2    0  501 -0.34466519658E+02  0.53182596058E-01 -0.79649002946E+02  0.19074905265E+03  0.16986257272E+03 0.  0.
        -24    2    5    5    0    0  0.61828257923E+01  0.60548132861E+02 -0.48995495504E+02  0.11154213495E+03  0.79603929310E+02 0.  0.
          4    1    4    4  502    0  0.40773104968E+02  0.71837514905E+02 -0.35071721295E+01  0.82676326073E+02  0.00000000000E+00 0. -1.
         -3    1    4    4    0  502  0.29333722420E+02 -0.19949029294E+02  0.12541619770E+02  0.37626098220E+02  0.00000000000E+00 0.  1.
          5    1    3    3  503    0 -0.35640307730E+02 -0.51941668208E+02 -0.53265632270E+01  0.63392670768E+02  0.47000000000E+01 0. -1.
         13    1    6    6    0    0 -0.34698668382E+02  0.37410293925E+02 -0.13839091232E+02  0.52868214696E+02  0.00000000000E+00 0. -1.
        -14    1    6    6    0    0  0.40881494174E+02  0.23137838937E+02 -0.35156404272E+02  0.58673920253E+02  0.00000000000E+00 0.  1.
         -5    1    5    5    0  501 -0.40649345451E+02 -0.60494950265E+02 -0.30653507442E+02  0.79206917701E+02  0.47000000000E+01 0.  1.
<mgrwt>
<rscale>  2 0.17841608E+03</rscale>
<asrwt>0</asrwt>
<pdfrwt beam="2">  1        1 0.34645020E-01 0.17841608E+03</pdfrwt>
<pdfrwt beam="1">  1       -1 0.22961772E-01 0.17841608E+03</pdfrwt>
<totfact> 0.19952618E+03</totfact>
</mgrwt>
</event>
<event>
12    1  0.5759937E-002  0.1912312E+03  0.7546771E-02  0.1157356E+00
          2   -1    0    0  503    0  0.00000000000E+00  0.00000000000E+00  0.26719620476E+04  0.26719620476E+04  0.00000000000E+00 0.  1.
         -2   -1    0    0    0  501 -0.00000000000E+00 -0.00000000000E+00 -0.22971947177E+02  0.22971947177E+02  0.00000000000E+00 0. -1.
          6    2    1    2  503    0  0.38766900560E+02 -0.88208931465E+02  0.51899482199E+03  0.55734759017E+03  0.17887711663E+03 0.  0.
         24    2    3    3    0    0  0.11260908075E+02 -0.11754917545E+03  0.48134318125E+03  0.50205594895E+03  0.80151737554E+02 0.  0.
         -6    2    1    2    0  501 -0.38766900560E+02  0.88208931465E+02  0.21299952785E+04  0.21375864046E+04  0.15202652009E+03 0.  0.
        -24    2    5    5    0    0  0.27183912612E+02  0.26579720207E+02  0.91526376003E+03  0.91949674401E+03  0.79505126788E+02 0.  0.
          4    1    4    4  502    0  0.21390821892E+02 -0.12324928320E+03  0.46766580102E+03  0.48410665614E+03  0.00000000000E+00 0. -1.
         -3    1    4    4    0  502 -0.10129913816E+02  0.57001077532E+01  0.13677380234E+02  0.17949292810E+02  0.00000000000E+00 0.  1.
          5    1    3    3  503    0  0.27505992485E+02  0.29340243986E+02  0.37651640733E+02  0.55291641227E+02  0.47000000000E+01 0. -1.
         13    1    6    6    0    0  0.43556906513E+02  0.44863868405E+02  0.71651119406E+03  0.71923449723E+03  0.00000000000E+00 0. -1.
        -14    1    6    6    0    0 -0.16372993901E+02 -0.18284148197E+02  0.19875256597E+03  0.20026224677E+03  0.00000000000E+00 0.  1.
         -5    1    5    5    0  501 -0.65950813172E+02  0.61629211258E+02  0.12147315184E+04  0.12180896606E+04  0.47000000000E+01 0.  1.
<mgrwt>
<rscale>  2 0.19123122E+03</rscale>
<asrwt>0</asrwt>
<pdfrwt beam="1">  1        2 0.41107084E+00 0.19123122E+03</pdfrwt>
<pdfrwt beam="2">  1       -2 0.35341478E-02 0.19123122E+03</pdfrwt>
<totfact> 0.10820495E+03</totfact>
</mgrwt>
</event>
<event>
12    1  0.5759937E-002  0.2385295E+03  0.7546771E-02  0.1120776E+00
         -1   -1    0    0    0  501 -0.00000000000E+00  0.00000000000E+00  0.38651976078E+03  0.38651976078E+03  0.00000000000E+00 0.  1.
          1   -1    0    0  503    0  0.00000000000E+00 -0.00000000000E+00 -0.14920233820E+03  0.14920233820E+03  0.00000000000E+00 0. -1.
          6    2    1    2  503    0 -0.14810224611E+03 -0.73035963947E+02  0.15035236184E+03  0.28320568156E+03  0.17415825570E+03 0.  0.
         24    2    3    3    0    0 -0.11704831186E+03  0.11085645083E+02  0.12689893242E+03  0.19039972653E+03  0.79533125041E+02 0.  0.
         -6    2    1    2    0  501  0.14810224611E+03  0.73035963947E+02  0.86965060749E+02  0.25251641742E+03  0.17009730140E+03 0.  0.
        -24    2    5    5    0    0  0.73039619365E+02  0.92416059813E+01  0.10566681443E+03  0.15213731784E+03  0.80994410484E+02 0.  0.
          2    1    4    4  502    0 -0.19870985941E+02  0.23371650746E+02  0.74824971667E+00  0.30686316471E+02  0.00000000000E+00 0. -1.
         -1    1    4    4    0  502 -0.97177325920E+02 -0.12286005663E+02  0.12615068270E+03  0.15971341006E+03  0.00000000000E+00 0.  1.
          5    1    3    3  503    0 -0.31053934244E+02 -0.84121609031E+02  0.23453429422E+02  0.92805955033E+02  0.47000000000E+01 0. -1.
         13    1    6    6    0    0  0.88912503714E+00  0.25602561703E+02  0.32925612542E+01  0.25828717906E+02  0.00000000000E+00 0. -1.
        -14    1    6    6    0    0  0.72150494328E+02 -0.16360955721E+02  0.10237425318E+03  0.12630859993E+03  0.00000000000E+00 0.  1.
         -5    1    5    5    0  501  0.75062626740E+02  0.63794357966E+02 -0.18701753681E+02  0.10037909958E+03  0.47000000000E+01 0.  1.
<mgrwt>
<rscale>  2 0.23852951E+03</rscale>
<asrwt>0</asrwt>
<pdfrwt beam="2">  1        1 0.22954206E-01 0.23852951E+03</pdfrwt>
<pdfrwt beam="1">  1       -1 0.59464578E-01 0.23852951E+03</pdfrwt>
<totfact> 0.63285676E+02</totfact>
</mgrwt>
</event>
<event>
12    1  0.5759937E-002  0.1919315E+03  0.7546771E-02  0.1156731E+00
          2   -1    0    0  503    0  0.00000000000E+00  0.00000000000E+00  0.21633006632E+04  0.21633006632E+04  0.00000000000E+00 0.  1.
         -2   -1    0    0    0  501 -0.00000000000E+00 -0.00000000000E+00 -0.30840272243E+02  0.30840272243E+02  0.00000000000E+00 0. -1.
          6    2    1    2  503    0  0.83124045405E+02 -0.98642523362E+01  0.33181228486E+03  0.38328436653E+03  0.17262851111E+03 0.  0.
         24    2    3    3    0    0  0.30071621971E+02 -0.63604319636E+02  0.24914998257E+03  0.27122321945E+03  0.80848679842E+02 0.  0.
         -6    2    1    2    0  501 -0.83124045405E+02  0.98642523362E+01  0.18006481061E+04  0.18108565689E+04  0.17280335866E+03 0.  0.
        -24    2    5    5    0    0 -0.95313656175E+02  0.48011012546E+02  0.94654363245E+03  0.95580083749E+03  0.78871049416E+02 0.  0.
          4    1    4    4  502    0 -0.26290847653E+02 -0.68216756427E+01  0.64461903922E+02  0.69950561014E+02  0.00000000000E+00 0. -1.
         -3    1    4    4    0  502  0.56362469624E+02 -0.56782643993E+02  0.18468807864E+03  0.20127265844E+03  0.00000000000E+00 0.  1.
          5    1    3    3  503    0  0.53052423434E+02  0.53740067299E+02  0.82662302291E+02  0.11206114708E+03  0.47000000000E+01 0. -1.
         13    1    6    6    0    0 -0.69431999743E+02 -0.59497741221E+01  0.40396326424E+03  0.40992989797E+03  0.00000000000E+00 0. -1.
        -14    1    6    6    0    0 -0.25881656433E+02  0.53960786668E+02  0.54258036821E+03  0.54587093951E+03  0.00000000000E+00 0.  1.
         -5    1    5    5    0  501  0.12189610771E+02 -0.38146760209E+02  0.85410447363E+03  0.85505573140E+03  0.47000000000E+01 0.  1.
<mgrwt>
<rscale>  2 0.19193150E+03</rscale>
<asrwt>0</asrwt>
<pdfrwt beam="1">  1        2 0.33281537E+00 0.19193150E+03</pdfrwt>
<pdfrwt beam="2">  1       -2 0.47446590E-02 0.19193150E+03</pdfrwt>
<totfact> 0.13043341E+03</totfact>
</mgrwt>
</event>
<event>
12    1  0.5759937E-002  0.1900813E+03  0.7546771E-02  0.1158388E+00
          2   -1    0    0  503    0  0.00000000000E+00  0.00000000000E+00  0.18481163773E+04  0.18481163773E+04  0.00000000000E+00 0. -1.
         -2   -1    0    0    0  501 -0.00000000000E+00 -0.00000000000E+00 -0.25746669952E+02  0.25746669952E+02  0.00000000000E+00 0.  1.
          6    2    1    2  503    0  0.71742982350E+02  0.29845220098E+02  0.44931756095E+03  0.48763182043E+03  0.17280257241E+03 0.  0.
         24    2    3    3    0    0  0.95000366004E+02  0.65743503814E+02  0.38857437775E+03  0.41319112609E+03  0.79934859709E+02 0.  0.
         -6    2    1    2    0  501 -0.71742982350E+02 -0.29845220098E+02  0.13730521464E+04  0.13862312268E+04  0.17414656136E+03 0.  0.
        -24    2    5    5    0    0 -0.21185974644E+02 -0.92191175970E+00  0.12131073742E+04  0.12159462041E+04  0.80286827236E+02 0.  0.
          4    1    4    4  502    0  0.93191164056E+02  0.54440880542E+02  0.38684029357E+03  0.40161401278E+03  0.00000000000E+00 0. -1.
         -3    1    4    4    0  502  0.18092019486E+01  0.11302623272E+02  0.17340841799E+01  0.11577113304E+02  0.00000000000E+00 0.  1.
          5    1    3    3  503    0 -0.23257383654E+02 -0.35898283716E+02  0.60743183201E+02  0.74440694339E+02  0.47000000000E+01 0. -1.
         13    1    6    6    0    0 -0.42859919175E+02 -0.21815515170E+02  0.53054982642E+03  0.53272507702E+03  0.00000000000E+00 0. -1.
        -14    1    6    6    0    0  0.21673944531E+02  0.20893603411E+02  0.68255754775E+03  0.68322112710E+03  0.00000000000E+00 0.  1.
         -5    1    5    5    0  501 -0.50557007706E+02 -0.28923308339E+02  0.15994477223E+03  0.17028502270E+03  0.47000000000E+01 0.  1.
<mgrwt>
<rscale>  2 0.19008134E+03</rscale>
<asrwt>0</asrwt>
<pdfrwt beam="1">  1        2 0.28432549E+00 0.19008134E+03</pdfrwt>
<pdfrwt beam="2">  1       -2 0.39610276E-02 0.19008134E+03</pdfrwt>
<totfact> 0.24959127E+03</totfact>
</mgrwt>
</event>
<event>
12    1  0.5759937E-002  0.1998680E+03  0.7546771E-02  0.1149850E+00
         -2   -1    0    0    0  501 -0.00000000000E+00  0.00000000000E+00  0.16137440766E+03  0.16137440766E+03  0.00000000000E+00 0.  1.
          2   -1    0    0  503    0  0.00000000000E+00 -0.00000000000E+00 -0.36909493910E+03  0.36909493910E+03  0.00000000000E+00 0. -1.
          6    2    1    2  503    0 -0.90878960391E+02  0.40203632874E+02  0.48278105135E+02  0.20581322849E+03  0.17364616911E+03 0.  0.
         24    2    3    3    0    0 -0.11844291336E+03  0.36763253835E+02 -0.21990010499E+01  0.14800634343E+03  0.80751356215E+02 0.  0.
         -6    2    1    2    0  501  0.90878960391E+02 -0.40203632874E+02 -0.25599863657E+03  0.32465611827E+03  0.17317902780E+03 0.  0.
        -24    2    5    5    0    0  0.52985540456E+02 -0.69890819704E+02 -0.24841161329E+03  0.27569804173E+03  0.81295057804E+02 0.  0.
          2    1    4    4  502    0 -0.86344884661E+02  0.54300520445E+02  0.21741756032E+02  0.10429136869E+03  0.00000000000E+00 0. -1.
         -1    1    4    4    0  502 -0.32098028702E+02 -0.17537266609E+02 -0.23940757082E+02  0.43714974738E+02  0.00000000000E+00 0.  1.
          5    1    3    3  503    0  0.27563952972E+02  0.34403790389E+01  0.50477106185E+02  0.57806885058E+02  0.47000000000E+01 0. -1.
         11    1    6    6    0    0  0.21444866231E+01 -0.45253811863E+02 -0.18632748212E+03  0.19175619131E+03  0.00000000000E+00 0. -1.
        -12    1    6    6    0    0  0.50841053833E+02 -0.24637007841E+02 -0.62084131163E+02  0.83941850423E+02  0.00000000000E+00 0.  1.
         -5    1    5    5    0  501  0.37893419935E+02  0.29687186829E+02 -0.75870232819E+01  0.48958076540E+02  0.47000000000E+01 0.  1.
<mgrwt>
<rscale>  2 0.19986800E+03</rscale>
<asrwt>0</asrwt>
<pdfrwt beam="2">  1        2 0.56783836E-01 0.19986800E+03</pdfrwt>
<pdfrwt beam="1">  1       -2 0.24826832E-01 0.19986800E+03</pdfrwt>
<totfact> 0.12494376E+03</totfact>
</mgrwt>
</event>
<event>
12    1  0.5759937E-002  0.1759731E+03  0.7546771E-02  0.1171758E+00
          2   -1    0    0  503    0  0.00000000000E+00  0.00000000000E+00  0.36364527849E+03  0.36364527849E+03  0.00000000000E+00 0. -1.
         -2   -1    0    0    0  501 -0.00000000000E+00 -0.00000000000E+00 -0.13012255397E+03  0.13012255397E+03  0.00000000000E+00 0.  1.
          6    2    1    2  503    0 -0.31977515810E+02 -0.20042995645E+02 -0.28130496683E+02  0.17874923218E+03  0.17244036641E+03 0.  0.
         24    2    3    3    0    0  0.19158545480E+02  0.44726048886E+02 -0.55723989777E+02  0.91609018989E+02  0.54033138068E+02 0.  0.
         -6    2    1    2    0  501  0.31977515810E+02  0.20042995645E+02  0.26165322120E+03  0.31501860029E+03  0.17131849629E+03 0.  0.
        -24    2    5    5    0    0 -0.39775165613E+02 -0.76936306539E+01  0.19006834430E+03  0.20983185050E+03  0.79133900618E+02 0.  0.
          2    1    4    4  502    0  0.33921940672E+02  0.30185651013E+02 -0.18551863057E+02  0.49051434320E+02  0.00000000000E+00 0. -1.
         -1    1    4    4    0  502 -0.14763395192E+02  0.14540397873E+02 -0.37172126720E+02  0.42557584668E+02  0.00000000000E+00 0.  1.
          5    1    3    3  503    0 -0.51136061290E+02 -0.64769044531E+02  0.27593493094E+02  0.87140213190E+02  0.47000000000E+01 0. -1.
         11    1    6    6    0    0  0.19690297881E+01 -0.20567274501E+02  0.14714574855E+03  0.14858923640E+03  0.00000000000E+00 0. -1.
        -12    1    6    6    0    0 -0.41744195401E+02  0.12873643847E+02  0.42922595756E+02  0.61242614101E+02  0.00000000000E+00 0.  1.
         -5    1    5    5    0  501  0.71752681423E+02  0.27736626299E+02  0.71584876902E+02  0.10518674979E+03  0.47000000000E+01 0.  1.
<mgrwt>
<rscale>  2 0.17597311E+03</rscale>
<asrwt>0</asrwt>
<pdfrwt beam="1">  1        2 0.55945427E-01 0.17597311E+03</pdfrwt>
<pdfrwt beam="2">  1       -2 0.20018855E-01 0.17597311E+03</pdfrwt>
<totfact> 0.18371445E+03</totfact>
</mgrwt>
</event>
<event>
12    1  0.5759937E-002  0.2759158E+03  0.7546771E-02  0.1097941E+00
          2   -1    0    0  503    0  0.00000000000E+00  0.00000000000E+00  0.31435979190E+04  0.31435979190E+04  0.00000000000E+00 0.  1.
         -2   -1    0    0    0  501 -0.00000000000E+00 -0.00000000000E+00 -0.43819989175E+02  0.43819989175E+02  0.00000000000E+00 0. -1.
          6    2    1    2  503    0 -0.17018975029E+03 -0.12418609991E+03  0.49495501002E+03  0.56838599091E+03  0.18356316137E+03 0.  0.
         24    2    3    3    0    0 -0.99546699532E+02 -0.14761518969E+03  0.41602832991E+03  0.45980020132E+03  0.81466951807E+02 0.  0.
         -6    2    1    2    0  501  0.17018975029E+03  0.12418609991E+03  0.26048229198E+04  0.26190319172E+04  0.17273969306E+03 0.  0.
        -24    2    5    5    0    0  0.90317435722E+02 -0.36003729297E+01  0.10523039907E+04  0.10592094644E+04  0.80067463468E+02 0.  0.
          2    1    4    4  502    0 -0.54744090842E+02 -0.97316285560E+02  0.16033637936E+03  0.19538456813E+03  0.00000000000E+00 0. -1.
         -1    1    4    4    0  502 -0.44802608691E+02 -0.50298904129E+02  0.25569195055E+03  0.26441563319E+03  0.00000000000E+00 0.  1.
          5    1    3    3  503    0 -0.70643050757E+02  0.23429089777E+02  0.78926680107E+02  0.10858578959E+03  0.47000000000E+01 0. -1.
         13    1    6    6    0    0 -0.14149460951E+02  0.33120281175E+01  0.19404569033E+03  0.19458907141E+03  0.00000000000E+00 0. -1.
        -14    1    6    6    0    0  0.10446689667E+03 -0.69124010472E+01  0.85825830040E+03  0.86462039300E+03  0.00000000000E+00 0.  1.
         -5    1    5    5    0  501  0.79872314568E+02  0.12778647284E+03  0.15525189291E+04  0.15598224528E+04  0.47000000000E+01 0.  1.
<mgrwt>
<rscale>  2 0.27591582E+03</rscale>
<asrwt>0</asrwt>
<pdfrwt beam="1">  1        2 0.48363027E+00 0.27591582E+03</pdfrwt>
<pdfrwt beam="2">  1       -2 0.67415393E-02 0.27591582E+03</pdfrwt>
<totfact> 0.21089392E+02</totfact>
</mgrwt>
</event>
<event>
12    1  0.5759937E-002  0.2405231E+03  0.7546771E-02  0.1119445E+00
         -1   -1    0    0    0  501 -0.00000000000E+00  0.00000000000E+00  0.52041316746E+02  0.52041316746E+02  0.00000000000E+00 0. -1.
          1   -1    0    0  503    0  0.00000000000E+00 -0.00000000000E+00 -0.11660835921E+04  0.11660835921E+04  0.00000000000E+00 0.  1.
          6    2    1    2  503    0  0.16673921528E+03  0.97007859223E+00 -0.42506521881E+03  0.48831788715E+03  0.17312137851E+03 0.  0.
         24    2    3    3    0    0  0.10290164867E+03 -0.56322385050E+02 -0.31695216554E+03  0.35023029325E+03  0.91878303805E+02 0.  0.
         -6    2    1    2    0  501 -0.16673921528E+03 -0.97007859223E+00 -0.68897705654E+03  0.72980702170E+03  0.17356842315E+03 0.  0.
        -24    2    5    5    0    0 -0.98821673980E+02 -0.54043182263E+02 -0.29281287536E+03  0.32434716524E+03  0.82312300562E+02 0.  0.
          4    1    4    4  502    0  0.59965220816E+02  0.41292606606E+01 -0.22064759643E+03  0.22868808520E+03  0.00000000000E+00 0. -1.
         -3    1    4    4    0  502  0.42936427854E+02 -0.60451645710E+02 -0.96304569115E+02  0.12154220805E+03  0.00000000000E+00 0.  1.
          5    1    3    3  503    0  0.63837566614E+02  0.57292463642E+02 -0.10811305327E+03  0.13808759390E+03  0.47000000000E+01 0. -1.
         11    1    6    6    0    0 -0.60917903223E+02  0.73324069618E+01 -0.88630143807E+02  0.10779637061E+03  0.00000000000E+00 0. -1.
        -12    1    6    6    0    0 -0.37903770757E+02 -0.61375589225E+02 -0.20418273156E+03  0.21655079463E+03  0.00000000000E+00 0.  1.
         -5    1    5    5    0  501 -0.67917541303E+02  0.53073103671E+02 -0.39616418118E+03  0.40545985646E+03  0.47000000000E+01 0.  1.
<mgrwt>
<rscale>  2 0.24052310E+03</rscale>
<asrwt>0</asrwt>
<pdfrwt beam="2">  1        1 0.17939745E+00 0.24052310E+03</pdfrwt>
<pdfrwt beam="1">  1       -1 0.80063575E-02 0.24052310E+03</pdfrwt>
<totfact> 0.10429587E+03</totfact>
</mgrwt>
</event>
<event>
12    1  0.5759937E-002  0.2350107E+03  0.7546771E-02  0.1123162E+00
          2   -1    0    0  503    0  0.00000000000E+00  0.00000000000E+00  0.34848335669E+04  0.34848335669E+04  0.00000000000E+00 0. -1.
         -2   -1    0    0    0  501 -0.00000000000E+00 -0.00000000000E+00 -0.15974295437E+02  0.15974295437E+02  0.00000000000E+00 0.  1.
          6    2    1    2  503    0 -0.22850123327E+02 -0.15238565701E+03  0.18516731612E+04  0.18659529677E+04  0.17129934368E+03 0.  0.
         24    2    3    3    0    0  0.17614421935E+01 -0.13976125180E+03  0.17992027407E+04  0.18064522132E+04  0.81257529256E+02 0.  0.
         -6    2    1    2    0  501  0.22850123327E+02  0.15238565701E+03  0.16171861102E+04  0.16348548946E+04  0.18361942901E+03 0.  0.
        -24    2    5    5    0    0  0.40772411416E+02  0.17197167599E+03  0.15550327411E+04  0.15671057112E+04  0.80354449234E+02 0.  0.
          4    1    4    4  502    0  0.77148095172E+01 -0.25910719478E+02  0.84965131614E+03  0.85008131534E+03  0.00000000000E+00 0. -1.
         -3    1    4    4    0  502 -0.59533673237E+01 -0.11385053232E+03  0.94955142460E+03  0.95637089784E+03  0.00000000000E+00 0.  1.
          5    1    3    3  503    0 -0.24611565520E+02 -0.12624405209E+02  0.52470420494E+02  0.59500754542E+02  0.47000000000E+01 0. -1.
         13    1    6    6    0    0  0.21929097028E+02  0.14693174647E+01  0.14030135643E+03  0.14201237554E+03  0.00000000000E+00 0. -1.
        -14    1    6    6    0    0  0.18843314388E+02  0.17050235852E+03  0.14147313846E+04  0.14250933357E+04  0.00000000000E+00 0.  1.
         -5    1    5    5    0  501 -0.17922288089E+02 -0.19586018982E+02  0.62153369166E+02  0.67749183380E+02  0.47000000000E+01 0.  1.
<mgrwt>
<rscale>  2 0.23501072E+03</rscale>
<asrwt>0</asrwt>
<pdfrwt beam="1">  1        2 0.53612764E+00 0.23501072E+03</pdfrwt>
<pdfrwt beam="2">  1       -2 0.24575867E-02 0.23501072E+03</pdfrwt>
<totfact> 0.59727656E+02</totfact>
</mgrwt>
</event>
<event>
12    1  0.5759937E-002  0.1938584E+03  0.7546771E-02  0.1155027E+00
         -2   -1    0    0    0  501 -0.00000000000E+00  0.00000000000E+00  0.54488329914E+03  0.54488329914E+03  0.00000000000E+00 0.  1.
          2   -1    0    0  503    0  0.00000000000E+00 -0.00000000000E+00 -0.69650254113E+02  0.69650254113E+02  0.00000000000E+00 0. -1.
          6    2    1    2  503    0 -0.31397419517E+02  0.81410509886E+02  0.20647744258E+03  0.28276426961E+03  0.17236365279E+03 0.  0.
         24    2    3    3    0    0 -0.84299293656E+02  0.41723592513E+02  0.17414907172E+03  0.20900199429E+03  0.67131999472E+02 0.  0.
         -6    2    1    2    0  501  0.31397419517E+02 -0.81410509886E+02  0.26875560245E+03  0.33176928364E+03  0.17386148121E+03 0.  0.
        -24    2    5    5    0    0 -0.26021476521E+02 -0.95263689367E+02  0.22593382573E+03  0.25866227464E+03  0.78152357361E+02 0.  0.
          2    1    4    4  502    0 -0.57723835567E+02 -0.85802117842E+01  0.95811636782E+02  0.11218525291E+03  0.00000000000E+00 0. -1.
         -1    1    4    4    0  502 -0.26575458088E+02  0.50303804297E+02  0.78337434941E+02  0.96816741385E+02  0.00000000000E+00 0.  1.
          5    1    3    3  503    0  0.52901874139E+02  0.39686917373E+02  0.32328370859E+02  0.73762275320E+02  0.47000000000E+01 0. -1.
         11    1    6    6    0    0 -0.49874819818E+02 -0.57774400902E+02  0.17590413191E+03  0.19174890527E+03  0.00000000000E+00 0. -1.
        -12    1    6    6    0    0  0.23853343298E+02 -0.37489288465E+02  0.50029693823E+02  0.66913369367E+02  0.00000000000E+00 0.  1.
         -5    1    5    5    0  501  0.57418896038E+02  0.13853179481E+02  0.42821776715E+02  0.73107009000E+02  0.47000000000E+01 0.  1.
<mgrwt>
<rscale>  2 0.19385844E+03</rscale>
<asrwt>0</asrwt>
<pdfrwt beam="2">  1        2 0.10715424E-01 0.19385844E+03</pdfrwt>
<pdfrwt beam="1">  1       -2 0.83828197E-01 0.19385844E+03</pdfrwt>
<totfact> 0.74807012E+02</totfact>
</mgrwt>
</event>
<event>
12    1  0.5759937E-002  0.2109519E+03  0.7546771E-02  0.1140814E+00
         -2   -1    0    0    0  501 -0.00000000000E+00  0.00000000000E+00  0.34567537345E+03  0.34567537345E+03  0.00000000000E+00 0.  1.
          2   -1    0    0  503    0  0.00000000000E+00 -0.00000000000E+00 -0.13972929831E+03  0.13972929831E+03  0.00000000000E+00 0. -1.
          6    2    1    2  503    0  0.12303937600E+03  0.47645764539E+01  0.34877076789E+02  0.21377522521E+03  0.17123681611E+03 0.  0.
         24    2    3    3    0    0  0.13427769253E+03  0.11309777771E+02 -0.19064316080E+02  0.15808947045E+03  0.80438937927E+02 0.  0.
         -6    2    1    2    0  501 -0.12303937600E+03 -0.47645764539E+01  0.17106899835E+03  0.27162944656E+03  0.17133757557E+03 0.  0.
        -24    2    5    5    0    0 -0.77246852243E+02  0.24436662136E+02  0.28335126618E+02  0.11883967037E+03  0.82193437788E+02 0.  0.
          2    1    4    4  502    0  0.55697954891E+02 -0.13883960759E+02 -0.43505744809E+02  0.72026220064E+02  0.00000000000E+00 0. -1.
         -1    1    4    4    0  502  0.78579737637E+02  0.25193738530E+02  0.24441428728E+02  0.86063250383E+02  0.00000000000E+00 0.  1.
          5    1    3    3  503    0 -0.11238316525E+02 -0.65452013171E+01  0.53941392869E+02  0.55685754761E+02  0.47000000000E+01 0. -1.
         13    1    6    6    0    0 -0.23939090273E+02  0.50471081878E+02  0.17459566502E+02  0.58525606459E+02  0.00000000000E+00 0. -1.
        -14    1    6    6    0    0 -0.53307761970E+02 -0.26034419742E+02  0.10875560116E+02  0.60314063910E+02  0.00000000000E+00 0.  1.
         -5    1    5    5    0  501 -0.45792523761E+02 -0.29201238590E+02  0.14273387173E+03  0.15278977619E+03  0.47000000000E+01 0.  1.
<mgrwt>
<rscale>  2 0.21095187E+03</rscale>
<asrwt>0</asrwt>
<pdfrwt beam="2">  1        2 0.21496815E-01 0.21095187E+03</pdfrwt>
<pdfrwt beam="1">  1       -2 0.53180827E-01 0.21095187E+03</pdfrwt>
<totfact> 0.86294926E+02</totfact>
</mgrwt>
</event>
<event>
12    1  0.5759937E-002  0.2330474E+03  0.7546771E-02  0.1124513E+00
          1   -1    0    0  503    0  0.00000000000E+00  0.00000000000E+00  0.19432769884E+04  0.19432769884E+04  0.00000000000E+00 0. -1.
         -1   -1    0    0    0  501 -0.00000000000E+00 -0.00000000000E+00 -0.25185652453E+03  0.25185652453E+03  0.00000000000E+00 0.  1.
          6    2    1    2  503    0 -0.15718920685E+03 -0.95585465992E+01  0.18802753635E+04  0.18945675779E+04  0.17073679131E+03 0.  0.
         24    2    3    3    0    0 -0.14772703987E+03 -0.62270368203E+02  0.14855613397E+04  0.14962092978E+04  0.77774620581E+02 0.  0.
         -6    2    1    2    0  501  0.15718920685E+03  0.95585465992E+01 -0.18885489964E+03  0.30056593506E+03  0.17284066545E+03 0.  0.
        -24    2    5    5    0    0  0.73652895906E+02 -0.24323559954E+02 -0.28741463505E+02  0.11675974685E+03  0.82403774888E+02 0.  0.
          4    1    4    4  502    0 -0.91940759826E+02 -0.29903544421E+02  0.11778599736E+04  0.11818212398E+04  0.00000000000E+00 0. -1.
         -3    1    4    4    0  502 -0.55786280048E+02 -0.32366823782E+02  0.30770136613E+03  0.31438805805E+03  0.00000000000E+00 0.  1.
          5    1    3    3  503    0 -0.94621669806E+01  0.52711821604E+02  0.39471402376E+03  0.39835828007E+03  0.47000000000E+01 0. -1.
         13    1    6    6    0    0 -0.17928519853E+02 -0.16237961634E+01 -0.98986982758E+01  0.20543922840E+02  0.00000000000E+00 0. -1.
        -14    1    6    6    0    0  0.91581415758E+02 -0.22699763791E+02 -0.18842765229E+02  0.96215824010E+02  0.00000000000E+00 0.  1.
         -5    1    5    5    0  501  0.83536310949E+02  0.33882106554E+02 -0.16011343614E+03  0.18380618821E+03  0.47000000000E+01 0.  1.
<mgrwt>
<rscale>  2 0.23304739E+03</rscale>
<asrwt>0</asrwt>
<pdfrwt beam="1">  1        1 0.29896568E+00 0.23304739E+03</pdfrwt>
<pdfrwt beam="2">  1       -1 0.38747159E-01 0.23304739E+03</pdfrwt>
<totfact> 0.24723518E+01</totfact>
</mgrwt>
</event>
<event>
12    1  0.5759937E-002  0.2135613E+03  0.7546771E-02  0.1138776E+00
          1   -1    0    0  503    0  0.00000000000E+00  0.00000000000E+00  0.20851946010E+03  0.20851946010E+03  0.00000000000E+00 0. -1.
         -1   -1    0    0    0  501 -0.00000000000E+00 -0.00000000000E+00 -0.30386492119E+03  0.30386492119E+03  0.00000000000E+00 0.  1.
          6    2    1    2  503    0 -0.76664749425E+02 -0.10313450633E+03  0.87803263389E+02  0.23166145287E+03  0.17159080828E+03 0.  0.
         24    2    3    3    0    0 -0.33665122513E+02  0.98397376954E+01 -0.40699666464E+01  0.79757114148E+02  0.71515534794E+02 0.  0.
         -6    2    1    2    0  501  0.76664749425E+02  0.10313450633E+03 -0.18314872448E+03  0.28072292841E+03  0.16955145843E+03 0.  0.
        -24    2    5    5    0    0  0.36596505360E+02  0.13461707205E+03 -0.14644676180E+03  0.21774880522E+03  0.80664910853E+02 0.  0.
          2    1    4    4  502    0 -0.32890894445E+02  0.33631069396E+01 -0.34999945991E+02  0.48146834217E+02  0.00000000000E+00 0. -1.
         -1    1    4    4    0  502 -0.77422806840E+00  0.64766307558E+01  0.30929979345E+02  0.31610279931E+02  0.00000000000E+00 0.  1.
          5    1    3    3  503    0 -0.42999626911E+02 -0.11297424402E+03  0.91873230035E+02  0.15190433873E+03  0.47000000000E+01 0. -1.
         11    1    6    6    0    0  0.30909355797E+02  0.17735899568E+02 -0.68290193226E+02  0.77029221079E+02  0.00000000000E+00 0. -1.
        -12    1    6    6    0    0  0.56871495636E+01  0.11688117248E+03 -0.78156568572E+02  0.14071958414E+03  0.00000000000E+00 0.  1.
         -5    1    5    5    0  501  0.40068244064E+02 -0.31482565720E+02 -0.36701962681E+02  0.62974123188E+02  0.47000000000E+01 0.  1.
<mgrwt>
<rscale>  2 0.21356131E+03</rscale>
<asrwt>0</asrwt>
<pdfrwt beam="1">  1        1 0.32079917E-01 0.21356131E+03</pdfrwt>
<pdfrwt beam="2">  1       -1 0.46748450E-01 0.21356131E+03</pdfrwt>
<totfact> 0.64875632E+02</totfact>
</mgrwt>
</event>
<event>
12    1  0.5759937E-002  0.1973928E+03  0.7546771E-02  0.1151957E+00
         -2   -1    0    0    0  501 -0.00000000000E+00  0.00000000000E+00  0.41245003109E+02  0.41245003109E+02  0.00000000000E+00 0.  1.
          2   -1    0    0  503    0  0.00000000000E+00 -0.00000000000E+00 -0.10635599163E+04  0.10635599163E+04  0.00000000000E+00 0. -1.
          6    2    1    2  503    0 -0.83413061836E+02  0.45018292098E+02 -0.69556958367E+03  0.72300510507E+03  0.17301719774E+03 0.  0.
         24    2    3    3    0    0 -0.82891205334E+02  0.89872771224E+02 -0.44907906339E+03  0.47242205851E+03  0.81009439352E+02 0.  0.
         -6    2    1    2    0  501  0.83413061836E+02 -0.45018292098E+02 -0.32674532956E+03  0.38179981439E+03  0.17327493289E+03 0.  0.
        -24    2    5    5    0    0 -0.16222364256E+01 -0.54175192633E+02 -0.10053036258E+03  0.13991109604E+03  0.80815702965E+02 0.  0.
          4    1    4    4  502    0 -0.20746970107E+02  0.65334527540E+02 -0.31791419245E+03  0.32522064974E+03  0.00000000000E+00 0. -1.
         -3    1    4    4    0  502 -0.62144235227E+02  0.24538243684E+02 -0.13116487094E+03  0.14720140877E+03  0.00000000000E+00 0.  1.
          5    1    3    3  503    0 -0.52185650186E+00 -0.44854479126E+02 -0.24649052028E+03  0.25058304656E+03  0.47000000000E+01 0. -1.
         11    1    6    6    0    0  0.36375993379E+02 -0.44178725566E+02 -0.68193381676E+02  0.89024210142E+02  0.00000000000E+00 0. -1.
        -12    1    6    6    0    0 -0.37998229804E+02 -0.99964670679E+01 -0.32336980902E+02  0.50886885894E+02  0.00000000000E+00 0.  1.
         -5    1    5    5    0  501  0.85035298262E+02  0.91569005356E+01 -0.22621496699E+03  0.24188871835E+03  0.47000000000E+01 0.  1.
<mgrwt>
<rscale>  2 0.19739285E+03</rscale>
<asrwt>0</asrwt>
<pdfrwt beam="2">  1        2 0.16362462E+00 0.19739285E+03</pdfrwt>
<pdfrwt beam="1">  1       -2 0.63453844E-02 0.19739285E+03</pdfrwt>
<totfact> 0.32380724E+03</totfact>
</mgrwt>
</event>
<event>
12    1  0.5759937E-002  0.1833792E+03  0.7546771E-02  0.1164572E+00
         -2   -1    0    0    0  501 -0.00000000000E+00  0.00000000000E+00  0.31082982606E+02  0.31082982606E+02  0.00000000000E+00 0.  1.
          2   -1    0    0  503    0  0.00000000000E+00 -0.00000000000E+00 -0.10828908000E+04  0.10828908000E+04  0.00000000000E+00 0. -1.
          6    2    1    2  503    0 -0.44420044439E+02  0.13878894360E+02 -0.52449803096E+03  0.55692554863E+03  0.18138941033E+03 0.  0.
         24    2    3    3    0    0  0.37397106024E+01 -0.55829374774E+02 -0.22993739562E+03  0.25038572629E+03  0.81797930906E+02 0.  0.
         -6    2    1    2    0  501  0.44420044439E+02 -0.13878894360E+02 -0.52730978648E+03  0.55704823402E+03  0.17343978797E+03 0.  0.
        -24    2    5    5    0    0  0.53658821940E+02  0.34150432969E+01 -0.14433980541E+03  0.17354786676E+03  0.79962184423E+02 0.  0.
          4    1    4    4  502    0 -0.19038520599E+02 -0.42312943123E+02 -0.21505693307E+03  0.22000530649E+03  0.00000000000E+00 0. -1.
         -3    1    4    4    0  502  0.22778231201E+02 -0.13516431652E+02 -0.14880462548E+02  0.30380419795E+02  0.00000000000E+00 0.  1.
          5    1    3    3  503    0 -0.48159755041E+02  0.69708269134E+02 -0.29456063534E+03  0.30653982234E+03  0.47000000000E+01 0. -1.
         13    1    6    6    0    0  0.58368703580E+00  0.67512337752E+00 -0.11058508783E+03  0.11058868899E+03  0.00000000000E+00 0. -1.
        -14    1    6    6    0    0  0.53075134905E+02  0.27399199194E+01 -0.33754717579E+02  0.62959177767E+02  0.00000000000E+00 0.  1.
         -5    1    5    5    0  501 -0.92387775016E+01 -0.17293937657E+02 -0.38296998107E+03  0.38350036726E+03  0.47000000000E+01 0.  1.
<mgrwt>
<rscale>  2 0.18337922E+03</rscale>
<asrwt>0</asrwt>
<pdfrwt beam="2">  1        2 0.16659859E+00 0.18337922E+03</pdfrwt>
<pdfrwt beam="1">  1       -2 0.47819973E-02 0.18337922E+03</pdfrwt>
<totfact> 0.48429709E+03</totfact>
</mgrwt>
</event>
<event>
12    1  0.5759937E-002  0.2893190E+03  0.7546771E-02  0.1090705E+00
          2   -1    0    0  503    0  0.00000000000E+00  0.00000000000E+00  0.56541948890E+02  0.56541948890E+02  0.00000000000E+00 0. -1.
         -2   -1    0    0    0  501 -0.00000000000E+00 -0.00000000000E+00 -0.17903234864E+04  0.17903234864E+04  0.00000000000E+00 0.  1.
          6    2    1    2  503    0 -0.11590745126E+03 -0.20163571739E+03 -0.48212725953E+03  0.56215698409E+03  0.17170404946E+03 0.  0.
         24    2    3    3    0    0  0.81103927613E+01 -0.80522774947E+02 -0.16203981105E+03  0.19811463060E+03  0.80267121145E+02 0.  0.
         -6    2    1    2    0  501  0.11590745126E+03  0.20163571739E+03 -0.12516542780E+04  0.12847084512E+04  0.17246991972E+03 0.  0.
        -24    2    5    5    0    0  0.90266871120E+02  0.15806444605E+03 -0.62026360817E+03  0.65127955782E+03  0.79408070696E+02 0.  0.
          2    1    4    4  502    0  0.38543776255E+02 -0.19919630916E+02 -0.42832119040E+02  0.60967243707E+02  0.00000000000E+00 0. -1.
         -1    1    4    4    0  502 -0.30433383493E+02 -0.60603144031E+02 -0.11920769201E+03  0.13714738689E+03  0.00000000000E+00 0.  1.
          5    1    3    3  503    0 -0.12401784402E+03 -0.12111294244E+03 -0.32008744848E+03  0.36404235349E+03  0.47000000000E+01 0. -1.
         13    1    6    6    0    0  0.39265172157E+01  0.24264944655E+01  0.12512938981E+01  0.47823790373E+01  0.00000000000E+00 0. -1.
        -14    1    6    6    0    0  0.86340353904E+02  0.15563795159E+03 -0.62151490206E+03  0.64649717878E+03  0.00000000000E+00 0.  1.
         -5    1    5    5    0  501  0.25640580140E+02  0.43571271335E+02 -0.63139066986E+03  0.63342889342E+03  0.47000000000E+01 0.  1.
<mgrwt>
<rscale>  2 0.28931898E+03</rscale>
<asrwt>0</asrwt>
<pdfrwt beam="1">  1        2 0.86987610E-02 0.28931898E+03</pdfrwt>
<pdfrwt beam="2">  1       -2 0.27543439E+00 0.28931898E+03</pdfrwt>
<totfact> 0.38737413E+01</totfact>
</mgrwt>
</event>
<event>
12    1  0.5759937E-002  0.1844756E+03  0.7546771E-02  0.1163541E+00
          2   -1    0    0  503    0  0.00000000000E+00  0.00000000000E+00  0.21690651764E+04  0.21690651764E+04  0.00000000000E+00 0.  1.
         -2   -1    0    0    0  501 -0.00000000000E+00 -0.00000000000E+00 -0.22132332062E+02  0.22132332062E+02  0.00000000000E+00 0. -1.
          6    2    1    2  503    0 -0.64682024703E+02 -0.15746663827E+02  0.16592837360E+04  0.16693669551E+04  0.17068038117E+03 0.  0.
         24    2    3    3    0    0 -0.10848083631E+03 -0.23155456914E+02  0.11247187287E+04  0.11329388955E+04  0.79082584701E+02 0.  0.
         -6    2    1    2    0  501  0.64682024703E+02  0.15746663827E+02  0.48764910832E+03  0.52183055333E+03  0.17341785320E+03 0.  0.
        -24    2    5    5    0    0  0.78539471016E+02 -0.17245689532E+02  0.18069595761E+03  0.21276284081E+03  0.78429171969E+02 0.  0.
          4    1    4    4  502    0 -0.46128485280E+02  0.25406086036E+02  0.59932820181E+03  0.60163743222E+03  0.00000000000E+00 0. -1.
         -3    1    4    4    0  502 -0.62352351031E+02 -0.48561542950E+02  0.52539052690E+03  0.53130146328E+03  0.00000000000E+00 0.  1.
          5    1    3    3  503    0  0.43798811608E+02  0.74087930865E+01  0.53456500733E+03  0.53642805964E+03  0.47000000000E+01 0. -1.
         11    1    6    6    0    0  0.58979925582E+02  0.14278819853E+02  0.15804588856E+03  0.16929565620E+03  0.00000000000E+00 0. -1.
        -12    1    6    6    0    0  0.19559545433E+02 -0.31524509385E+02  0.22650069057E+02  0.43467184609E+02  0.00000000000E+00 0.  1.
         -5    1    5    5    0  501 -0.13857446313E+02  0.32992353359E+02  0.30695315071E+03  0.30906771253E+03  0.47000000000E+01 0.  1.
<mgrwt>
<rscale>  2 0.18447557E+03</rscale>
<asrwt>0</asrwt>
<pdfrwt beam="1">  1        2 0.33370217E+00 0.18447557E+03</pdfrwt>
<pdfrwt beam="2">  1       -2 0.34049759E-02 0.18447557E+03</pdfrwt>
<totfact> 0.21314515E+03</totfact>
</mgrwt>
</event>
<event>
12    1  0.5759937E-002  0.3527363E+03  0.7546771E-02  0.1061498E+00
          2   -1    0    0  503    0  0.00000000000E+00  0.00000000000E+00  0.18637545280E+04  0.18637545280E+04  0.00000000000E+00 0. -1.
         -2   -1    0    0    0  501 -0.00000000000E+00 -0.00000000000E+00 -0.67391630508E+02  0.67391630508E+02  0.00000000000E+00 0.  1.
          6    2    1    2  503    0 -0.22438184175E+03 -0.21087437684E+03  0.80626175040E+03  0.88030013718E+03  0.17336408981E+03 0.  0.
         24    2    3    3    0    0 -0.82544974458E+02 -0.16075564400E+03  0.52462988578E+03  0.56097556644E+03  0.82468292106E+02 0.  0.
         -6    2    1    2    0  501  0.22438184175E+03  0.21087437684E+03  0.99010114707E+03  0.10508460213E+04  0.17076845540E+03 0.  0.
        -24    2    5    5    0    0  0.24051504198E+03  0.20986755010E+03  0.97144399651E+03  0.10257168925E+04  0.80621530148E+02 0.  0.
          2    1    4    4  502    0 -0.60945545991E+02 -0.16482669941E+03  0.44729335827E+03  0.48057626738E+03  0.00000000000E+00 0. -1.
         -1    1    4    4    0  502 -0.21599428467E+02  0.40710554112E+01  0.77336527506E+02  0.80399299057E+02  0.00000000000E+00 0.  1.
          5    1    3    3  503    0 -0.14183686729E+03 -0.50118732842E+02  0.28163186462E+03  0.31932457074E+03  0.47000000000E+01 0. -1.
         11    1    6    6    0    0  0.10207844290E+03  0.74541184725E+02  0.50747527161E+03  0.52297949101E+03  0.00000000000E+00 0. -1.
        -12    1    6    6    0    0  0.13843659908E+03  0.13532636537E+03  0.46396872491E+03  0.50273740145E+03  0.00000000000E+00 0.  1.
         -5    1    5    5    0  501 -0.16133200230E+02  0.10068267478E+01  0.18657150561E+02  0.25129128851E+02  0.47000000000E+01 0.  1.
<mgrwt>
<rscale>  2 0.35273630E+03</rscale>
<asrwt>0</asrwt>
<pdfrwt beam="1">  1        2 0.28673143E+00 0.35273630E+03</pdfrwt>
<pdfrwt beam="2">  1       -2 0.10367945E-01 0.35273630E+03</pdfrwt>
<totfact> 0.54356342E+02</totfact>
</mgrwt>
</event>
<event>
12    1  0.5759937E-002  0.2727793E+03  0.7546771E-02  0.1099699E+00
         -4   -1    0    0    0  501 -0.00000000000E+00  0.00000000000E+00  0.13287731576E+03  0.13287731576E+03  0.00000000000E+00 0.  1.
          4   -1    0    0  503    0  0.00000000000E+00 -0.00000000000E+00 -0.60142501504E+03  0.60142501504E+03  0.00000000000E+00 0. -1.
          6    2    1    2  503    0 -0.20019469782E+03 -0.71965550718E+02 -0.33167900869E+03  0.43026969928E+03  0.17281230220E+03 0.  0.
         24    2    3    3    0    0 -0.20269762712E+03 -0.22631787203E+02 -0.29386344752E+03  0.36788226830E+03  0.85925035401E+02 0.  0.
         -6    2    1    2    0  501  0.20019469782E+03  0.71965550718E+02 -0.13686869059E+03  0.30403263153E+03  0.16865896076E+03 0.  0.
        -24    2    5    5    0    0  0.10467933717E+03  0.76406488819E+02 -0.14232316031E+03  0.20814338661E+03  0.79196415735E+02 0.  0.
          4    1    4    4  502    0 -0.33673858762E+02  0.87801173978E+01 -0.11347903895E+03  0.11869503573E+03  0.00000000000E+00 0. -1.
         -3    1    4    4    0  502 -0.16902376836E+03 -0.31411904600E+02 -0.18038440856E+03  0.24918723257E+03  0.00000000000E+00 0.  1.
          5    1    3    3  503    0  0.25029293066E+01 -0.49333763515E+02 -0.37815561171E+02  0.62387430981E+02  0.47000000000E+01 0. -1.
         11    1    6    6    0    0 -0.17749043978E+00 -0.36325167865E+01 -0.42657063971E+02  0.42811818318E+02  0.00000000000E+00 0. -1.
        -12    1    6    6    0    0  0.10485682761E+03  0.80039005605E+02 -0.99666096334E+02  0.16533156829E+03  0.00000000000E+00 0.  1.
         -5    1    5    5    0  501  0.95515360649E+02 -0.44409381008E+01  0.54544697147E+01  0.95889244918E+02  0.47000000000E+01 0.  1.
<mgrwt>
<rscale>  2 0.27277930E+03</rscale>
<asrwt>0</asrwt>
<pdfrwt beam="2">  1        4 0.92526925E-01 0.27277930E+03</pdfrwt>
<pdfrwt beam="1">  1       -4 0.20442664E-01 0.27277930E+03</pdfrwt>
<totfact> 0.40728611E+01</totfact>
</mgrwt>
</event>
<event>
12    1  0.5759937E-002  0.2341478E+03  0.7546771E-02  0.1123754E+00
         -1   -1    0    0    0  501 -0.00000000000E+00  0.00000000000E+00  0.41618276094E+03  0.41618276094E+03  0.00000000000E+00 0.  1.
          1   -1    0    0  503    0  0.00000000000E+00 -0.00000000000E+00 -0.13197588805E+03  0.13197588805E+03  0.00000000000E+00 0. -1.
          6    2    1    2  503    0 -0.15929453745E+02  0.15503472417E+03  0.13139855114E+03  0.26981291867E+03  0.17675949379E+03 0.  0.
         24    2    3    3    0    0 -0.73176019719E+02  0.13606570876E+03  0.98679281796E+02  0.20104058813E+03  0.82529452064E+02 0.  0.
         -6    2    1    2    0  501  0.15929453745E+02 -0.15503472417E+03  0.15280832176E+03  0.27834573032E+03  0.17273230500E+03 0.  0.
        -24    2    5    5    0    0  0.15609685217E+02 -0.12953761054E+03  0.18291277140E+03  0.23861447128E+03  0.80350041366E+02 0.  0.
          4    1    4    4  502    0 -0.31465551744E+02  0.14520179322E+02 -0.61584488790E+01  0.35197202257E+02  0.00000000000E+00 0. -1.
         -3    1    4    4    0  502 -0.41710467975E+02  0.12154552944E+03  0.10483773068E+03  0.16584338588E+03  0.00000000000E+00 0.  1.
          5    1    3    3  503    0  0.57246565974E+02  0.18969015410E+02  0.32719269341E+02  0.68772330538E+02  0.47000000000E+01 0. -1.
         13    1    6    6    0    0  0.45776584384E+02 -0.60197412044E+02  0.11061400162E+03  0.13399507994E+03  0.00000000000E+00 0. -1.
        -14    1    6    6    0    0 -0.30166899167E+02 -0.69340198492E+02  0.72298769785E+02  0.10461939134E+03  0.00000000000E+00 0.  1.
         -5    1    5    5    0  501  0.31976852801E+00 -0.25497113637E+02 -0.30104449649E+02  0.39731259033E+02  0.47000000000E+01 0.  1.
<mgrwt>
<rscale>  2 0.23414778E+03</rscale>
<asrwt>0</asrwt>
<pdfrwt beam="2">  1        1 0.20303983E-01 0.23414778E+03</pdfrwt>
<pdfrwt beam="1">  1       -1 0.64028116E-01 0.23414778E+03</pdfrwt>
<totfact> 0.64200123E+02</totfact>
</mgrwt>
</event>
<event>
12    1  0.5759937E-002  0.1903128E+03  0.7546771E-02  0.1158179E+00
         -2   -1    0    0    0  501 -0.00000000000E+00  0.00000000000E+00  0.29799879771E+03  0.29799879771E+03  0.00000000000E+00 0.  1.
          2   -1    0    0  503    0  0.00000000000E+00 -0.00000000000E+00 -0.13192083106E+03  0.13192083106E+03  0.00000000000E+00 0. -1.
          6    2    1    2  503    0 -0.49537379105E+02  0.65066458615E+02  0.14312223546E+03  0.23770356373E+03  0.17126416427E+03 0.  0.
         24    2    3    3    0    0 -0.25457585425E+02 -0.31043073329E+02  0.61983852614E+02  0.10955362903E+03  0.80921187527E+02 0.  0.
         -6    2    1    2    0  501  0.49537379105E+02 -0.65066458615E+02  0.22955731191E+02  0.19221606504E+03  0.17243101258E+03 0.  0.
        -24    2    5    5    0    0  0.29448771760E+02 -0.10586108594E+03 -0.76552811089E+01  0.13719899644E+03  0.81799520908E+02 0.  0.
          2    1    4    4  502    0  0.89616079967E+01  0.86219988532E+01 -0.13011597890E+02  0.17998637775E+02  0.00000000000E+00 0. -1.
         -1    1    4    4    0  502 -0.34419193422E+02 -0.39665072182E+02  0.74995450504E+02  0.91554991253E+02  0.00000000000E+00 0.  1.
          5    1    3    3  503    0 -0.24079793680E+02  0.96109531944E+02  0.81138382841E+02  0.12814993470E+03  0.47000000000E+01 0. -1.
         11    1    6    6    0    0  0.49337558135E+02 -0.30774263700E+02 -0.12106171571E+02  0.59395364627E+02  0.00000000000E+00 0. -1.
        -12    1    6    6    0    0 -0.19888786375E+02 -0.75086822237E+02  0.44508904620E+01  0.77803631811E+02  0.00000000000E+00 0.  1.
         -5    1    5    5    0  501  0.20088607344E+02  0.40794627322E+02  0.30611012300E+02  0.55017068601E+02  0.47000000000E+01 0.  1.
<mgrwt>
<rscale>  2 0.19031283E+03</rscale>
<asrwt>0</asrwt>
<pdfrwt beam="2">  1        2 0.20295513E-01 0.19031283E+03</pdfrwt>
<pdfrwt beam="1">  1       -2 0.45845969E-01 0.19031283E+03</pdfrwt>
<totfact> 0.12342453E+03</totfact>
</mgrwt>
</event>
<event>
12    1  0.5759937E-002  0.2040462E+03  0.7546771E-02  0.1146369E+00
         -2   -1    0    0    0  501 -0.00000000000E+00  0.00000000000E+00  0.15695972648E+03  0.15695972648E+03  0.00000000000E+00 0. -1.
          2   -1    0    0  503    0  0.00000000000E+00 -0.00000000000E+00 -0.52173914534E+03  0.52173914534E+03  0.00000000000E+00 0.  1.
          6    2    1    2  503    0  0.92817127929E+01 -0.10188364067E+03  0.56253510089E+02  0.21012673255E+03  0.17470649646E+03 0.  0.
         24    2    3    3    0    0  0.55807073002E+02 -0.89453936878E+02 -0.62613443587E+01  0.13107419492E+03  0.77619610412E+02 0.  0.
         -6    2    1    2    0  501 -0.92817127929E+01  0.10188364067E+03 -0.42103292895E+03  0.46857213927E+03  0.17839477575E+03 0.  0.
        -24    2    5    5    0    0 -0.26586404809E+01 -0.21233929802E+02 -0.19736381562E+03  0.21312789193E+03  0.77544016255E+02 0.  0.
          4    1    4    4  502    0  0.43028151173E+02 -0.39934438902E+02  0.32318665366E+02  0.67012516255E+02  0.00000000000E+00 0. -1.
         -3    1    4    4    0  502  0.12778921829E+02 -0.49519497976E+02 -0.38580009725E+02  0.64061678664E+02  0.00000000000E+00 0.  1.
          5    1    3    3  503    0 -0.46525360209E+02 -0.12429703788E+02  0.62514854447E+02  0.79052537628E+02  0.47000000000E+01 0. -1.
         13    1    6    6    0    0 -0.18018012404E+02 -0.46884189348E+02 -0.11436173495E+03  0.12490549388E+03  0.00000000000E+00 0. -1.
        -14    1    6    6    0    0  0.15359371923E+02  0.25650259546E+02 -0.83002080673E+02  0.88222398045E+02  0.00000000000E+00 0.  1.
         -5    1    5    5    0  501 -0.66230723120E+01  0.12311757047E+03 -0.22366911333E+03  0.25544424735E+03  0.47000000000E+01 0.  1.
<mgrwt>
<rscale>  2 0.20404623E+03</rscale>
<asrwt>0</asrwt>
<pdfrwt beam="2">  1        2 0.80267561E-01 0.20404623E+03</pdfrwt>
<pdfrwt beam="1">  1       -2 0.24147650E-01 0.20404623E+03</pdfrwt>
<totfact> 0.89791756E+02</totfact>
</mgrwt>
</event>
<event>
12    1  0.5759937E-002  0.1916464E+03  0.7546771E-02  0.1156985E+00
         -1   -1    0    0    0  501 -0.00000000000E+00  0.00000000000E+00  0.11543714873E+03  0.11543714873E+03  0.00000000000E+00 0. -1.
          1   -1    0    0  503    0  0.00000000000E+00 -0.00000000000E+00 -0.34269047640E+03  0.34269047640E+03  0.00000000000E+00 0.  1.
          6    2    1    2  503    0  0.33636303458E+02 -0.73160943298E+02 -0.17415722432E+03  0.25798721140E+03  0.17246083013E+03 0.  0.
         24    2    3    3    0    0  0.48440696388E+02  0.22621571461E+02 -0.86180263310E+02  0.12700822128E+03  0.76457922593E+02 0.  0.
         -6    2    1    2    0  501 -0.33636303458E+02  0.73160943298E+02 -0.53096103353E+02  0.20014041374E+03  0.17536551680E+03 0.  0.
        -24    2    5    5    0    0  0.32004767690E+02  0.52964349505E+02  0.81227351676E+01  0.10801827301E+03  0.88161448511E+02 0.  0.
          4    1    4    4  502    0  0.61777953413E+02 -0.24344987181E+01 -0.42905668605E+02  0.75255157368E+02  0.00000000000E+00 0. -1.
         -3    1    4    4    0  502 -0.13337257025E+02  0.25056070180E+02 -0.43274594705E+02  0.51753063916E+02  0.00000000000E+00 0.  1.
          5    1    3    3  503    0 -0.14804392930E+02 -0.95782514759E+02 -0.87976961005E+02  0.13097899011E+03  0.47000000000E+01 0. -1.
         13    1    6    6    0    0 -0.13798161916E+02  0.41847649382E+02  0.32691335675E+02  0.54866551370E+02  0.00000000000E+00 0. -1.
        -14    1    6    6    0    0  0.45802929606E+02  0.11116700123E+02 -0.24568600507E+02  0.53151721637E+02  0.00000000000E+00 0.  1.
         -5    1    5    5    0  501 -0.65641071149E+02  0.20196593793E+02 -0.61218838521E+02  0.92122140728E+02  0.47000000000E+01 0.  1.
<mgrwt>
<rscale>  2 0.19164642E+03</rscale>
<asrwt>0</asrwt>
<pdfrwt beam="2">  1        1 0.52721610E-01 0.19164642E+03</pdfrwt>
<pdfrwt beam="1">  1       -1 0.17759562E-01 0.19164642E+03</pdfrwt>
<totfact> 0.17933568E+03</totfact>
</mgrwt>
</event>
<event>
12    1  0.5759937E-002  0.2199998E+03  0.7546771E-02  0.1133883E+00
         -1   -1    0    0    0  501 -0.00000000000E+00  0.00000000000E+00  0.29035721141E+02  0.29035721141E+02  0.00000000000E+00 0.  1.
          1   -1    0    0  503    0  0.00000000000E+00 -0.00000000000E+00 -0.21303191582E+04  0.21303191582E+04  0.00000000000E+00 0. -1.
          6    2    1    2  503    0 -0.35941614167E+02 -0.13190361533E+03 -0.54657332127E+03  0.58913737128E+03  0.17219199558E+03 0.  0.
         24    2    3    3    0    0 -0.89978932638E+02 -0.10293998208E+03 -0.40517419672E+03  0.43494681948E+03  0.79496904730E+02 0.  0.
         -6    2    1    2    0  501  0.35941614167E+02  0.13190361533E+03 -0.15547101157E+04  0.15702175080E+04  0.17253728622E+03 0.  0.
        -24    2    5    5    0    0 -0.11740654310E+02  0.11269948057E+03 -0.14051309603E+04  0.14119822046E+04  0.80384790286E+02 0.  0.
          4    1    4    4  502    0 -0.78629939816E+02 -0.58740694947E+02 -0.17830082221E+03  0.20352965356E+03  0.00000000000E+00 0. -1.
         -3    1    4    4    0  502 -0.11348992822E+02 -0.44199287130E+02 -0.22687337451E+03  0.23141716592E+03  0.00000000000E+00 0.  1.
          5    1    3    3  503    0  0.54037318470E+02 -0.28963633249E+02 -0.14139912455E+03  0.15419055179E+03  0.47000000000E+01 0. -1.
         11    1    6    6    0    0  0.76572046908E+01  0.96401922880E+02 -0.73019662176E+03  0.73657251507E+03  0.00000000000E+00 0. -1.
        -12    1    6    6    0    0 -0.19397859001E+02  0.16297557686E+02 -0.67493433854E+03  0.67540968949E+03  0.00000000000E+00 0.  1.
         -5    1    5    5    0  501  0.47682268478E+02  0.19204134760E+02 -0.14957915545E+03  0.15823530347E+03  0.47000000000E+01 0.  1.
<mgrwt>
<rscale>  2 0.21999983E+03</rscale>
<asrwt>0</asrwt>
<pdfrwt beam="2">  1        1 0.32774134E+00 0.21999983E+03</pdfrwt>
<pdfrwt beam="1">  1       -1 0.44670350E-02 0.21999983E+03</pdfrwt>
<totfact> 0.58297738E+02</totfact>
</mgrwt>
</event>
<event>
12    1  0.5759937E-002  0.1885242E+03  0.7546771E-02  0.1159799E+00
         -2   -1    0    0    0  501 -0.00000000000E+00  0.00000000000E+00  0.42496772852E+02  0.42496772852E+02  0.00000000000E+00 0. -1.
          2   -1    0    0  503    0  0.00000000000E+00 -0.00000000000E+00 -0.84337726471E+03  0.84337726471E+03  0.00000000000E+00 0.  1.
          6    2    1    2  503    0 -0.23963608134E+02 -0.72014521074E+02 -0.35926090936E+03  0.40556697663E+03  0.17220866929E+03 0.  0.
         24    2    3    3    0    0 -0.79706069071E+02 -0.45051023265E+02 -0.27496941027E+03  0.30087027667E+03  0.80821374961E+02 0.  0.
         -6    2    1    2    0  501  0.23963608134E+02  0.72014521074E+02 -0.44161958250E+03  0.48030706093E+03  0.17293545436E+03 0.  0.
        -24    2    5    5    0    0  0.98525797665E+01  0.70087957225E+01 -0.82623578770E+02  0.11516998237E+03  0.79317542349E+02 0.  0.
          2    1    4    4  502    0 -0.72225525356E+02  0.32675795030E+01 -0.14542325530E+03  0.16240420798E+03  0.00000000000E+00 0. -1.
         -1    1    4    4    0  502 -0.74805437148E+01 -0.48318602768E+02 -0.12954615498E+03  0.13846606869E+03  0.00000000000E+00 0.  1.
          5    1    3    3  503    0  0.55742460937E+02 -0.26963497809E+02 -0.84291499091E+02  0.10469669997E+03  0.47000000000E+01 0. -1.
         13    1    6    6    0    0  0.28856780987E+02  0.53491328186E+01 -0.90040147398E+02  0.94702456010E+02  0.00000000000E+00 0. -1.
        -14    1    6    6    0    0 -0.19004201221E+02  0.16596629038E+01  0.74165686284E+01  0.20467526358E+02  0.00000000000E+00 0.  1.
         -5    1    5    5    0  501  0.14111028367E+02  0.65005725352E+02 -0.35899600373E+03  0.36513707856E+03  0.47000000000E+01 0.  1.
<mgrwt>
<rscale>  2 0.18852420E+03</rscale>
<asrwt>0</asrwt>
<pdfrwt beam="2">  1        2 0.12975035E+00 0.18852420E+03</pdfrwt>
<pdfrwt beam="1">  1       -2 0.65379650E-02 0.18852420E+03</pdfrwt>
<totfact> 0.42362322E+03</totfact>
</mgrwt>
</event>
<event>
12    1  0.5759937E-002  0.1868136E+03  0.7546771E-02  0.1161367E+00
          2   -1    0    0  503    0  0.00000000000E+00  0.00000000000E+00  0.99890058849E+03  0.99890058849E+03  0.00000000000E+00 0.  1.
         -2   -1    0    0    0  501 -0.00000000000E+00 -0.00000000000E+00 -0.44595954088E+02  0.44595954088E+02  0.00000000000E+00 0. -1.
          6    2    1    2  503    0  0.68315325410E+02 -0.16420686162E+02  0.72056456375E+03  0.74446358764E+03  0.17342468155E+03 0.  0.
         24    2    3    3    0    0 -0.20815249776E+02 -0.15489479965E+02  0.21006905770E+03  0.22622341332E+03  0.79842501964E+02 0.  0.
         -6    2    1    2    0  501 -0.68315325410E+02  0.16420686162E+02  0.23374007065E+03  0.29903295494E+03  0.17277055563E+03 0.  0.
        -24    2    5    5    0    0  0.15387134438E+02 -0.70054171362E+01  0.50852955650E+02  0.96487476258E+02  0.80236962809E+02 0.  0.
          4    1    4    4  502    0 -0.21000888441E+01  0.18724137738E+01 -0.70593803717E+01  0.75994182492E+01  0.00000000000E+00 0. -1.
         -3    1    4    4    0  502 -0.18715160932E+02 -0.17361893738E+02  0.21712843807E+03  0.21862399507E+03  0.00000000000E+00 0.  1.
          5    1    3    3  503    0  0.89130575186E+02 -0.93120619783E+00  0.51049550606E+03  0.51824017432E+03  0.47000000000E+01 0. -1.
         13    1    6    6    0    0  0.11732869968E+02  0.26635900590E+02  0.55167275767E+02  0.62374351728E+02  0.00000000000E+00 0. -1.
        -14    1    6    6    0    0  0.36542644703E+01 -0.33641317726E+02 -0.43143201167E+01  0.34113124530E+02  0.00000000000E+00 0.  1.
         -5    1    5    5    0  501 -0.83702459848E+02  0.23426103299E+02  0.18288711500E+03  0.20254547868E+03  0.47000000000E+01 0.  1.
<mgrwt>
<rscale>  2 0.18681363E+03</rscale>
<asrwt>0</asrwt>
<pdfrwt beam="1">  1        2 0.15367700E+00 0.18681363E+03</pdfrwt>
<pdfrwt beam="2">  1       -2 0.68609168E-02 0.18681363E+03</pdfrwt>
<totfact> 0.31354587E+03</totfact>
</mgrwt>
</event>
<event>
12    1  0.5759937E-002  0.1774615E+03  0.7546771E-02  0.1170283E+00
          2   -1    0    0  503    0  0.00000000000E+00  0.00000000000E+00  0.47396332223E+03  0.47396332223E+03  0.00000000000E+00 0.  1.
         -2   -1    0    0    0  501 -0.00000000000E+00 -0.00000000000E+00 -0.10022121410E+03  0.10022121410E+03  0.00000000000E+00 0. -1.
          6    2    1    2  503    0 -0.30988112052E+02  0.15081243686E+02  0.19854833153E+02  0.17806776159E+03  0.17356902465E+03 0.  0.
         24    2    3    3    0    0  0.46921787489E+02 -0.58784960500E+01 -0.51676979434E+01  0.93465869186E+02  0.80454662660E+02 0.  0.
         -6    2    1    2    0  501  0.30988112052E+02 -0.15081243686E+02  0.35388727498E+03  0.39611677473E+03  0.17459836435E+03 0.  0.
        -24    2    5    5    0    0 -0.39024079918E+02 -0.10219774703E+02  0.11145584108E+03  0.14368771332E+03  0.81218420563E+02 0.  0.
          2    1    4    4  502    0  0.62467144280E+02  0.13069456921E+02 -0.17293758747E+02  0.66121319635E+02  0.00000000000E+00 0. -1.
         -1    1    4    4    0  502 -0.15545356791E+02 -0.18947952971E+02  0.12126060803E+02  0.27344549551E+02  0.00000000000E+00 0.  1.
          5    1    3    3  503    0 -0.77909899540E+02  0.20959739736E+02  0.25022531096E+02  0.84601892406E+02  0.47000000000E+01 0. -1.
         11    1    6    6    0    0 -0.12326083673E+02 -0.38227367657E+02  0.21045122234E+02  0.45344913128E+02  0.00000000000E+00 0. -1.
        -12    1    6    6    0    0 -0.26697996244E+02  0.28007592954E+02  0.90410718850E+02  0.98342800192E+02  0.00000000000E+00 0.  1.
         -5    1    5    5    0  501  0.70012191969E+02 -0.48614689838E+01  0.24243143390E+03  0.25242906141E+03  0.47000000000E+01 0.  1.
<mgrwt>
<rscale>  2 0.17746153E+03</rscale>
<asrwt>0</asrwt>
<pdfrwt beam="1">  1        2 0.72917433E-01 0.17746153E+03</pdfrwt>
<pdfrwt beam="2">  1       -2 0.15418649E-01 0.17746153E+03</pdfrwt>
<totfact> 0.21351749E+03</totfact>
</mgrwt>
</event>
<event>
12    1  0.5759937E-002  0.2334381E+03  0.7546771E-02  0.1124243E+00
         -2   -1    0    0    0  501 -0.00000000000E+00  0.00000000000E+00  0.68571041726E+02  0.68571041726E+02  0.00000000000E+00 0.  1.
          2   -1    0    0  503    0  0.00000000000E+00 -0.00000000000E+00 -0.23834942482E+04  0.23834942482E+04  0.00000000000E+00 0. -1.
          6    2    1    2  503    0  0.41200366836E+02  0.15058380271E+03 -0.21591129374E+04  0.21717389301E+04  0.17409294142E+03 0.  0.
         24    2    3    3    0    0  0.80699101704E+02  0.47662360795E+02 -0.11170336087E+04  0.11238341679E+04  0.80343689432E+02 0.  0.
         -6    2    1    2    0  501 -0.41200366836E+02 -0.15058380271E+03 -0.15581026905E+03  0.28032635979E+03  0.17301178048E+03 0.  0.
        -24    2    5    5    0    0 -0.47508658547E+02 -0.78191179070E+02 -0.17954374100E+02  0.12441989977E+03  0.82383364758E+02 0.  0.
          4    1    4    4  502    0  0.46747652300E+02  0.23429319674E+01 -0.21553070075E+03  0.22055456307E+03  0.00000000000E+00 0. -1.
         -3    1    4    4    0  502  0.33951449404E+02  0.45319428828E+02 -0.90150290792E+03  0.90327960484E+03  0.00000000000E+00 0.  1.
          5    1    3    3  503    0 -0.39498734868E+02  0.10292144192E+03 -0.10420793287E+04  0.10479047622E+04  0.47000000000E+01 0. -1.
         13    1    6    6    0    0 -0.49890026157E+02 -0.87646383360E+02  0.34387747166E+01  0.10090950598E+03  0.00000000000E+00 0. -1.
        -14    1    6    6    0    0  0.23813676104E+01  0.94552042902E+01 -0.21393148817E+02  0.23510393790E+02  0.00000000000E+00 0.  1.
         -5    1    5    5    0  501  0.63082917103E+01 -0.72392623645E+02 -0.13785589495E+03  0.15590646002E+03  0.47000000000E+01 0.  1.
<mgrwt>
<rscale>  2 0.23343809E+03</rscale>
<asrwt>0</asrwt>
<pdfrwt beam="2">  1        2 0.36669141E+00 0.23343809E+03</pdfrwt>
<pdfrwt beam="1">  1       -2 0.10549391E-01 0.23343809E+03</pdfrwt>
<totfact> 0.28618957E+02</totfact>
</mgrwt>
</event>
<event>
12    1  0.5759937E-002  0.2318933E+03  0.7546771E-02  0.1125314E+00
         -1   -1    0    0    0  501 -0.00000000000E+00  0.00000000000E+00  0.24517354837E+02  0.24517354837E+02  0.00000000000E+00 0. -1.
          1   -1    0    0  503    0  0.00000000000E+00 -0.00000000000E+00 -0.22476686958E+04  0.22476686958E+04  0.00000000000E+00 0.  1.
          6    2    1    2  503    0  0.34998094229E+02  0.15006082694E+03 -0.93633662538E+03  0.96469730210E+03  0.17369942504E+03 0.  0.
         24    2    3    3    0    0  0.14777037824E+02  0.36980448612E+02 -0.64829600956E+03  0.65455934981E+03  0.81082131118E+02 0.  0.
         -6    2    1    2    0  501 -0.34998094229E+02 -0.15006082694E+03 -0.12868147155E+04  0.13074887485E+04  0.17289186485E+03 0.  0.
        -24    2    5    5    0    0 -0.53352725590E+02 -0.14441070583E+03 -0.12691612488E+04  0.12809830652E+04  0.80289304978E+02 0.  0.
          4    1    4    4  502    0 -0.21616203022E+02 -0.15339651537E+02 -0.20440052042E+03  0.20611195475E+03  0.00000000000E+00 0. -1.
         -3    1    4    4    0  502  0.36393240846E+02  0.52320100149E+02 -0.44389548914E+03  0.44844739506E+03  0.00000000000E+00 0.  1.
          5    1    3    3  503    0  0.20221056406E+02  0.11308037833E+03 -0.28804061582E+03  0.31013795229E+03  0.47000000000E+01 0. -1.
         13    1    6    6    0    0 -0.53375963196E+02 -0.39923021720E+02 -0.60372347604E+03  0.60739186415E+03  0.00000000000E+00 0. -1.
        -14    1    6    6    0    0  0.23237605787E-01 -0.10448768411E+03 -0.66543777276E+03  0.67359120102E+03  0.00000000000E+00 0.  1.
         -5    1    5    5    0  501  0.18354631361E+02 -0.56501211108E+01 -0.17653466737E+02  0.26505683330E+02  0.47000000000E+01 0.  1.
<mgrwt>
<rscale>  2 0.23189325E+03</rscale>
<asrwt>0</asrwt>
<pdfrwt beam="2">  1        1 0.34579516E+00 0.23189325E+03</pdfrwt>
<pdfrwt beam="1">  1       -1 0.37719010E-02 0.23189325E+03</pdfrwt>
<totfact> 0.62783507E+02</totfact>
</mgrwt>
</event>
<event>
12    1  0.5759937E-002  0.3219529E+03  0.7546771E-02  0.1074754E+00
         -2   -1    0    0    0  501 -0.00000000000E+00  0.00000000000E+00  0.35345831959E+02  0.35345831959E+02  0.00000000000E+00 0. -1.
          2   -1    0    0  503    0  0.00000000000E+00 -0.00000000000E+00 -0.32617891685E+04  0.32617891685E+04  0.00000000000E+00 0.  1.
          6    2    1    2  503    0  0.19003197176E+02  0.27317674141E+03 -0.10981089487E+04  0.11448698105E+04  0.17290739252E+03 0.  0.
         24    2    3    3    0    0  0.73678240835E+02  0.22764448708E+03 -0.89523894261E+03  0.92983289291E+03  0.76719936847E+02 0.  0.
         -6    2    1    2    0  501 -0.19003197176E+02 -0.27317674141E+03 -0.21283343879E+04  0.21522651899E+04  0.16568502524E+03 0.  0.
        -24    2    5    5    0    0  0.31195552593E+02 -0.24351933686E+03 -0.16885437808E+04  0.17086016415E+04  0.88682804123E+02 0.  0.
          2    1    4    4  502    0  0.44679052351E+02  0.21301039096E+03 -0.74605306243E+03  0.77715173315E+03  0.00000000000E+00 0. -1.
         -1    1    4    4    0  502  0.28999188484E+02  0.14634096117E+02 -0.14918588018E+03  0.15268115976E+03  0.00000000000E+00 0.  1.
          5    1    3    3  503    0 -0.54675043659E+02  0.45532254328E+02 -0.20287000606E+03  0.21503691762E+03  0.47000000000E+01 0. -1.
         11    1    6    6    0    0  0.38419153998E+01 -0.33135383238E+02 -0.88930382848E+02  0.94980666084E+02  0.00000000000E+00 0. -1.
        -12    1    6    6    0    0  0.27353637194E+02 -0.21038395362E+03 -0.15996133980E+04  0.16136209754E+04  0.00000000000E+00 0.  1.
         -5    1    5    5    0  501 -0.50198749769E+02 -0.29657404548E+02 -0.43979060706E+03  0.44366354840E+03  0.47000000000E+01 0.  1.
<mgrwt>
<rscale>  2 0.32195293E+03</rscale>
<asrwt>0</asrwt>
<pdfrwt beam="2">  1        2 0.50181375E+00 0.32195293E+03</pdfrwt>
<pdfrwt beam="1">  1       -2 0.54378199E-02 0.32195293E+03</pdfrwt>
<totfact> 0.24508915E+02</totfact>
</mgrwt>
</event>
<event>
12    1  0.5759937E-002  0.2081666E+03  0.7546771E-02  0.1143026E+00
          2   -1    0    0  503    0  0.00000000000E+00  0.00000000000E+00  0.22045289008E+03  0.22045289008E+03  0.00000000000E+00 0. -1.
         -2   -1    0    0    0  501 -0.00000000000E+00 -0.00000000000E+00 -0.22095050024E+03  0.22095050024E+03  0.00000000000E+00 0.  1.
          6    2    1    2  503    0 -0.68575323581E+01  0.11395824590E+03 -0.73551991900E+02  0.22226932314E+03  0.17595524697E+03 0.  0.
         24    2    3    3    0    0 -0.21433617379E+02  0.50001520455E+02 -0.11100201206E+03  0.14658894923E+03  0.78786555657E+02 0.  0.
         -6    2    1    2    0  501  0.68575323581E+01 -0.11395824590E+03  0.73054381744E+02  0.21913406718E+03  0.17218968944E+03 0.  0.
        -24    2    5    5    0    0 -0.42696248528E+02 -0.12138057294E+03  0.74813657895E+02  0.16877681159E+03  0.79575848063E+02 0.  0.
          2    1    4    4  502    0  0.80593459797E+01  0.62994294312E+02 -0.74526908983E+02  0.97915751216E+02  0.00000000000E+00 0. -1.
         -1    1    4    4    0  502 -0.29492963359E+02 -0.12992773857E+02 -0.36475103078E+02  0.48673198013E+02  0.00000000000E+00 0.  1.
          5    1    3    3  503    0  0.14576085021E+02  0.63956725450E+02  0.37450020161E+02  0.75680373908E+02  0.47000000000E+01 0. -1.
         11    1    6    6    0    0 -0.17377065790E+02 -0.10693152019E+03  0.85206559754E+02  0.13782768318E+03  0.00000000000E+00 0. -1.
        -12    1    6    6    0    0 -0.25319182737E+02 -0.14449052752E+02 -0.10392901859E+02  0.30949128404E+02  0.00000000000E+00 0.  1.
         -5    1    5    5    0  501  0.49553780886E+02  0.74223270387E+01 -0.17592761501E+01  0.50357255598E+02  0.47000000000E+01 0.  1.
<mgrwt>
<rscale>  2 0.20816657E+03</rscale>
<asrwt>0</asrwt>
<pdfrwt beam="1">  1        2 0.33915829E-01 0.20816657E+03</pdfrwt>
<pdfrwt beam="2">  1       -2 0.33992385E-01 0.20816657E+03</pdfrwt>
<totfact> 0.12355749E+03</totfact>
</mgrwt>
</event>
<event>
12    1  0.5759937E-002  0.2143372E+03  0.7546771E-02  0.1138177E+00
          3   -1    0    0  503    0  0.00000000000E+00  0.00000000000E+00  0.18275822174E+02  0.18275822174E+02  0.00000000000E+00 0. -1.
         -3   -1    0    0    0  501 -0.00000000000E+00 -0.00000000000E+00 -0.25303334715E+04  0.25303334715E+04  0.00000000000E+00 0.  1.
          6    2    1    2  503    0 -0.49363470754E+02  0.11640274522E+03 -0.13628585577E+04  0.13797080490E+04  0.17385195085E+03 0.  0.
         24    2    3    3    0    0 -0.98918084296E+02  0.68801691735E+02 -0.97737193519E+03  0.98811700447E+03  0.81245643794E+02 0.  0.
         -6    2    1    2    0  501  0.49363470754E+02 -0.11640274522E+03 -0.11491990917E+04  0.11689012447E+04  0.17229398216E+03 0.  0.
        -24    2    5    5    0    0  0.63610823981E+02 -0.43909773512E+02 -0.39483834984E+03  0.41091678787E+03  0.83551654153E+02 0.  0.
          2    1    4    4  502    0 -0.62848117166E+01  0.44393938944E+02 -0.43950024105E+03  0.44178137417E+03  0.00000000000E+00 0. -1.
         -1    1    4    4    0  502 -0.92633272580E+02  0.24407752791E+02 -0.53787169413E+03  0.54633563030E+03  0.00000000000E+00 0.  1.
          5    1    3    3  503    0  0.49554613542E+02  0.47601053487E+02 -0.38548662251E+03  0.39159104452E+03  0.47000000000E+01 0. -1.
         13    1    6    6    0    0  0.13694004099E+02 -0.55281053701E+02 -0.14292851607E+03  0.15385734091E+03  0.00000000000E+00 0. -1.
        -14    1    6    6    0    0  0.49916819882E+02  0.11371280189E+02 -0.25190983378E+03  0.25705944696E+03  0.00000000000E+00 0.  1.
         -5    1    5    5    0  501 -0.14247353227E+02 -0.72492971710E+02 -0.75436074183E+03  0.75798445685E+03  0.47000000000E+01 0.  1.
<mgrwt>
<rscale>  2 0.21433716E+03</rscale>
<asrwt>0</asrwt>
<pdfrwt beam="1">  1        3 0.28116649E-02 0.21433716E+03</pdfrwt>
<pdfrwt beam="2">  1       -3 0.38928208E+00 0.21433716E+03</pdfrwt>
<totfact> 0.20671144E+01</totfact>
</mgrwt>
</event>
<event>
12    1  0.5759937E-002  0.2370842E+03  0.7546771E-02  0.1121751E+00
          2   -1    0    0  503    0  0.00000000000E+00  0.00000000000E+00  0.93438934904E+03  0.93438934904E+03  0.00000000000E+00 0.  1.
         -2   -1    0    0    0  501 -0.00000000000E+00 -0.00000000000E+00 -0.60453972993E+02  0.60453972993E+02  0.00000000000E+00 0. -1.
          6    2    1    2  503    0 -0.15740083465E+03  0.16414584974E+02  0.46680432705E+03  0.52241421741E+03  0.17310653788E+03 0.  0.
         24    2    3    3    0    0 -0.17120448185E+03  0.23608265521E+02  0.46863733983E+03  0.50605146544E+03  0.81233026463E+02 0.  0.
         -6    2    1    2    0  501  0.15740083465E+03 -0.16414584974E+02  0.40713104900E+03  0.47242910462E+03  0.17996973770E+03 0.  0.
        -24    2    5    5    0    0  0.12305973274E+03  0.48145847635E+02  0.20183199622E+03  0.25444481204E+03  0.80896768848E+02 0.  0.
          4    1    4    4  502    0 -0.25231791123E+02 -0.10895442085E+02  0.22966524745E+02  0.35816409652E+02  0.00000000000E+00 0. -1.
         -3    1    4    4    0  502 -0.14597269073E+03  0.34503707606E+02  0.44567081508E+03  0.47023505579E+03  0.00000000000E+00 0.  1.
          5    1    3    3  503    0  0.13803647208E+02 -0.71936805473E+01 -0.18330127825E+01  0.16362751966E+02  0.47000000000E+01 0. -1.
         11    1    6    6    0    0  0.39268912495E+02  0.55712601978E+02  0.11397750370E+03  0.13280366282E+03  0.00000000000E+00 0. -1.
        -12    1    6    6    0    0  0.83790820249E+02 -0.75667543426E+01  0.87854492514E+02  0.12164114922E+03  0.00000000000E+00 0.  1.
         -5    1    5    5    0  501  0.34341101904E+02 -0.64560432608E+02  0.20529905278E+03  0.21798429258E+03  0.47000000000E+01 0.  1.
<mgrwt>
<rscale>  2 0.23708415E+03</rscale>
<asrwt>0</asrwt>
<pdfrwt beam="1">  1        2 0.14375220E+00 0.23708415E+03</pdfrwt>
<pdfrwt beam="2">  1       -2 0.93006119E-02 0.23708415E+03</pdfrwt>
<totfact> 0.21458324E+03</totfact>
</mgrwt>
</event>
<event>
12    1  0.5759937E-002  0.2539156E+03  0.7546771E-02  0.1110855E+00
         -1   -1    0    0    0  501 -0.00000000000E+00  0.00000000000E+00  0.93291217959E+02  0.93291217959E+02  0.00000000000E+00 0.  1.
          1   -1    0    0  503    0  0.00000000000E+00 -0.00000000000E+00 -0.87689594498E+03  0.87689594498E+03  0.00000000000E+00 0. -1.
          6    2    1    2  503    0  0.17867206454E+03  0.55101312675E+02 -0.61561907522E+03  0.66609287120E+03  0.17243261290E+03 0.  0.
         24    2    3    3    0    0  0.10949305503E+03  0.18609077782E+02 -0.20403866901E+03  0.24712039080E+03  0.84271479287E+02 0.  0.
         -6    2    1    2    0  501 -0.17867206454E+03 -0.55101312675E+02 -0.16798565180E+03  0.30409429173E+03  0.17115577042E+03 0.  0.
        -24    2    5    5    0    0 -0.74118345595E+02  0.29068791513E+02 -0.80748584491E+02  0.14394285559E+03  0.88660521008E+02 0.  0.
          4    1    4    4  502    0 -0.39168414937E+01  0.17502237060E+02 -0.60133378513E+01  0.18916399803E+02  0.00000000000E+00 0. -1.
         -3    1    4    4    0  502  0.11340989652E+03  0.11068407225E+01 -0.19802533116E+03  0.22820399099E+03  0.00000000000E+00 0.  1.
          5    1    3    3  503    0  0.69179009516E+02  0.36492234893E+02 -0.41158040621E+03  0.41897248041E+03  0.47000000000E+01 0. -1.
         13    1    6    6    0    0 -0.58589229597E+02  0.38618462375E+02 -0.96863969941E+02  0.11961066898E+03  0.00000000000E+00 0. -1.
        -14    1    6    6    0    0 -0.15529115999E+02 -0.95496708622E+01  0.16115385449E+02  0.24332186615E+02  0.00000000000E+00 0.  1.
         -5    1    5    5    0  501 -0.10455371895E+03 -0.84170104188E+02 -0.87237067307E+02  0.16015143614E+03  0.47000000000E+01 0.  1.
<mgrwt>
<rscale>  2 0.25391562E+03</rscale>
<asrwt>0</asrwt>
<pdfrwt beam="2">  1        1 0.13490707E+00 0.25391562E+03</pdfrwt>
<pdfrwt beam="1">  1       -1 0.14352495E-01 0.25391562E+03</pdfrwt>
<totfact> 0.69015861E+02</totfact>
</mgrwt>
</event>
<event>
12    1  0.5759937E-002  0.1938302E+03  0.7546771E-02  0.1155051E+00
         -1   -1    0    0    0  501 -0.00000000000E+00  0.00000000000E+00  0.12889871845E+03  0.12889871845E+03  0.00000000000E+00 0.  1.
          1   -1    0    0  503    0  0.00000000000E+00 -0.00000000000E+00 -0.31924969363E+03  0.31924969363E+03  0.00000000000E+00 0. -1.
          6    2    1    2  503    0  0.87736780921E+02  0.10512513524E+02 -0.16079894939E+03  0.25105278593E+03  0.17135618906E+03 0.  0.
         24    2    3    3    0    0  0.57396083724E+02 -0.15730663229E+02 -0.15330281968E+02  0.10008098249E+03  0.78990007708E+02 0.  0.
         -6    2    1    2    0  501 -0.87736780921E+02 -0.10512513524E+02 -0.29552025790E+02  0.19709562615E+03  0.17368105236E+03 0.  0.
        -24    2    5    5    0    0 -0.56231758388E+02 -0.13919913950E+02 -0.83090155107E+02  0.13470493683E+03  0.88801303338E+02 0.  0.
          2    1    4    4  502    0  0.39665289198E+02 -0.47141119269E+02 -0.20442680562E+01  0.61642512319E+02  0.00000000000E+00 0. -1.
         -1    1    4    4    0  502  0.17730794526E+02  0.31410456040E+02 -0.13286013912E+02  0.38438470168E+02  0.00000000000E+00 0.  1.
          5    1    3    3  503    0  0.30340697197E+02  0.26243176753E+02 -0.14546866742E+03  0.15097180344E+03  0.47000000000E+01 0. -1.
         13    1    6    6    0    0  0.90744575446E+00  0.13987676664E+02  0.13238146867E+02  0.19280225328E+02  0.00000000000E+00 0. -1.
        -14    1    6    6    0    0 -0.57139204143E+02 -0.27907590614E+02 -0.96328301974E+02  0.11542471150E+03  0.00000000000E+00 0.  1.
         -5    1    5    5    0  501 -0.31505022533E+02  0.34074004269E+01  0.53538129318E+02  0.62390689316E+02  0.47000000000E+01 0.  1.
<mgrwt>
<rscale>  2 0.19383018E+03</rscale>
<asrwt>0</asrwt>
<pdfrwt beam="2">  1        1 0.49115337E-01 0.19383018E+03</pdfrwt>
<pdfrwt beam="1">  1       -1 0.19830572E-01 0.19383018E+03</pdfrwt>
<totfact> 0.16418624E+03</totfact>
</mgrwt>
</event>
<event>
12    1  0.5759937E-002  0.1914845E+03  0.7546771E-02  0.1157129E+00
          2   -1    0    0  503    0  0.00000000000E+00  0.00000000000E+00  0.26583696601E+03  0.26583696601E+03  0.00000000000E+00 0.  1.
         -2   -1    0    0    0  501 -0.00000000000E+00 -0.00000000000E+00 -0.14485634179E+03  0.14485634179E+03  0.00000000000E+00 0. -1.
          6    2    1    2  503    0  0.30196490327E+02  0.72968971241E+02  0.15285400678E+02  0.19107228831E+03  0.17331669594E+03 0.  0.
         24    2    3    3    0    0 -0.70961682766E+01  0.10035230801E+03  0.44470155670E+02  0.13616846838E+03  0.80270266663E+02 0.  0.
         -6    2    1    2    0  501 -0.30196490327E+02 -0.72968971241E+02  0.10569522355E+03  0.21962101949E+03  0.17557224476E+03 0.  0.
        -24    2    5    5    0    0 -0.57150070466E+02 -0.11281061204E+03  0.89944319125E+02  0.16878763662E+03  0.66384644232E+02 0.  0.
          4    1    4    4  502    0  0.14479199038E+02 -0.46670995031E+01  0.21803068127E+02  0.26585763151E+02  0.00000000000E+00 0. -1.
         -3    1    4    4    0  502 -0.21575367315E+02  0.10501940751E+03  0.22667087542E+02  0.10958270523E+03  0.00000000000E+00 0.  1.
          5    1    3    3  503    0  0.37292658604E+02 -0.27383336766E+02 -0.29184754992E+02  0.54903819923E+02  0.47000000000E+01 0. -1.
         13    1    6    6    0    0 -0.16042617335E+02 -0.66117498876E+01 -0.75061467223E+01  0.18905635301E+02  0.00000000000E+00 0. -1.
        -14    1    6    6    0    0 -0.41107453131E+02 -0.10619886216E+03  0.97450465848E+02  0.14988200132E+03  0.00000000000E+00 0.  1.
         -5    1    5    5    0  501  0.26953580139E+02  0.39841640803E+02  0.15750904422E+02  0.50833382872E+02  0.47000000000E+01 0.  1.
<mgrwt>
<rscale>  2 0.19148455E+03</rscale>
<asrwt>0</asrwt>
<pdfrwt beam="1">  1        2 0.40897995E-01 0.19148455E+03</pdfrwt>
<pdfrwt beam="2">  1       -2 0.22285591E-01 0.19148455E+03</pdfrwt>
<totfact> 0.21431816E+03</totfact>
</mgrwt>
</event>
<event>
12    1  0.5759937E-002  0.1892512E+03  0.7546771E-02  0.1159138E+00
         -4   -1    0    0    0  501 -0.00000000000E+00  0.00000000000E+00  0.18754009551E+03  0.18754009551E+03  0.00000000000E+00 0. -1.
          4   -1    0    0  503    0  0.00000000000E+00 -0.00000000000E+00 -0.19944547495E+03  0.19944547495E+03  0.00000000000E+00 0.  1.
          6    2    1    2  503    0  0.71235184659E+02  0.26601383146E+02  0.33928744129E+02  0.19171906544E+03  0.17269324033E+03 0.  0.
         24    2    3    3    0    0  0.10509803546E+03  0.51424379524E+02  0.43602923896E+02  0.14837678160E+03  0.80152295533E+02 0.  0.
         -6    2    1    2    0  501 -0.71235184659E+02 -0.26601383146E+02 -0.45834123569E+02  0.19526650503E+03  0.17391422019E+03 0.  0.
        -24    2    5    5    0    0 -0.13225919969E+02 -0.68308283327E+02 -0.52848630643E+02  0.12332323834E+03  0.87032734212E+02 0.  0.
          2    1    4    4  502    0  0.53719200130E+02 -0.40704125069E+01  0.48639959511E+02  0.72582135417E+02  0.00000000000E+00 0. -1.
         -1    1    4    4    0  502  0.51378835332E+02  0.55494792031E+02 -0.50370356146E+01  0.75794646186E+02  0.00000000000E+00 0.  1.
          5    1    3    3  503    0 -0.33862850802E+02 -0.24822996378E+02 -0.96741797670E+01  0.43342283833E+02  0.47000000000E+01 0. -1.
         11    1    6    6    0    0 -0.29533994323E+02 -0.72092836378E+02 -0.11548756471E+02  0.78759175045E+02  0.00000000000E+00 0. -1.
        -12    1    6    6    0    0  0.16308074354E+02  0.37845530513E+01 -0.41299874173E+02  0.44564063298E+02  0.00000000000E+00 0.  1.
         -5    1    5    5    0  501 -0.58009264690E+02  0.41706900181E+02  0.70145070743E+01  0.71943266691E+02  0.47000000000E+01 0.  1.
<mgrwt>
<rscale>  2 0.18925120E+03</rscale>
<asrwt>0</asrwt>
<pdfrwt beam="2">  1        4 0.30683919E-01 0.18925120E+03</pdfrwt>
<pdfrwt beam="1">  1       -4 0.28852322E-01 0.18925120E+03</pdfrwt>
<totfact> 0.20561727E+02</totfact>
</mgrwt>
</event>
<event>
12    1  0.5759937E-002  0.1708169E+03  0.7546771E-02  0.1176999E+00
          2   -1    0    0  503    0  0.00000000000E+00  0.00000000000E+00  0.90166907157E+03  0.90166907157E+03  0.00000000000E+00 0.  1.
         -2   -1    0    0    0  501 -0.00000000000E+00 -0.00000000000E+00 -0.35078960707E+02  0.35078960707E+02  0.00000000000E+00 0. -1.
          6    2    1    2  503    0  0.30431125353E+02 -0.28022579962E+02  0.28865225908E+03  0.33214573652E+03  0.15902624072E+03 0.  0.
         24    2    3    3    0    0 -0.22660053787E+02 -0.86773945588E+01  0.24936990367E+03  0.26316673285E+03  0.80514627291E+02 0.  0.
         -6    2    1    2    0  501 -0.30431125353E+02  0.28022579962E+02  0.57793785178E+03  0.60460229576E+03  0.17268600736E+03 0.  0.
        -24    2    5    5    0    0  0.80498733262E+01 -0.36590345375E+02  0.17571858234E+03  0.19538591279E+03  0.76778778983E+02 0.  0.
          4    1    4    4  502    0 -0.91290477991E+01 -0.43964200484E+02  0.15885419563E+03  0.16507830236E+03  0.00000000000E+00 0. -1.
         -3    1    4    4    0  502 -0.13531005988E+02  0.35286805925E+02  0.90515708034E+02  0.98088430492E+02  0.00000000000E+00 0.  1.
          5    1    3    3  503    0  0.53091179140E+02 -0.19345185404E+02  0.39282355416E+02  0.68979003674E+02  0.47000000000E+01 0. -1.
         13    1    6    6    0    0  0.15172060973E+02 -0.29527630186E+02  0.18808103268E+02  0.38155171695E+02  0.00000000000E+00 0. -1.
        -14    1    6    6    0    0 -0.71221876465E+01 -0.70627151889E+01  0.15691047907E+03  0.15723074109E+03  0.00000000000E+00 0.  1.
         -5    1    5    5    0  501 -0.38480998680E+02  0.64612925337E+02  0.40221926944E+03  0.40921638297E+03  0.47000000000E+01 0.  1.
<mgrwt>
<rscale>  2 0.17081685E+03</rscale>
<asrwt>0</asrwt>
<pdfrwt beam="1">  1        2 0.13871830E+00 0.17081685E+03</pdfrwt>
<pdfrwt beam="2">  1       -2 0.53967639E-02 0.17081685E+03</pdfrwt>
<totfact> 0.51853679E+03</totfact>
</mgrwt>
</event>
<event>
12    1  0.5759937E-002  0.1830645E+03  0.7546771E-02  0.1164870E+00
          2   -1    0    0  503    0  0.00000000000E+00  0.00000000000E+00  0.28205688658E+04  0.28205688658E+04  0.00000000000E+00 0. -1.
         -2   -1    0    0    0  501 -0.00000000000E+00 -0.00000000000E+00 -0.12684675781E+02  0.12684675781E+02  0.00000000000E+00 0.  1.
          6    2    1    2  503    0  0.54158124632E+02  0.27023473388E+02  0.17620892837E+04  0.17715973582E+04  0.17301787496E+03 0.  0.
         24    2    3    3    0    0 -0.84312871073E+01 -0.18181890640E+02  0.13349052719E+04  0.13374669292E+04  0.80274740663E+02 0.  0.
         -6    2    1    2    0  501 -0.54158124632E+02 -0.27023473388E+02  0.10457949062E+04  0.10616561834E+04  0.17252099925E+03 0.  0.
        -24    2    5    5    0    0 -0.73351905501E+02 -0.67495193457E+01  0.10135242486E+04  0.10187269418E+04  0.71743441514E+02 0.  0.
          2    1    4    4  502    0 -0.22193288184E+02 -0.50523639233E+01  0.12593047076E+04  0.12595103871E+04  0.00000000000E+00 0. -1.
         -1    1    4    4    0  502  0.13762001076E+02 -0.13129526717E+02  0.75600564301E+02  0.77956542176E+02  0.00000000000E+00 0.  1.
          5    1    3    3  503    0  0.62589411739E+02  0.45205364028E+02  0.42718401180E+03  0.43413042894E+03  0.47000000000E+01 0. -1.
         11    1    6    6    0    0 -0.11480784266E+02 -0.23934516020E+02  0.56568447072E+03  0.56630697496E+03  0.00000000000E+00 0. -1.
        -12    1    6    6    0    0 -0.61871121234E+02  0.17184996674E+02  0.44783977789E+03  0.45241996686E+03  0.00000000000E+00 0.  1.
         -5    1    5    5    0  501  0.19193780869E+02 -0.20273954043E+02  0.32270657635E+02  0.42929241558E+02  0.47000000000E+01 0.  1.
<mgrwt>
<rscale>  2 0.18306447E+03</rscale>
<asrwt>0</asrwt>
<pdfrwt beam="1">  1        2 0.43393317E+00 0.18306447E+03</pdfrwt>
<pdfrwt beam="2">  1       -2 0.19514908E-02 0.18306447E+03</pdfrwt>
<totfact> 0.21489757E+03</totfact>
</mgrwt>
</event>
<event>
12    1  0.5759937E-002  0.2414245E+03  0.7546771E-02  0.1118847E+00
         -2   -1    0    0    0  501 -0.00000000000E+00  0.00000000000E+00  0.11530983528E+03  0.11530983528E+03  0.00000000000E+00 0.  1.
          2   -1    0    0  503    0  0.00000000000E+00 -0.00000000000E+00 -0.50640493351E+03  0.50640493351E+03  0.00000000000E+00 0. -1.
          6    2    1    2  503    0  0.16763977136E+03  0.42556957784E+01 -0.18241358373E+03  0.30279824090E+03  0.17404268233E+03 0.  0.
         24    2    3    3    0    0  0.10657230952E+03 -0.56188607878E+02 -0.15536280615E+03  0.21259522926E+03  0.80896929239E+02 0.  0.
         -6    2    1    2    0  501 -0.16763977136E+03 -0.42556957784E+01 -0.20868151449E+03  0.31891652789E+03  0.17331639675E+03 0.  0.
        -24    2    5    5    0    0 -0.62461564814E+02 -0.52992062263E+02 -0.14831094561E+03  0.18813279749E+03  0.81781459755E+02 0.  0.
          4    1    4    4  502    0  0.10120148072E+03 -0.15216898812E+02 -0.96386851022E+02  0.14058349391E+03  0.00000000000E+00 0. -1.
         -3    1    4    4    0  502  0.53708287960E+01 -0.40971709066E+02 -0.58975955124E+02  0.72011735353E+02  0.00000000000E+00 0.  1.
          5    1    3    3  503    0  0.61067461843E+02  0.60444303657E+02 -0.27050777587E+02  0.90203011638E+02  0.47000000000E+01 0. -1.
         11    1    6    6    0    0  0.90374998466E+01  0.14172716806E+02 -0.14393771478E+02  0.22129685097E+02  0.00000000000E+00 0. -1.
        -12    1    6    6    0    0 -0.71499064660E+02 -0.67164779069E+02 -0.13391717414E+03  0.16600311239E+03  0.00000000000E+00 0.  1.
         -5    1    5    5    0  501 -0.10517820655E+03  0.48736366484E+02 -0.60370568873E+02  0.13078373040E+03  0.47000000000E+01 0.  1.
<mgrwt>
<rscale>  2 0.24142448E+03</rscale>
<asrwt>0</asrwt>
<pdfrwt beam="2">  1        2 0.77908452E-01 0.24142448E+03</pdfrwt>
<pdfrwt beam="1">  1       -2 0.17739975E-01 0.24142448E+03</pdfrwt>
<totfact> 0.15802065E+03</totfact>
</mgrwt>
</event>
<event>
12    1  0.5759937E-002  0.2064952E+03  0.7546771E-02  0.1144372E+00
         -1   -1    0    0    0  501 -0.00000000000E+00  0.00000000000E+00  0.34811649357E+03  0.34811649357E+03  0.00000000000E+00 0.  1.
          1   -1    0    0  503    0  0.00000000000E+00 -0.00000000000E+00 -0.12851176598E+03  0.12851176598E+03  0.00000000000E+00 0. -1.
          6    2    1    2  503    0 -0.11064740509E+03 -0.23481853007E+02  0.16109569445E+03  0.26144172687E+03  0.17206309338E+03 0.  0.
         24    2    3    3    0    0  0.96067197610E+00  0.13510973347E+02  0.35261639268E+02  0.89159599209E+02  0.80762501421E+02 0.  0.
         -6    2    1    2    0  501  0.11064740509E+03  0.23481853007E+02  0.58509033141E+02  0.21518653268E+03  0.17345803877E+03 0.  0.
        -24    2    5    5    0    0  0.13401602869E+03  0.55155618000E+02  0.58300894043E+02  0.17554497268E+03  0.80091229509E+02 0.  0.
          4    1    4    4  502    0  0.39272391339E+02  0.70090082310E+01  0.56231947146E+01  0.40287308630E+02  0.00000000000E+00 0. -1.
         -3    1    4    4    0  502 -0.38311719363E+02  0.65019651156E+01  0.29638444553E+02  0.48872290579E+02  0.00000000000E+00 0.  1.
          5    1    3    3  503    0 -0.11160807706E+03 -0.36992826353E+02  0.12583405518E+03  0.17228212766E+03  0.47000000000E+01 0. -1.
         11    1    6    6    0    0  0.13224469926E+03  0.48223487639E+02  0.26862932355E+02  0.14330311364E+03  0.00000000000E+00 0. -1.
        -12    1    6    6    0    0  0.17713294228E+01  0.69321303608E+01  0.31437961688E+02  0.32241859040E+02  0.00000000000E+00 0.  1.
         -5    1    5    5    0  501 -0.23368623598E+02 -0.31673764993E+02  0.20813909742E+00  0.39641560004E+02  0.47000000000E+01 0.  1.
<mgrwt>
<rscale>  2 0.20649519E+03</rscale>
<asrwt>0</asrwt>
<pdfrwt beam="2">  1        1 0.19771041E-01 0.20649519E+03</pdfrwt>
<pdfrwt beam="1">  1       -1 0.53556383E-01 0.20649519E+03</pdfrwt>
<totfact> 0.93355397E+02</totfact>
</mgrwt>
</event>
<event>
12    1  0.5759937E-002  0.1927000E+03  0.7546771E-02  0.1156048E+00
         -2   -1    0    0    0  501 -0.00000000000E+00  0.00000000000E+00  0.90013741923E+02  0.90013741923E+02  0.00000000000E+00 0. -1.
          2   -1    0    0  503    0  0.00000000000E+00 -0.00000000000E+00 -0.91096741879E+03  0.91096741879E+03  0.00000000000E+00 0.  1.
          6    2    1    2  503    0 -0.58734980727E+02 -0.61554572799E+02 -0.39807180397E+02  0.19630287652E+03  0.17237007956E+03 0.  0.
         24    2    3    3    0    0 -0.53471755597E+02 -0.56427122811E+02 -0.91121074332E+02  0.14425291982E+03  0.80390334329E+02 0.  0.
         -6    2    1    2    0  501  0.58734980727E+02  0.61554572799E+02 -0.78114649647E+03  0.80467828419E+03  0.17343162545E+03 0.  0.
        -24    2    5    5    0    0  0.47017674495E+02  0.94386333124E+02 -0.73389957955E+03  0.74577513564E+03  0.80327569801E+02 0.  0.
          4    1    4    4  502    0 -0.43205293137E+02 -0.76190917407E+02 -0.60762809310E+02  0.10660146456E+03  0.00000000000E+00 0. -1.
         -3    1    4    4    0  502 -0.10266462460E+02  0.19763794596E+02 -0.30358265022E+02  0.37651455263E+02  0.00000000000E+00 0.  1.
          5    1    3    3  503    0 -0.52632251300E+01 -0.51274499884E+01  0.51313893935E+02  0.52049956704E+02  0.47000000000E+01 0. -1.
         13    1    6    6    0    0 -0.52224792518E+01  0.75307679348E+02 -0.36687227953E+03  0.37455812680E+03  0.00000000000E+00 0. -1.
        -14    1    6    6    0    0  0.52240153747E+02  0.19078653776E+02 -0.36702730002E+03  0.37121700884E+03  0.00000000000E+00 0.  1.
         -5    1    5    5    0  501  0.11717306232E+02 -0.32831760325E+02 -0.47246916919E+02  0.58903148555E+02  0.47000000000E+01 0.  1.
<mgrwt>
<rscale>  2 0.19270002E+03</rscale>
<asrwt>0</asrwt>
<pdfrwt beam="2">  1        2 0.14014883E+00 0.19270002E+03</pdfrwt>
<pdfrwt beam="1">  1       -2 0.13848268E-01 0.19270002E+03</pdfrwt>
<totfact> 0.11703671E+03</totfact>
</mgrwt>
</event>
<event>
12    1  0.5759937E-002  0.2291410E+03  0.7546771E-02  0.1127246E+00
          2   -1    0    0  503    0  0.00000000000E+00  0.00000000000E+00  0.37753583738E+03  0.37753583738E+03  0.00000000000E+00 0. -1.
         -2   -1    0    0    0  501 -0.00000000000E+00 -0.00000000000E+00 -0.14038019108E+03  0.14038019108E+03  0.00000000000E+00 0.  1.
          6    2    1    2  503    0  0.14306092771E+03  0.48886246532E+02  0.93744269926E+02  0.24782723675E+03  0.17255160676E+03 0.  0.
         24    2    3    3    0    0  0.13085073216E+03  0.39302725544E+01  0.12596094634E+02  0.15414028555E+03  0.80394059997E+02 0.  0.
         -6    2    1    2    0  501 -0.14306092771E+03 -0.48886246532E+02  0.14341137638E+03  0.27008879171E+03  0.17182793252E+03 0.  0.
        -24    2    5    5    0    0 -0.95542613376E+02 -0.49481026891E+02  0.17920751428E+02  0.13581917150E+03  0.80925465842E+02 0.  0.
          2    1    4    4  502    0  0.12150162768E+03  0.26171918577E+02  0.25354075131E+02  0.12684811381E+03  0.00000000000E+00 0. -1.
         -1    1    4    4    0  502  0.93491044764E+01 -0.22241646023E+02 -0.12757980497E+02  0.27292171747E+02  0.00000000000E+00 0.  1.
          5    1    3    3  503    0  0.12210195554E+02  0.44955973978E+02  0.81148175292E+02  0.93686951199E+02  0.47000000000E+01 0. -1.
         11    1    6    6    0    0 -0.34197604365E+02  0.91190290248E+01  0.34446734111E+02  0.49388362248E+02  0.00000000000E+00 0. -1.
        -12    1    6    6    0    0 -0.61345009011E+02 -0.58600055916E+02 -0.16525982683E+02  0.86430809250E+02  0.00000000000E+00 0.  1.
         -5    1    5    5    0  501 -0.47518314334E+02  0.59478035912E+00  0.12549062495E+03  0.13426962021E+03  0.47000000000E+01 0.  1.
<mgrwt>
<rscale>  2 0.22914099E+03</rscale>
<asrwt>0</asrwt>
<pdfrwt beam="1">  1        2 0.58082436E-01 0.22914099E+03</pdfrwt>
<pdfrwt beam="2">  1       -2 0.21596953E-01 0.22914099E+03</pdfrwt>
<totfact> 0.15586567E+03</totfact>
</mgrwt>
</event>
<event>
12    1  0.5759937E-002  0.2678504E+03  0.7546771E-02  0.1102516E+00
          3   -1    0    0  503    0  0.00000000000E+00  0.00000000000E+00  0.16654386739E+03  0.16654386739E+03  0.00000000000E+00 0. -1.
         -3   -1    0    0    0  501 -0.00000000000E+00 -0.00000000000E+00 -0.47753029578E+03  0.47753029578E+03  0.00000000000E+00 0.  1.
          6    2    1    2  503    0  0.15772608614E+03 -0.12938156974E+03 -0.25674477224E+03  0.37171379364E+03  0.17503187560E+03 0.  0.
         24    2    3    3    0    0  0.80572501288E+02 -0.97741196966E+02 -0.67653830761E+02  0.16499837817E+03  0.81253642593E+02 0.  0.
         -6    2    1    2    0  501 -0.15772608614E+03  0.12938156974E+03 -0.54241656148E+02  0.27236036953E+03  0.17210724793E+03 0.  0.
        -24    2    5    5    0    0 -0.63634251498E+02 -0.47767231367E+01 -0.32006725514E+02  0.10692699009E+03  0.79604118504E+02 0.  0.
          2    1    4    4  502    0  0.52614276695E+02 -0.35765447082E+02  0.70241721458E+01  0.64006002152E+02  0.00000000000E+00 0. -1.
         -1    1    4    4    0  502  0.27958224593E+02 -0.61975749884E+02 -0.74678002907E+02  0.10099237602E+03  0.00000000000E+00 0.  1.
          5    1    3    3  503    0  0.77153584853E+02 -0.31640372775E+02 -0.18909094148E+03  0.20671541547E+03  0.47000000000E+01 0. -1.
         13    1    6    6    0    0 -0.40155344866E+02  0.10202270821E+02  0.21447071352E+02  0.46653134094E+02  0.00000000000E+00 0. -1.
        -14    1    6    6    0    0 -0.23478906633E+02 -0.14978993957E+02 -0.53453796866E+02  0.60273855991E+02  0.00000000000E+00 0.  1.
         -5    1    5    5    0  501 -0.94091834642E+02  0.13415829288E+03 -0.22234930634E+02  0.16543337944E+03  0.47000000000E+01 0.  1.
<mgrwt>
<rscale>  2 0.26785041E+03</rscale>
<asrwt>0</asrwt>
<pdfrwt beam="1">  1        3 0.25622133E-01 0.26785041E+03</pdfrwt>
<pdfrwt beam="2">  1       -3 0.73466200E-01 0.26785041E+03</pdfrwt>
<totfact> 0.64316164E+01</totfact>
</mgrwt>
</event>
<event>
12    1  0.5759937E-002  0.2566675E+03  0.7546771E-02  0.1109162E+00
          1   -1    0    0  503    0  0.00000000000E+00  0.00000000000E+00  0.23124341424E+04  0.23124341424E+04  0.00000000000E+00 0. -1.
         -1   -1    0    0    0  501 -0.00000000000E+00 -0.00000000000E+00 -0.31351794949E+02  0.31351794949E+02  0.00000000000E+00 0.  1.
          6    2    1    2  503    0  0.15889410508E+03  0.10322813952E+03  0.78906266147E+03  0.82996131002E+03  0.17410487352E+03 0.  0.
         24    2    3    3    0    0  0.11383221565E+03  0.78815061203E+02  0.74511205343E+03  0.76228326174E+03  0.81940293912E+02 0.  0.
         -6    2    1    2    0  501 -0.15889410508E+03 -0.10322813952E+03  0.14920196859E+04  0.15138246273E+04  0.17215944221E+03 0.  0.
        -24    2    5    5    0    0 -0.16734367129E+03 -0.12862070190E+03  0.13815554831E+04  0.14000678363E+04  0.83349889036E+02 0.  0.
          2    1    4    4  502    0  0.50025286337E+02  0.71369480530E+02  0.55013554068E+03  0.55699662938E+03  0.00000000000E+00 0. -1.
         -1    1    4    4    0  502  0.63806929308E+02  0.74455806730E+01  0.19497651276E+03  0.20528663236E+03  0.00000000000E+00 0.  1.
          5    1    3    3  503    0  0.45061889433E+02  0.24413078316E+02  0.43950608043E+02  0.67678048283E+02  0.47000000000E+01 0. -1.
         13    1    6    6    0    0 -0.25788098331E+02 -0.18332951172E+02  0.77291242376E+02  0.83516820236E+02  0.00000000000E+00 0. -1.
        -14    1    6    6    0    0 -0.14155557296E+03 -0.11028775073E+03  0.13042642407E+04  0.13165510161E+04  0.00000000000E+00 0.  1.
         -5    1    5    5    0  501  0.84495662163E+01  0.25392562381E+02  0.11046420282E+03  0.11375679100E+03  0.47000000000E+01 0.  1.
<mgrwt>
<rscale>  2 0.25666752E+03</rscale>
<asrwt>0</asrwt>
<pdfrwt beam="1">  1        1 0.35575896E+00 0.25666752E+03</pdfrwt>
<pdfrwt beam="2">  1       -1 0.48233549E-02 0.25666752E+03</pdfrwt>
<totfact> 0.39284714E+02</totfact>
</mgrwt>
</event>
<event>
12    1  0.5759937E-002  0.2136787E+03  0.7546771E-02  0.1138686E+00
         -1   -1    0    0    0  501 -0.00000000000E+00  0.00000000000E+00  0.26142545014E+03  0.26142545014E+03  0.00000000000E+00 0. -1.
          1   -1    0    0  503    0  0.00000000000E+00 -0.00000000000E+00 -0.21432225141E+03  0.21432225141E+03  0.00000000000E+00 0.  1.
          6    2    1    2  503    0 -0.28456059849E+02 -0.12067605883E+03  0.12584256607E+03  0.24753222368E+03  0.17338798057E+03 0.  0.
         24    2    3    3    0    0 -0.49675401014E+02 -0.47486023045E+02  0.13397323063E+03  0.17075176077E+03  0.80528066104E+02 0.  0.
         -6    2    1    2    0  501  0.28456059849E+02  0.12067605883E+03 -0.78739367335E+02  0.22821547787E+03  0.17467099890E+03 0.  0.
        -24    2    5    5    0    0 -0.20722504588E+02  0.67453510839E+02  0.16560558001E+02  0.10840171997E+03  0.80605722435E+02 0.  0.
          2    1    4    4  502    0 -0.24018747709E+02 -0.29934995934E+02  0.13428790635E+03  0.13966476297E+03  0.00000000000E+00 0. -1.
         -1    1    4    4    0  502 -0.25656653305E+02 -0.17551027111E+02 -0.31467572171E+00  0.31086997801E+02  0.00000000000E+00 0.  1.
          5    1    3    3  503    0  0.21219341165E+02 -0.73190035786E+02 -0.81306645607E+01  0.76780462905E+02  0.47000000000E+01 0. -1.
         11    1    6    6    0    0 -0.46855457049E+02  0.21429085181E+02  0.20220943581E+02  0.55349129227E+02  0.00000000000E+00 0. -1.
        -12    1    6    6    0    0  0.26132952461E+02  0.46024425658E+02 -0.36603855801E+01  0.53052590738E+02  0.00000000000E+00 0.  1.
         -5    1    5    5    0  501  0.49178564438E+02  0.53222547992E+02 -0.95299925336E+02  0.11981375791E+03  0.47000000000E+01 0.  1.
<mgrwt>
<rscale>  2 0.21367870E+03</rscale>
<asrwt>0</asrwt>
<pdfrwt beam="2">  1        1 0.32972654E-01 0.21367870E+03</pdfrwt>
<pdfrwt beam="1">  1       -1 0.40219300E-01 0.21367870E+03</pdfrwt>
<totfact> 0.82134455E+02</totfact>
</mgrwt>
</event>
<event>
12    1  0.5759937E-002  0.1891258E+03  0.7546771E-02  0.1159252E+00
         -1   -1    0    0    0  501 -0.00000000000E+00  0.00000000000E+00  0.11553137613E+04  0.11553137613E+04  0.00000000000E+00 0. -1.
          1   -1    0    0  503    0  0.00000000000E+00 -0.00000000000E+00 -0.48953218567E+02  0.48953218567E+02  0.00000000000E+00 0.  1.
          6    2    1    2  503    0  0.75099975749E+02  0.29106715407E+01  0.91655566875E+03  0.93568338446E+03  0.17257063386E+03 0.  0.
         24    2    3    3    0    0  0.10850395454E+03 -0.22151157245E+02  0.78828749999E+03  0.80070659320E+03  0.86429646751E+02 0.  0.
         -6    2    1    2    0  501 -0.75099975749E+02 -0.29106715407E+01  0.18980487402E+03  0.26858359544E+03  0.17453589652E+03 0.  0.
        -24    2    5    5    0    0 -0.70196024096E+02  0.29945001619E+01  0.21583726293E+03  0.24103917555E+03  0.81103090289E+02 0.  0.
          2    1    4    4  502    0  0.10522434745E+03  0.10158868505E+02  0.65768760459E+03  0.66612938018E+03  0.00000000000E+00 0. -1.
         -1    1    4    4    0  502  0.32796070943E+01 -0.32310025750E+02  0.13059989539E+03  0.13457721302E+03  0.00000000000E+00 0.  1.
          5    1    3    3  503    0 -0.33403978793E+02  0.25061828786E+02  0.12826816877E+03  0.13497679127E+03  0.47000000000E+01 0. -1.
         13    1    6    6    0    0  0.13595939282E+02  0.42678782636E+01  0.67192191590E+01  0.15754753440E+02  0.00000000000E+00 0. -1.
        -14    1    6    6    0    0 -0.83791963379E+02 -0.12733781017E+01  0.20911804377E+03  0.22528442211E+03  0.00000000000E+00 0.  1.
         -5    1    5    5    0  501 -0.49039516524E+01 -0.59051717026E+01 -0.26032388909E+02  0.27544419888E+02  0.47000000000E+01 0.  1.
<mgrwt>
<rscale>  2 0.18912576E+03</rscale>
<asrwt>0</asrwt>
<pdfrwt beam="2">  1        1 0.75312653E-02 0.18912576E+03</pdfrwt>
<pdfrwt beam="1">  1       -1 0.17774056E+00 0.18912576E+03</pdfrwt>
<totfact> 0.22537302E+02</totfact>
</mgrwt>
</event>
<event>
12    1  0.5759937E-002  0.2884221E+03  0.7546771E-02  0.1091176E+00
         -1   -1    0    0    0  501 -0.00000000000E+00  0.00000000000E+00  0.60818206084E+02  0.60818206084E+02  0.00000000000E+00 0. -1.
          1   -1    0    0  503    0  0.00000000000E+00 -0.00000000000E+00 -0.15092393725E+04  0.15092393725E+04  0.00000000000E+00 0.  1.
          6    2    1    2  503    0  0.21023986467E+03 -0.94757278799E+02 -0.96419727809E+03  0.10063696098E+04  0.17298455965E+03 0.  0.
         24    2    3    3    0    0  0.19832377323E+03 -0.29867342904E+02 -0.81144525236E+03  0.83991250308E+03  0.82372556379E+02 0.  0.
         -6    2    1    2    0  501 -0.21023986467E+03  0.94757278799E+02 -0.48422388829E+03  0.56368796875E+03  0.17346933313E+03 0.  0.
        -24    2    5    5    0    0 -0.19119396206E+03  0.24243549497E+02 -0.40538916263E+03  0.45611503351E+03  0.80979440541E+02 0.  0.
          2    1    4    4  502    0  0.14160943196E+03  0.15221366532E+02 -0.48245593039E+03  0.50303940799E+03  0.00000000000E+00 0. -1.
         -1    1    4    4    0  502  0.56714341269E+02 -0.45088709436E+02 -0.32898932197E+03  0.33687309509E+03  0.00000000000E+00 0.  1.
          5    1    3    3  503    0  0.11916091440E+02 -0.64889935895E+02 -0.15275202572E+03  0.16645710672E+03  0.47000000000E+01 0. -1.
         11    1    6    6    0    0 -0.17708663460E+03  0.45375544335E+02 -0.34133613144E+03  0.38720662547E+03  0.00000000000E+00 0. -1.
        -12    1    6    6    0    0 -0.14107327462E+02 -0.21131994839E+02 -0.64053031185E+02  0.68908408035E+02  0.00000000000E+00 0.  1.
         -5    1    5    5    0  501 -0.19045902606E+02  0.70513729303E+02 -0.78834725661E+02  0.10757293524E+03  0.47000000000E+01 0.  1.
<mgrwt>
<rscale>  2 0.28842215E+03</rscale>
<asrwt>0</asrwt>
<pdfrwt beam="2">  1        1 0.23219067E+00 0.28842215E+03</pdfrwt>
<pdfrwt beam="1">  1       -1 0.93566473E-02 0.28842215E+03</pdfrwt>
<totfact> 0.47696665E+02</totfact>
</mgrwt>
</event>
<event>
12    1  0.5759937E-002  0.2787736E+03  0.7546771E-02  0.1096361E+00
         -2   -1    0    0    0  501 -0.00000000000E+00  0.00000000000E+00  0.31671423370E+03  0.31671423370E+03  0.00000000000E+00 0.  1.
          2   -1    0    0  503    0  0.00000000000E+00 -0.00000000000E+00 -0.25009491262E+03  0.25009491262E+03  0.00000000000E+00 0. -1.
          6    2    1    2  503    0  0.43238304820E+02 -0.21480963575E+03  0.72203454921E+02  0.28775417611E+03  0.17197789496E+03 0.  0.
         24    2    3    3    0    0  0.74489371804E+01 -0.11776037824E+03 -0.26049903934E+02  0.14501227706E+03  0.80168383136E+02 0.  0.
         -6    2    1    2    0  501 -0.43238304820E+02  0.21480963575E+03 -0.55841338408E+01  0.27905497021E+03  0.17270716035E+03 0.  0.
        -24    2    5    5    0    0 -0.61610346379E+02  0.23308968988E+03 -0.21170938244E+01  0.25248802351E+03  0.74960533760E+02 0.  0.
          4    1    4    4  502    0 -0.33377538683E+02 -0.26538167381E+02 -0.57171474246E+01  0.43023484182E+02  0.00000000000E+00 0. -1.
         -3    1    4    4    0  502  0.40826475863E+02 -0.91222210859E+02 -0.20332756509E+02  0.10198879288E+03  0.00000000000E+00 0.  1.
          5    1    3    3  503    0  0.35789367639E+02 -0.97049257506E+02  0.98253358855E+02  0.14274189905E+03  0.47000000000E+01 0. -1.
         13    1    6    6    0    0 -0.47157207076E+02  0.15578631249E+03  0.33462083861E+02  0.16617126224E+03  0.00000000000E+00 0. -1.
        -14    1    6    6    0    0 -0.14453139303E+02  0.77303377395E+02 -0.35579177685E+02  0.86316761276E+02  0.00000000000E+00 0.  1.
         -5    1    5    5    0  501  0.18372041559E+02 -0.18280054136E+02 -0.34670400164E+01  0.26566946696E+02  0.47000000000E+01 0.  1.
<mgrwt>
<rscale>  2 0.27877358E+03</rscale>
<asrwt>0</asrwt>
<pdfrwt beam="2">  1        2 0.38476140E-01 0.27877358E+03</pdfrwt>
<pdfrwt beam="1">  1       -2 0.48725267E-01 0.27877358E+03</pdfrwt>
<totfact> 0.54132732E+02</totfact>
</mgrwt>
</event>
<event>
12    1  0.5759937E-002  0.1977588E+03  0.7546771E-02  0.1151644E+00
         -1   -1    0    0    0  501 -0.00000000000E+00  0.00000000000E+00  0.64543411015E+02  0.64543411015E+02  0.00000000000E+00 0.  1.
          1   -1    0    0  503    0  0.00000000000E+00 -0.00000000000E+00 -0.71672502295E+03  0.71672502295E+03  0.00000000000E+00 0. -1.
          6    2    1    2  503    0 -0.28144772584E+02 -0.93156959084E+02 -0.47991251051E+03  0.51912488361E+03  0.17234929585E+03 0.  0.
         24    2    3    3    0    0  0.26923703573E+02 -0.38513389682E+02 -0.11887730163E+03  0.14981881975E+03  0.78138971781E+02 0.  0.
         -6    2    1    2    0  501  0.28144772584E+02  0.93156959084E+02 -0.17226910142E+03  0.26214355036E+03  0.17196584091E+03 0.  0.
        -24    2    5    5    0    0  0.82986757613E+02  0.44527751251E+02 -0.10967999151E+03  0.16564520915E+03  0.80864777290E+02 0.  0.
          2    1    4    4  502    0 -0.21326505837E+02 -0.37232050756E+02 -0.55103119571E+02  0.69838379428E+02  0.00000000000E+00 0. -1.
         -1    1    4    4    0  502  0.48250209410E+02 -0.12813389265E+01 -0.63774182058E+02  0.79980440326E+02  0.00000000000E+00 0.  1.
          5    1    3    3  503    0 -0.55068476157E+02 -0.54643569402E+02 -0.36103520888E+03  0.36930606385E+03  0.47000000000E+01 0. -1.
         11    1    6    6    0    0  0.38637634810E+02  0.60389623328E+02 -0.41684704890E+02  0.82930018999E+02  0.00000000000E+00 0. -1.
        -12    1    6    6    0    0  0.44349122802E+02 -0.15861872077E+02 -0.67995286622E+02  0.82715190152E+02  0.00000000000E+00 0.  1.
         -5    1    5    5    0  501 -0.54841985029E+02  0.48629207833E+02 -0.62589109906E+02  0.96498341204E+02  0.47000000000E+01 0.  1.
<mgrwt>
<rscale>  2 0.19775883E+03</rscale>
<asrwt>0</asrwt>
<pdfrwt beam="2">  1        1 0.11026539E+00 0.19775883E+03</pdfrwt>
<pdfrwt beam="1">  1       -1 0.99297557E-02 0.19775883E+03</pdfrwt>
<totfact> 0.16712528E+03</totfact>
</mgrwt>
</event>
<event>
12    1  0.5759937E-002  0.2942983E+03  0.7546771E-02  0.1088126E+00
          2   -1    0    0  503    0  0.00000000000E+00  0.00000000000E+00  0.24167390135E+03  0.24167390135E+03  0.00000000000E+00 0. -1.
         -2   -1    0    0    0  501 -0.00000000000E+00 -0.00000000000E+00 -0.37396064630E+03  0.37396064630E+03  0.00000000000E+00 0.  1.
          6    2    1    2  503    0 -0.13879226522E+03  0.19340490077E+03 -0.12900401496E+03  0.32147328789E+03  0.17330404041E+03 0.  0.
         24    2    3    3    0    0 -0.72302940636E+02  0.12962541060E+03 -0.15178083005E+03  0.22644946479E+03  0.78812926837E+02 0.  0.
         -6    2    1    2    0  501  0.13879226522E+03 -0.19340490077E+03 -0.32827299888E+01  0.29416125976E+03  0.17277535097E+03 0.  0.
        -24    2    5    5    0    0  0.47245595046E+02 -0.12175019715E+03  0.56547023231E+02  0.16332976990E+03  0.80148556694E+02 0.  0.
          4    1    4    4  502    0 -0.77080646678E+02  0.67319214196E+02 -0.72094804569E+02  0.12518371914E+03  0.00000000000E+00 0. -1.
         -3    1    4    4    0  502  0.47777060421E+01  0.62306196405E+02 -0.79686025481E+02  0.10126574565E+03  0.00000000000E+00 0.  1.
          5    1    3    3  503    0 -0.66489324587E+02  0.63779490167E+02  0.22776815089E+02  0.95023823096E+02  0.47000000000E+01 0. -1.
         13    1    6    6    0    0  0.64583799491E+02 -0.10750146488E+03  0.30725688054E+02  0.12911893747E+03  0.00000000000E+00 0. -1.
        -14    1    6    6    0    0 -0.17338204445E+02 -0.14248732273E+02  0.25821335177E+02  0.34210832423E+02  0.00000000000E+00 0.  1.
         -5    1    5    5    0  501  0.91546670177E+02 -0.71654703617E+02 -0.59829753219E+02  0.13083148987E+03  0.47000000000E+01 0.  1.
<mgrwt>
<rscale>  2 0.29429833E+03</rscale>
<asrwt>0</asrwt>
<pdfrwt beam="1">  1        2 0.37180600E-01 0.29429833E+03</pdfrwt>
<pdfrwt beam="2">  1       -2 0.57532407E-01 0.29429833E+03</pdfrwt>
<totfact> 0.40114301E+02</totfact>
</mgrwt>
</event>
<event>
12    1  0.5759937E-002  0.2590290E+03  0.7546771E-02  0.1107728E+00
          1   -1    0    0  503    0  0.00000000000E+00  0.00000000000E+00  0.26449670092E+04  0.26449670092E+04  0.00000000000E+00 0. -1.
         -1   -1    0    0    0  501 -0.00000000000E+00 -0.00000000000E+00 -0.29241363840E+02  0.29241363840E+02  0.00000000000E+00 0.  1.
          6    2    1    2  503    0 -0.16258148277E+03 -0.10578789800E+03  0.82992821865E+03  0.87000371059E+03  0.17464761784E+03 0.  0.
         24    2    3    3    0    0 -0.11917048885E+03 -0.11079709690E+02  0.35234493519E+03  0.38116627547E+03  0.82561557795E+02 0.  0.
         -6    2    1    2    0  501  0.16258148277E+03  0.10578789800E+03  0.17857974267E+04  0.18042046625E+04  0.16869557456E+03 0.  0.
        -24    2    5    5    0    0  0.14563744290E+03  0.12551083010E+03  0.12063930437E+04  0.12241980904E+04  0.79457884968E+02 0.  0.
          4    1    4    4  502    0 -0.80115771145E+02  0.32103305737E+02  0.23037790572E+03  0.24601450865E+03  0.00000000000E+00 0. -1.
         -3    1    4    4    0  502 -0.39054717701E+02 -0.43183015427E+02  0.12196702947E+03  0.13515176682E+03  0.00000000000E+00 0.  1.
          5    1    3    3  503    0 -0.43410993923E+02 -0.94708188313E+02  0.47758328346E+03  0.48883743511E+03  0.47000000000E+01 0. -1.
         11    1    6    6    0    0 -0.18500334828E+01  0.11826390089E+02  0.22350742781E+03  0.22382773826E+03  0.00000000000E+00 0. -1.
        -12    1    6    6    0    0  0.14748747638E+03  0.11368444001E+03  0.98288561585E+03  0.10003703521E+04  0.00000000000E+00 0.  1.
         -5    1    5    5    0  501  0.16944039871E+02 -0.19722932098E+02  0.57940438305E+03  0.58000657206E+03  0.47000000000E+01 0.  1.
<mgrwt>
<rscale>  2 0.25902902E+03</rscale>
<asrwt>0</asrwt>
<pdfrwt beam="1">  1        1 0.40691781E+00 0.25902902E+03</pdfrwt>
<pdfrwt beam="2">  1       -1 0.44986735E-02 0.25902902E+03</pdfrwt>
<totfact> 0.26221982E+02</totfact>
</mgrwt>
</event>
<event>
12    1  0.5759937E-002  0.1925362E+03  0.7546771E-02  0.1156194E+00
          2   -1    0    0  503    0  0.00000000000E+00  0.00000000000E+00  0.57843183947E+03  0.57843183947E+03  0.00000000000E+00 0. -1.
         -2   -1    0    0    0  501 -0.00000000000E+00 -0.00000000000E+00 -0.64087839309E+02  0.64087839309E+02  0.00000000000E+00 0.  1.
          6    2    1    2  503    0 -0.47618886942E+01  0.84708738606E+02  0.25612343837E+03  0.32027151073E+03  0.17255833484E+03 0.  0.
         24    2    3    3    0    0 -0.22048330766E+02  0.71392570607E+02  0.65453079908E+02  0.12829907259E+03  0.81200482328E+02 0.  0.
         -6    2    1    2    0  501  0.47618886942E+01 -0.84708738606E+02  0.25822056179E+03  0.32224816805E+03  0.17311203684E+03 0.  0.
        -24    2    5    5    0    0 -0.11840575279E+01 -0.50116179481E+01  0.21612094993E+03  0.23179678533E+03  0.83635915625E+02 0.  0.
          4    1    4    4  502    0 -0.25984735004E+02  0.88770560890E+02  0.53701339079E+02  0.10695444242E+03  0.00000000000E+00 0. -1.
         -3    1    4    4    0  502  0.39364042385E+01 -0.17377990284E+02  0.11751740830E+02  0.21344630171E+02  0.00000000000E+00 0.  1.
          5    1    3    3  503    0  0.17286442072E+02  0.13316168000E+02  0.19067035846E+03  0.19197243814E+03  0.47000000000E+01 0. -1.
         13    1    6    6    0    0 -0.41224356750E+01 -0.43510300317E+02  0.92878937001E+02  0.10264812540E+03  0.00000000000E+00 0. -1.
        -14    1    6    6    0    0  0.29383781471E+01  0.38498682369E+02  0.12324201293E+03  0.12914865993E+03  0.00000000000E+00 0.  1.
         -5    1    5    5    0  501  0.59459462221E+01 -0.79697120658E+02  0.42099611861E+02  0.90451382723E+02  0.47000000000E+01 0.  1.
<mgrwt>
<rscale>  2 0.19253623E+03</rscale>
<asrwt>0</asrwt>
<pdfrwt beam="1">  1        2 0.88989510E-01 0.19253623E+03</pdfrwt>
<pdfrwt beam="2">  1       -2 0.98596680E-02 0.19253623E+03</pdfrwt>
<totfact> 0.35236165E+03</totfact>
</mgrwt>
</event>
<event>
12    1  0.5759937E-002  0.2374912E+03  0.7546771E-02  0.1121475E+00
          1   -1    0    0  503    0  0.00000000000E+00  0.00000000000E+00  0.43685040198E+03  0.43685040198E+03  0.00000000000E+00 0.  1.
         -1   -1    0    0    0  501 -0.00000000000E+00 -0.00000000000E+00 -0.16605744995E+03  0.16605744995E+03  0.00000000000E+00 0. -1.
          6    2    1    2  503    0 -0.83276457883E+02  0.13958676113E+03 -0.67175945344E+01  0.23776498380E+03  0.17340019932E+03 0.  0.
         24    2    3    3    0    0 -0.49175469633E+02  0.87149482752E+02 -0.67481260882E+02  0.15043309551E+03  0.89794969222E+02 0.  0.
         -6    2    1    2    0  501  0.83276457883E+02 -0.13958676113E+03  0.27751054657E+03  0.36514286813E+03  0.17290974053E+03 0.  0.
        -24    2    5    5    0    0  0.42269441026E+02 -0.77326220420E+02  0.58458346244E+02  0.13370409258E+03  0.81812933685E+02 0.  0.
          2    1    4    4  502    0 -0.56213942494E+02  0.74931850654E+02 -0.85995284481E+02  0.12716123044E+03  0.00000000000E+00 0. -1.
         -1    1    4    4    0  502  0.70384728608E+01  0.12217632098E+02  0.18514023599E+02  0.23271865076E+02  0.00000000000E+00 0.  1.
          5    1    3    3  503    0 -0.34100988251E+02  0.52437278375E+02  0.60763666348E+02  0.87331888283E+02  0.47000000000E+01 0. -1.
         13    1    6    6    0    0  0.46667730337E+02 -0.66100550737E+02  0.76928323555E+02  0.11164733238E+03  0.00000000000E+00 0. -1.
        -14    1    6    6    0    0 -0.43982893109E+01 -0.11225669684E+02 -0.18469977311E+02  0.22056760201E+02  0.00000000000E+00 0.  1.
         -5    1    5    5    0  501  0.41007016857E+02 -0.62260540707E+02  0.21905220033E+03  0.23143877555E+03  0.47000000000E+01 0.  1.
<mgrwt>
<rscale>  2 0.23749120E+03</rscale>
<asrwt>0</asrwt>
<pdfrwt beam="1">  1        1 0.67207754E-01 0.23749120E+03</pdfrwt>
<pdfrwt beam="2">  1       -1 0.25547300E-01 0.23749120E+03</pdfrwt>
<totfact> 0.72787709E+02</totfact>
</mgrwt>
</event>
<event>
12    1  0.5759937E-002  0.2067765E+03  0.7546771E-02  0.1144144E+00
          2   -1    0    0  503    0  0.00000000000E+00  0.00000000000E+00  0.33337688377E+03  0.33337688377E+03  0.00000000000E+00 0.  1.
         -2   -1    0    0    0  501 -0.00000000000E+00 -0.00000000000E+00 -0.17970562413E+03  0.17970562413E+03  0.00000000000E+00 0. -1.
          6    2    1    2  503    0 -0.81535802453E+01  0.11312663646E+03 -0.60568216364E+02  0.21498255105E+03  0.17229298208E+03 0.  0.
         24    2    3    3    0    0 -0.29434784323E+02  0.12973975112E+01 -0.60283744743E+02  0.10104906495E+03  0.75555899036E+02 0.  0.
         -6    2    1    2    0  501  0.81535802453E+01 -0.11312663646E+03  0.21423947600E+03  0.29809995685E+03  0.17349615111E+03 0.  0.
        -24    2    5    5    0    0 -0.22428606312E+02 -0.14279430731E+03  0.17878348660E+03  0.24247030637E+03  0.77039326380E+02 0.  0.
          4    1    4    4  502    0  0.15922165865E+02 -0.23666016360E+02 -0.14799975854E+02  0.32134638343E+02  0.00000000000E+00 0. -1.
         -3    1    4    4    0  502 -0.45356950188E+02  0.24963413871E+02 -0.45483768889E+02  0.68914426609E+02  0.00000000000E+00 0.  1.
          5    1    3    3  503    0  0.21281204077E+02  0.11182923895E+03 -0.28447162099E+00  0.11393348610E+03  0.47000000000E+01 0. -1.
         13    1    6    6    0    0  0.28300015144E+02 -0.43182669807E+02  0.48972899696E+02  0.71161638074E+02  0.00000000000E+00 0. -1.
        -14    1    6    6    0    0 -0.50728621456E+02 -0.99611637499E+02  0.12981058691E+03  0.17130866830E+03  0.00000000000E+00 0.  1.
         -5    1    5    5    0  501  0.30582186557E+02  0.29667670847E+02  0.35455989397E+02  0.55629650478E+02  0.47000000000E+01 0.  1.
<mgrwt>
<rscale>  2 0.20677646E+03</rscale>
<asrwt>0</asrwt>
<pdfrwt beam="1">  1        2 0.51288751E-01 0.20677646E+03</pdfrwt>
<pdfrwt beam="2">  1       -2 0.27647019E-01 0.20677646E+03</pdfrwt>
<totfact> 0.11525652E+03</totfact>
</mgrwt>
</event>
<event>
12    1  0.5759937E-002  0.1974207E+03  0.7546771E-02  0.1151934E+00
          2   -1    0    0  503    0  0.00000000000E+00  0.00000000000E+00  0.71064512241E+03  0.71064512241E+03  0.00000000000E+00 0.  1.
         -2   -1    0    0    0  501 -0.00000000000E+00 -0.00000000000E+00 -0.55295165773E+02  0.55295165773E+02  0.00000000000E+00 0. -1.
          6    2    1    2  503    0  0.14042904194E+02  0.10262859503E+03  0.28648945147E+03  0.34526479803E+03  0.16248613258E+03 0.  0.
         24    2    3    3    0    0 -0.35696742969E+02  0.16682485910E+02  0.18469673266E+03  0.20298122985E+03  0.74403856223E+02 0.  0.
         -6    2    1    2    0  501 -0.14042904194E+02 -0.10262859503E+03  0.36886050517E+03  0.42067549015E+03  0.17372381547E+03 0.  0.
        -24    2    5    5    0    0  0.51401355266E+02 -0.95315900084E+02  0.22325066165E+03  0.26079821492E+03  0.80297140972E+02 0.  0.
          2    1    4    4  502    0 -0.60929720178E+01 -0.27228679069E+02  0.92945214177E+02  0.97042970431E+02  0.00000000000E+00 0. -1.
         -1    1    4    4    0  502 -0.29603770951E+02  0.43911164979E+02  0.91751518480E+02  0.10593825941E+03  0.00000000000E+00 0.  1.
          5    1    3    3  503    0  0.49739647163E+02  0.85946109124E+02  0.10179271881E+03  0.14228356819E+03  0.47000000000E+01 0. -1.
         11    1    6    6    0    0  0.13044564922E+02 -0.76229894421E+02  0.79968937934E+02  0.11124831914E+03  0.00000000000E+00 0. -1.
        -12    1    6    6    0    0  0.38356790344E+02 -0.19086005663E+02  0.14328172372E+03  0.14954989578E+03  0.00000000000E+00 0.  1.
         -5    1    5    5    0  501 -0.65444259461E+02 -0.73126949495E+01  0.14560984352E+03  0.15987727522E+03  0.47000000000E+01 0.  1.
<mgrwt>
<rscale>  2 0.19742069E+03</rscale>
<asrwt>0</asrwt>
<pdfrwt beam="1">  1        2 0.10933001E+00 0.19742069E+03</pdfrwt>
<pdfrwt beam="2">  1       -2 0.85069491E-02 0.19742069E+03</pdfrwt>
<totfact> 0.34924454E+03</totfact>
</mgrwt>
</event>
<event>
12    1  0.5759937E-002  0.1804740E+03  0.7546771E-02  0.1167345E+00
         -4   -1    0    0    0  501 -0.00000000000E+00  0.00000000000E+00  0.15013783925E+03  0.15013783925E+03  0.00000000000E+00 0.  1.
          4   -1    0    0  503    0  0.00000000000E+00 -0.00000000000E+00 -0.24510159568E+03  0.24510159568E+03  0.00000000000E+00 0. -1.
          6    2    1    2  503    0  0.31296297090E+02  0.36964603815E+02  0.19530382822E+02  0.18141722768E+03  0.17373812045E+03 0.  0.
         24    2    3    3    0    0  0.35636001395E+02  0.65214487031E+02 -0.37156916639E+02  0.11775853734E+03  0.83448084155E+02 0.  0.
         -6    2    1    2    0  501 -0.31296297090E+02 -0.36964603815E+02 -0.11449413925E+03  0.21382220725E+03  0.17396892896E+03 0.  0.
        -24    2    5    5    0    0 -0.46283322244E+02 -0.62992741692E+02 -0.13663211858E+03  0.17621562520E+03  0.79204667226E+02 0.  0.
          4    1    4    4  502    0 -0.21799598053E+02  0.12628442767E+02 -0.30561882976E+02  0.39607180322E+02  0.00000000000E+00 0. -1.
         -3    1    4    4    0  502  0.57435599448E+02  0.52586044264E+02 -0.65950336629E+01  0.78151357022E+02  0.00000000000E+00 0.  1.
          5    1    3    3  503    0 -0.43397043046E+01 -0.28249883216E+02  0.56687299461E+02  0.63658690336E+02  0.47000000000E+01 0. -1.
         13    1    6    6    0    0 -0.58935832121E+01 -0.20657109790E+02 -0.10973483417E+03  0.11181763877E+03  0.00000000000E+00 0. -1.
        -14    1    6    6    0    0 -0.40389739032E+02 -0.42335631902E+02 -0.26897284411E+02  0.64397986430E+02  0.00000000000E+00 0.  1.
         -5    1    5    5    0  501  0.14987025154E+02  0.26028137878E+02  0.22137979337E+02  0.37606582050E+02  0.47000000000E+01 0.  1.
<mgrwt>
<rscale>  2 0.18047403E+03</rscale>
<asrwt>0</asrwt>
<pdfrwt beam="2">  1        4 0.37707937E-01 0.18047403E+03</pdfrwt>
<pdfrwt beam="1">  1       -4 0.23098129E-01 0.18047403E+03</pdfrwt>
<totfact> 0.20741484E+02</totfact>
</mgrwt>
</event>
<event>
12    1  0.5759937E-002  0.1719274E+03  0.7546771E-02  0.1175853E+00
         -2   -1    0    0    0  501 -0.00000000000E+00  0.00000000000E+00  0.30115639728E+02  0.30115639728E+02  0.00000000000E+00 0. -1.
          2   -1    0    0  503    0  0.00000000000E+00 -0.00000000000E+00 -0.11339790552E+04  0.11339790552E+04  0.00000000000E+00 0.  1.
          6    2    1    2  503    0 -0.24496933794E+02 -0.20004964180E+02 -0.34948076325E+03  0.39119678583E+03  0.17290986960E+03 0.  0.
         24    2    3    3    0    0 -0.49650650505E+02  0.30591797877E+02 -0.29987406491E+03  0.31585983398E+03  0.80261664065E+02 0.  0.
         -6    2    1    2    0  501  0.24496933794E+02  0.20004964180E+02 -0.75438265221E+03  0.77289790909E+03  0.16515960025E+03 0.  0.
        -24    2    5    5    0    0  0.13128370487E+02 -0.49872916307E+02 -0.39327499393E+03  0.40488569015E+03  0.81286772286E+02 0.  0.
          4    1    4    4  502    0  0.22122366678E+02  0.80011757060E+01 -0.59405867190E+02  0.63894248385E+02  0.00000000000E+00 0. -1.
         -3    1    4    4    0  502 -0.71773017183E+02  0.22590622171E+02 -0.24046819772E+03  0.25196558559E+03  0.00000000000E+00 0.  1.
          5    1    3    3  503    0  0.25153716711E+02 -0.50596762057E+02 -0.49606698334E+02  0.75336951854E+02  0.47000000000E+01 0. -1.
         13    1    6    6    0    0 -0.19135631567E+02  0.14450059306E+02 -0.11340016183E+03  0.11590760680E+03  0.00000000000E+00 0. -1.
        -14    1    6    6    0    0  0.32264002054E+02 -0.64322975613E+02 -0.27987483209E+03  0.28897808335E+03  0.00000000000E+00 0.  1.
         -5    1    5    5    0  501  0.11368563308E+02  0.69877880487E+02 -0.36110765828E+03  0.36801221893E+03  0.47000000000E+01 0.  1.
<mgrwt>
<rscale>  2 0.17192743E+03</rscale>
<asrwt>0</asrwt>
<pdfrwt beam="2">  1        2 0.17445834E+00 0.17192743E+03</pdfrwt>
<pdfrwt beam="1">  1       -2 0.46331746E-02 0.17192743E+03</pdfrwt>
<totfact> 0.47369940E+03</totfact>
</mgrwt>
</event>
<event>
12    1  0.5759937E-002  0.3915369E+03  0.7546771E-02  0.1046750E+00
          4   -1    0    0  503    0  0.00000000000E+00  0.00000000000E+00  0.10711968978E+04  0.10711968978E+04  0.00000000000E+00 0. -1.
         -4   -1    0    0    0  501 -0.00000000000E+00 -0.00000000000E+00 -0.18021517531E+03  0.18021517531E+03  0.00000000000E+00 0.  1.
          6    2    1    2  503    0  0.38304556242E+02  0.34851504048E+03  0.16273242643E+03  0.42517981576E+03  0.17710466016E+03 0.  0.
         24    2    3    3    0    0  0.16057015026E+02  0.64306381638E+02  0.56019370058E+02  0.12074709536E+03  0.83955659521E+02 0.  0.
         -6    2    1    2    0  501 -0.38304556242E+02 -0.34851504048E+03  0.72824929606E+03  0.82623225734E+03  0.17141392415E+03 0.  0.
        -24    2    5    5    0    0 -0.49709400575E+02 -0.22961205277E+03  0.34541821804E+03  0.42517151973E+03  0.79147688209E+02 0.  0.
          4    1    4    4  502    0  0.32576295961E+02 -0.58383588664E+01  0.76874305861E+01  0.33976434213E+02  0.00000000000E+00 0. -1.
         -3    1    4    4    0  502 -0.16519280935E+02  0.70144740504E+02  0.48331939472E+02  0.86770661149E+02  0.00000000000E+00 0.  1.
          5    1    3    3  503    0  0.22247541216E+02  0.28420865884E+03  0.10671305637E+03  0.30443272040E+03  0.47000000000E+01 0. -1.
         13    1    6    6    0    0 -0.28029652553E+02 -0.16990724807E+03  0.30386526426E+03  0.34926813939E+03  0.00000000000E+00 0. -1.
        -14    1    6    6    0    0 -0.21679748022E+02 -0.59704804701E+02  0.41552953783E+02  0.75903380338E+02  0.00000000000E+00 0.  1.
         -5    1    5    5    0  501  0.11404844333E+02 -0.11890298771E+03  0.38283107801E+03  0.40106073761E+03  0.47000000000E+01 0.  1.
<mgrwt>
<rscale>  2 0.39153692E+03</rscale>
<asrwt>0</asrwt>
<pdfrwt beam="1">  1        4 0.16479952E+00 0.39153692E+03</pdfrwt>
<pdfrwt beam="2">  1       -4 0.27725412E-01 0.39153692E+03</pdfrwt>
<totfact> 0.56302925E+00</totfact>
</mgrwt>
</event>
<event>
12    1  0.5759937E-002  0.1918146E+03  0.7546771E-02  0.1156835E+00
          2   -1    0    0  503    0  0.00000000000E+00  0.00000000000E+00  0.38502070390E+03  0.38502070390E+03  0.00000000000E+00 0.  1.
         -2   -1    0    0    0  501 -0.00000000000E+00 -0.00000000000E+00 -0.10725992170E+03  0.10725992170E+03  0.00000000000E+00 0. -1.
          6    2    1    2  503    0  0.56932281963E+02  0.57577818824E+02  0.58401762328E+02  0.20169468317E+03  0.17525264456E+03 0.  0.
         24    2    3    3    0    0 -0.25066365032E+02  0.69587763563E+02  0.41226637132E+02  0.11692976232E+03  0.80635936240E+02 0.  0.
         -6    2    1    2    0  501 -0.56932281963E+02 -0.57577818824E+02  0.21935901987E+03  0.29058594243E+03  0.17252628899E+03 0.  0.
        -24    2    5    5    0    0 -0.22377933751E+02 -0.51655957726E+01  0.26837395364E+02  0.88032961693E+02  0.80635607865E+02 0.  0.
          4    1    4    4  502    0 -0.30596353843E+02 -0.79656344766E+01  0.13597048721E+02  0.34416099939E+02  0.00000000000E+00 0. -1.
         -3    1    4    4    0  502  0.55299888107E+01  0.77553398039E+02  0.27629588410E+02  0.82513662380E+02  0.00000000000E+00 0.  1.
          5    1    3    3  503    0  0.81998646995E+02 -0.12009944739E+02  0.17175125197E+02  0.84764920853E+02  0.47000000000E+01 0. -1.
         13    1    6    6    0    0 -0.20004246302E+01  0.36923068782E+02  0.96874690786E+01  0.38225145704E+02  0.00000000000E+00 0. -1.
        -14    1    6    6    0    0 -0.20377509121E+02 -0.42088664554E+02  0.17149926285E+02  0.49807815988E+02  0.00000000000E+00 0.  1.
         -5    1    5    5    0  501 -0.34554348212E+02 -0.52412223051E+02  0.19252162450E+03  0.20255298074E+03  0.47000000000E+01 0.  1.
<mgrwt>
<rscale>  2 0.19181460E+03</rscale>
<asrwt>0</asrwt>
<pdfrwt beam="1">  1        2 0.59233954E-01 0.19181460E+03</pdfrwt>
<pdfrwt beam="2">  1       -2 0.16501527E-01 0.19181460E+03</pdfrwt>
<totfact> 0.23976822E+03</totfact>
</mgrwt>
</event>
<event>
12    1  0.5759937E-002  0.1912141E+03  0.7546771E-02  0.1157371E+00
         -1   -1    0    0    0  501 -0.00000000000E+00  0.00000000000E+00  0.70491147855E+02  0.70491147855E+02  0.00000000000E+00 0.  1.
          1   -1    0    0  503    0  0.00000000000E+00 -0.00000000000E+00 -0.53874021517E+03  0.53874021517E+03  0.00000000000E+00 0. -1.
          6    2    1    2  503    0  0.43937446685E+02 -0.66151279399E+02 -0.17667813660E+03  0.26115403032E+03  0.17515642327E+03 0.  0.
         24    2    3    3    0    0  0.69301482071E+02 -0.59694379754E+02 -0.48852181694E+02  0.13059143770E+03  0.79381821302E+02 0.  0.
         -6    2    1    2    0  501 -0.43937446685E+02  0.66151279399E+02 -0.29157093071E+03  0.34807733270E+03  0.17273601511E+03 0.  0.
        -24    2    5    5    0    0 -0.80398542741E+02 -0.10662913750E+01 -0.18366811008E+03  0.21574169107E+03  0.79658269830E+02 0.  0.
          2    1    4    4  502    0  0.72259083975E+02 -0.68934217901E+02 -0.59451077657E+02  0.11622276993E+03  0.00000000000E+00 0. -1.
         -1    1    4    4    0  502 -0.29576019041E+01  0.92398381476E+01  0.10598895963E+02  0.14368667776E+02  0.00000000000E+00 0.  1.
          5    1    3    3  503    0 -0.25364035386E+02 -0.64568996447E+01 -0.12782595491E+03  0.13056259262E+03  0.47000000000E+01 0. -1.
         11    1    6    6    0    0  0.82081943585E+01  0.10716241758E+02 -0.69217410339E+02  0.70521359786E+02  0.00000000000E+00 0. -1.
        -12    1    6    6    0    0 -0.88606737099E+02 -0.11782533133E+02 -0.11445069975E+03  0.14522033129E+03  0.00000000000E+00 0.  1.
         -5    1    5    5    0  501  0.36461096055E+02  0.67217570774E+02 -0.10790282063E+03  0.13233564163E+03  0.47000000000E+01 0.  1.
<mgrwt>
<rscale>  2 0.19121407E+03</rscale>
<asrwt>0</asrwt>
<pdfrwt beam="2">  1        1 0.82883107E-01 0.19121407E+03</pdfrwt>
<pdfrwt beam="1">  1       -1 0.10844792E-01 0.19121407E+03</pdfrwt>
<totfact> 0.21715025E+03</totfact>
</mgrwt>
</event>
<event>
12    1  0.5759937E-002  0.2360267E+03  0.7546771E-02  0.1122468E+00
          2   -1    0    0  503    0  0.00000000000E+00  0.00000000000E+00  0.73505132659E+03  0.73505132659E+03  0.00000000000E+00 0. -1.
         -2   -1    0    0    0  501 -0.00000000000E+00 -0.00000000000E+00 -0.76341466939E+02  0.76341466939E+02  0.00000000000E+00 0.  1.
          6    2    1    2  503    0  0.12587517002E+03 -0.10026455033E+03  0.36395152799E+03  0.43381481264E+03  0.17273401073E+03 0.  0.
         24    2    3    3    0    0  0.60371003962E+02 -0.29325448257E+02  0.29992380632E+03  0.31786313687E+03  0.81105142533E+02 0.  0.
         -6    2    1    2    0  501 -0.12587517002E+03  0.10026455033E+03  0.29475833167E+03  0.37757798089E+03  0.17258365823E+03 0.  0.
        -24    2    5    5    0    0 -0.57929109172E+02  0.67917777378E+02  0.27599569319E+03  0.29987915525E+03  0.76061021010E+02 0.  0.
          2    1    4    4  502    0  0.42891718788E+02 -0.57458277057E+01  0.27768824877E+03  0.28103999285E+03  0.00000000000E+00 0. -1.
         -1    1    4    4    0  502  0.17479285174E+02 -0.23579620552E+02  0.22235557551E+02  0.36823144015E+02  0.00000000000E+00 0.  1.
          5    1    3    3  503    0  0.65504166054E+02 -0.70939102069E+02  0.64027721663E+02  0.11595167577E+03  0.47000000000E+01 0. -1.
         11    1    6    6    0    0 -0.26505197699E+02 -0.54108363738E+01  0.13674016775E+03  0.13939037317E+03  0.00000000000E+00 0. -1.
        -12    1    6    6    0    0 -0.31423911473E+02  0.73328613752E+02  0.13925552544E+03  0.16048878208E+03  0.00000000000E+00 0.  1.
         -5    1    5    5    0  501 -0.67946060844E+02  0.32346772948E+02  0.18762638475E+02  0.77698825647E+02  0.47000000000E+01 0.  1.
<mgrwt>
<rscale>  2 0.23602672E+03</rscale>
<asrwt>0</asrwt>
<pdfrwt beam="1">  1        2 0.11308481E+00 0.23602672E+03</pdfrwt>
<pdfrwt beam="2">  1       -2 0.11744842E-01 0.23602672E+03</pdfrwt>
<totfact> 0.20154316E+03</totfact>
</mgrwt>
</event>
<event>
12    1  0.5759937E-002  0.2005403E+03  0.7546771E-02  0.1149284E+00
          2   -1    0    0  503    0  0.00000000000E+00  0.00000000000E+00  0.75153213101E+03  0.75153213101E+03  0.00000000000E+00 0.  1.
         -2   -1    0    0    0  501 -0.00000000000E+00 -0.00000000000E+00 -0.53519500011E+02  0.53519500011E+02  0.00000000000E+00 0. -1.
          6    2    1    2  503    0 -0.98813286325E+02  0.10916332445E+02  0.34366683609E+03  0.39764651798E+03  0.17358752019E+03 0.  0.
         24    2    3    3    0    0 -0.92927031081E+02  0.68428895662E+02  0.26054526773E+03  0.29628761085E+03  0.81145332208E+02 0.  0.
         -6    2    1    2    0  501  0.98813286325E+02 -0.10916332445E+02  0.35434579491E+03  0.40740511304E+03  0.17474195802E+03 0.  0.
        -24    2    5    5    0    0  0.64163969886E+02 -0.51412137962E+02  0.11732972055E+03  0.16442528899E+03  0.80679547418E+02 0.  0.
          2    1    4    4  502    0 -0.58070497684E+02  0.84328201886E+02  0.17965272399E+03  0.20678135692E+03  0.00000000000E+00 0. -1.
         -1    1    4    4    0  502 -0.34856533397E+02 -0.15899306224E+02  0.80892543744E+02  0.89506253928E+02  0.00000000000E+00 0.  1.
          5    1    3    3  503    0 -0.58862552447E+01 -0.57512563217E+02  0.83121568357E+02  0.10135890713E+03  0.47000000000E+01 0. -1.
         13    1    6    6    0    0  0.44923105692E+02 -0.10232864696E+02  0.10883497166E+03  0.11818565057E+03  0.00000000000E+00 0. -1.
        -14    1    6    6    0    0  0.19240864194E+02 -0.41179273266E+02  0.84947488901E+01  0.46239638411E+02  0.00000000000E+00 0.  1.
         -5    1    5    5    0  501  0.34649316439E+02  0.40495805516E+02  0.23701607435E+03  0.24297982405E+03  0.47000000000E+01 0.  1.
<mgrwt>
<rscale>  2 0.20054032E+03</rscale>
<asrwt>0</asrwt>
<pdfrwt beam="1">  1        2 0.11562032E+00 0.20054032E+03</pdfrwt>
<pdfrwt beam="2">  1       -2 0.82337698E-02 0.20054032E+03</pdfrwt>
<totfact> 0.34338205E+03</totfact>
</mgrwt>
</event>
<event>
12    1  0.5759937E-002  0.2168057E+03  0.7546771E-02  0.1136287E+00
          1   -1    0    0  503    0  0.00000000000E+00  0.00000000000E+00  0.55277737369E+03  0.55277737369E+03  0.00000000000E+00 0. -1.
         -1   -1    0    0    0  501 -0.00000000000E+00 -0.00000000000E+00 -0.86956850574E+02  0.86956850574E+02  0.00000000000E+00 0.  1.
          6    2    1    2  503    0  0.78723641263E+02  0.10230276888E+03  0.27941325856E+03  0.35305524780E+03  0.17295366642E+03 0.  0.
         24    2    3    3    0    0  0.23243168308E+02  0.89277606360E+02  0.84082936833E+02  0.14952696396E+03  0.82326404116E+02 0.  0.
         -6    2    1    2    0  501 -0.78723641263E+02 -0.10230276888E+03  0.18640726456E+03  0.28667897646E+03  0.17542491001E+03 0.  0.
        -24    2    5    5    0    0 -0.40826070769E+02 -0.66665571820E+01  0.23278223290E+02  0.93765304207E+02  0.80863128523E+02 0.  0.
          4    1    4    4  502    0 -0.19096036155E+02  0.77330532603E+02  0.54033281063E+02  0.96251053667E+02  0.00000000000E+00 0. -1.
         -3    1    4    4    0  502  0.42339204463E+02  0.11947073757E+02  0.30049655770E+02  0.53275910295E+02  0.00000000000E+00 0.  1.
          5    1    3    3  503    0  0.55480472955E+02  0.13025162520E+02  0.19533032173E+03  0.20352828384E+03  0.47000000000E+01 0. -1.
         13    1    6    6    0    0 -0.22223094609E+02 -0.85036717576E+01  0.53316583740E+02  0.58385241877E+02  0.00000000000E+00 0. -1.
        -14    1    6    6    0    0 -0.18602976159E+02  0.18371145756E+01 -0.30038360450E+02  0.35380062330E+02  0.00000000000E+00 0.  1.
         -5    1    5    5    0  501 -0.37897570494E+02 -0.95636211699E+02  0.16312904127E+03  0.19291367226E+03  0.47000000000E+01 0.  1.
<mgrwt>
<rscale>  2 0.21680575E+03</rscale>
<asrwt>0</asrwt>
<pdfrwt beam="1">  1        1 0.85042671E-01 0.21680575E+03</pdfrwt>
<pdfrwt beam="2">  1       -1 0.13377977E-01 0.21680575E+03</pdfrwt>
<totfact> 0.15155417E+03</totfact>
</mgrwt>
</event>
<event>
12    1  0.5759937E-002  0.1910360E+03  0.7546771E-02  0.1157530E+00
          2   -1    0    0  503    0  0.00000000000E+00  0.00000000000E+00  0.27459518125E+03  0.27459518125E+03  0.00000000000E+00 0. -1.
         -2   -1    0    0    0  501 -0.00000000000E+00 -0.00000000000E+00 -0.13375565450E+03  0.13375565450E+03  0.00000000000E+00 0.  1.
          6    2    1    2  503    0 -0.38145181078E+02  0.71281845300E+02  0.86715051849E+02  0.20980084136E+03  0.17309169971E+03 0.  0.
         24    2    3    3    0    0  0.16657827006E+01  0.53378202302E+02 -0.16090219323E+02  0.98013243430E+02  0.80595864763E+02 0.  0.
         -6    2    1    2    0  501  0.38145181078E+02 -0.71281845300E+02  0.54124474905E+02  0.19854999439E+03  0.17307941871E+03 0.  0.
        -24    2    5    5    0    0 -0.20472580191E+01 -0.58515961690E+02  0.94114178044E+02  0.14024333695E+03  0.85920928832E+02 0.  0.
          4    1    4    4  502    0  0.35921604438E+02  0.60071975946E+01  0.29289708878E+01  0.36538020729E+02  0.00000000000E+00 0. -1.
         -3    1    4    4    0  502 -0.34255821737E+02  0.47371004708E+02 -0.19019190211E+02  0.61475222701E+02  0.00000000000E+00 0.  1.
          5    1    3    3  503    0 -0.39810963779E+02  0.17903642998E+02  0.10280527117E+03  0.11178759793E+03  0.47000000000E+01 0. -1.
         13    1    6    6    0    0  0.75485450198E+00  0.22598686765E+02  0.24203376086E+02  0.33122105350E+02  0.00000000000E+00 0. -1.
        -14    1    6    6    0    0 -0.28021125211E+01 -0.81114648456E+02  0.69910801958E+02  0.10712123160E+03  0.00000000000E+00 0.  1.
         -5    1    5    5    0  501  0.40192439097E+02 -0.12765883610E+02 -0.39989703140E+02  0.58306657443E+02  0.47000000000E+01 0.  1.
<mgrwt>
<rscale>  2 0.19103604E+03</rscale>
<asrwt>0</asrwt>
<pdfrwt beam="1">  1        2 0.42245412E-01 0.19103604E+03</pdfrwt>
<pdfrwt beam="2">  1       -2 0.20577793E-01 0.19103604E+03</pdfrwt>
<totfact> 0.23741662E+03</totfact>
</mgrwt>
</event>
<event>
12    1  0.5759937E-002  0.1939166E+03  0.7546771E-02  0.1154975E+00
         -1   -1    0    0    0  501 -0.00000000000E+00  0.00000000000E+00  0.18419965261E+03  0.18419965261E+03  0.00000000000E+00 0. -1.
          1   -1    0    0  503    0  0.00000000000E+00 -0.00000000000E+00 -0.21294812891E+03  0.21294812891E+03  0.00000000000E+00 0.  1.
          6    2    1    2  503    0 -0.85950238538E+02  0.23338051606E+02  0.26075914217E+02  0.19414220351E+03  0.17052604998E+03 0.  0.
         24    2    3    3    0    0 -0.63191911117E+02  0.18327169778E+02 -0.49660042307E+02  0.11476288936E+03  0.79845464430E+02 0.  0.
         -6    2    1    2    0  501  0.85950238538E+02 -0.23338051606E+02 -0.54824390515E+02  0.20300557802E+03  0.17399265144E+03 0.  0.
        -24    2    5    5    0    0  0.47068344506E+02  0.45557923235E+02  0.57383560463E+01  0.10326394527E+03  0.79621355414E+02 0.  0.
          2    1    4    4  502    0 -0.36173385402E+02 -0.29492596107E+02 -0.33695972837E+02  0.57565142421E+02  0.00000000000E+00 0. -1.
         -1    1    4    4    0  502 -0.27018525715E+02  0.47819765884E+02 -0.15964069470E+02  0.57197746941E+02  0.00000000000E+00 0.  1.
          5    1    3    3  503    0 -0.22758327422E+02  0.50108818284E+01  0.75735956524E+02  0.79379314147E+02  0.47000000000E+01 0. -1.
         13    1    6    6    0    0  0.34709301546E+02  0.62028089896E+01  0.37297820890E+02  0.51325801467E+02  0.00000000000E+00 0. -1.
        -14    1    6    6    0    0  0.12359042960E+02  0.39355114245E+02 -0.31559464843E+02  0.51938143799E+02  0.00000000000E+00 0.  1.
         -5    1    5    5    0  501  0.38881894033E+02 -0.68895974841E+02 -0.60562746562E+02  0.99741632752E+02  0.47000000000E+01 0.  1.
<mgrwt>
<rscale>  2 0.19391662E+03</rscale>
<asrwt>0</asrwt>
<pdfrwt beam="2">  1        1 0.32761251E-01 0.19391662E+03</pdfrwt>
<pdfrwt beam="1">  1       -1 0.28338408E-01 0.19391662E+03</pdfrwt>
<totfact> 0.15126602E+03</totfact>
</mgrwt>
</event>
<event>
12    1  0.5759937E-002  0.1892632E+03  0.7546771E-02  0.1159128E+00
         -3   -1    0    0    0  501 -0.00000000000E+00  0.00000000000E+00  0.20000130621E+03  0.20000130621E+03  0.00000000000E+00 0.  1.
          3   -1    0    0  503    0  0.00000000000E+00 -0.00000000000E+00 -0.33975254550E+03  0.33975254550E+03  0.00000000000E+00 0. -1.
          6    2    1    2  503    0  0.44049837375E+02  0.61773026068E+02  0.11579109993E+03  0.22148086786E+03  0.17288696042E+03 0.  0.
         24    2    3    3    0    0 -0.31437911082E+02  0.68885397097E+02  0.84530730324E+02  0.13933291173E+03  0.80837341221E+02 0.  0.
         -6    2    1    2    0  501 -0.44049837375E+02 -0.61773026068E+02 -0.25554233922E+03  0.31827298385E+03  0.17389511262E+03 0.  0.
        -24    2    5    5    0    0  0.42013695388E+01 -0.24038078291E+02 -0.24126241912E+03  0.25520071284E+03  0.79525896675E+02 0.  0.
          4    1    4    4  502    0 -0.31670561279E+02  0.60538350613E+02  0.15837152186E+02  0.70133670488E+02  0.00000000000E+00 0. -1.
         -3    1    4    4    0  502  0.23265019685E+00  0.83470464832E+01  0.68693578139E+02  0.69199241243E+02  0.00000000000E+00 0.  1.
          5    1    3    3  503    0  0.75487748458E+02 -0.71123710282E+01  0.31260369602E+02  0.82147956131E+02  0.47000000000E+01 0. -1.
         13    1    6    6    0    0  0.22571199541E+02 -0.47231199866E+02 -0.17435075968E+03  0.18203964593E+03  0.00000000000E+00 0. -1.
        -14    1    6    6    0    0 -0.18369830002E+02  0.23193121575E+02 -0.66911659431E+02  0.73161066904E+02  0.00000000000E+00 0.  1.
         -5    1    5    5    0  501 -0.48251206914E+02 -0.37734947778E+02 -0.14279920103E+02  0.63072271012E+02  0.47000000000E+01 0.  1.
<mgrwt>
<rscale>  2 0.18926324E+03</rscale>
<asrwt>0</asrwt>
<pdfrwt beam="2">  1        3 0.52269622E-01 0.18926324E+03</pdfrwt>
<pdfrwt beam="1">  1       -3 0.30769432E-01 0.18926324E+03</pdfrwt>
<totfact> 0.90959663E+01</totfact>
</mgrwt>
</event>
<event>
12    1  0.5759937E-002  0.2008893E+03  0.7546771E-02  0.1148991E+00
          2   -1    0    0  503    0  0.00000000000E+00  0.00000000000E+00  0.12848764313E+04  0.12848764313E+04  0.00000000000E+00 0. -1.
         -2   -1    0    0    0  501 -0.00000000000E+00 -0.00000000000E+00 -0.32339409954E+02  0.32339409954E+02  0.00000000000E+00 0.  1.
          6    2    1    2  503    0  0.18611198620E+02  0.97625956703E+02  0.51276061849E+03  0.55049163882E+03  0.17389763773E+03 0.  0.
         24    2    3    3    0    0 -0.47189746028E+02  0.92230268451E+02  0.38614326259E+03  0.40761783933E+03  0.79450545289E+02 0.  0.
         -6    2    1    2    0  501 -0.18611198620E+02 -0.97625956703E+02  0.73977640290E+03  0.76672420247E+03  0.17527028336E+03 0.  0.
        -24    2    5    5    0    0 -0.38196729659E+02  0.12262200962E+02  0.33704232775E+03  0.34878183143E+03  0.80261345073E+02 0.  0.
          2    1    4    4  502    0 -0.34751759207E+02  0.96360037568E+02  0.37918894801E+03  0.39278136399E+03  0.00000000000E+00 0. -1.
         -1    1    4    4    0  502 -0.12437986821E+02 -0.41297691177E+01  0.69543145830E+01  0.14836475337E+02  0.00000000000E+00 0.  1.
          5    1    3    3  503    0  0.65800944648E+02  0.53956882518E+01  0.12661735590E+03  0.14287379950E+03  0.47000000000E+01 0. -1.
         13    1    6    6    0    0  0.92183155606E+01 -0.41434394982E+00  0.23864306866E+03  0.23882140449E+03  0.00000000000E+00 0. -1.
        -14    1    6    6    0    0 -0.47415045219E+02  0.12676544912E+02  0.98399259092E+02  0.10996042695E+03  0.00000000000E+00 0.  1.
         -5    1    5    5    0  501  0.19585531039E+02 -0.10988815766E+03  0.40273407515E+03  0.41794237104E+03  0.47000000000E+01 0.  1.
<mgrwt>
<rscale>  2 0.20088933E+03</rscale>
<asrwt>0</asrwt>
<pdfrwt beam="1">  1        2 0.19767326E+00 0.20088933E+03</pdfrwt>
<pdfrwt beam="2">  1       -2 0.49752948E-02 0.20088933E+03</pdfrwt>
<totfact> 0.35134401E+03</totfact>
</mgrwt>
</event>
<event>
12    1  0.5759937E-002  0.1989166E+03  0.7546771E-02  0.1150656E+00
          2   -1    0    0  503    0  0.00000000000E+00  0.00000000000E+00  0.18782975879E+04  0.18782975879E+04  0.00000000000E+00 0.  1.
         -2   -1    0    0    0  501 -0.00000000000E+00 -0.00000000000E+00 -0.22896034615E+02  0.22896034615E+02  0.00000000000E+00 0. -1.
          6    2    1    2  503    0 -0.76296300916E+02 -0.63823781046E+02  0.11970644115E+04  0.12135018733E+04  0.17242096908E+03 0.  0.
         24    2    3    3    0    0 -0.84448468799E+02 -0.95890210137E+02  0.74518793349E+03  0.76039134029E+03  0.81015170712E+02 0.  0.
         -6    2    1    2    0  501  0.76296300916E+02  0.63823781046E+02  0.65833714179E+03  0.68769174925E+03  0.17209749902E+03 0.  0.
        -24    2    5    5    0    0  0.10715201257E+03  0.48622671548E+02  0.35200506291E+03  0.37939873729E+03  0.78677312873E+02 0.  0.
          4    1    4    4  502    0 -0.62809057614E+02 -0.71643277235E+02  0.31793564601E+03  0.33190482355E+03  0.00000000000E+00 0. -1.
         -3    1    4    4    0  502 -0.21639411185E+02 -0.24246932901E+02  0.42725228747E+03  0.42848651673E+03  0.00000000000E+00 0.  1.
          5    1    3    3  503    0  0.81521678832E+01  0.32066429090E+02  0.45187647800E+03  0.45311053297E+03  0.47000000000E+01 0. -1.
         13    1    6    6    0    0  0.13996970310E+02 -0.93214713109E+01  0.85849276517E+01  0.18881366159E+02  0.00000000000E+00 0. -1.
        -14    1    6    6    0    0  0.93155042257E+02  0.57944142859E+02  0.34342013525E+03  0.36051737113E+03  0.00000000000E+00 0.  1.
         -5    1    5    5    0  501 -0.30855711651E+02  0.15201109498E+02  0.30633207888E+03  0.30829301196E+03  0.47000000000E+01 0.  1.
<mgrwt>
<rscale>  2 0.19891664E+03</rscale>
<asrwt>0</asrwt>
<pdfrwt beam="1">  1        2 0.28896874E+00 0.19891664E+03</pdfrwt>
<pdfrwt beam="2">  1       -2 0.35224684E-02 0.19891664E+03</pdfrwt>
<totfact> 0.28687084E+03</totfact>
</mgrwt>
</event>
<event>
12    1  0.5759937E-002  0.2331219E+03  0.7546771E-02  0.1124462E+00
          2   -1    0    0  503    0  0.00000000000E+00  0.00000000000E+00  0.15470368531E+04  0.15470368531E+04  0.00000000000E+00 0.  1.
         -2   -1    0    0    0  501 -0.00000000000E+00 -0.00000000000E+00 -0.37707850699E+02  0.37707850699E+02  0.00000000000E+00 0. -1.
          6    2    1    2  503    0 -0.97780044689E+02  0.12131916560E+03  0.96419310009E+03  0.99215673472E+03  0.17443444300E+03 0.  0.
         24    2    3    3    0    0 -0.13057519464E+03  0.62344230305E+02  0.68529854038E+03  0.70517619481E+03  0.81869968643E+02 0.  0.
         -6    2    1    2    0  501  0.97780044689E+02 -0.12131916560E+03  0.54513590234E+03  0.59258796911E+03  0.17236029715E+03 0.  0.
        -24    2    5    5    0    0  0.80416627337E+02 -0.15611672815E+03  0.44776902292E+03  0.48763675268E+03  0.80332047885E+02 0.  0.
          2    1    4    4  502    0 -0.86762519950E+02  0.35679865305E+02  0.25276754296E+03  0.26961494475E+03  0.00000000000E+00 0. -1.
         -1    1    4    4    0  502 -0.43812674689E+02  0.26664365000E+02  0.43253099742E+03  0.43556125006E+03  0.00000000000E+00 0.  1.
          5    1    3    3  503    0  0.32795149951E+02  0.58974935290E+02  0.27889455971E+03  0.28698053991E+03  0.47000000000E+01 0. -1.
         13    1    6    6    0    0  0.43442701477E+02 -0.13083489655E+02  0.10706507858E+03  0.11628145624E+03  0.00000000000E+00 0. -1.
        -14    1    6    6    0    0  0.36973925859E+02 -0.14303323850E+03  0.34070394434E+03  0.37135529645E+03  0.00000000000E+00 0.  1.
         -5    1    5    5    0  501  0.17363417352E+02  0.34797562557E+02  0.97366879421E+02  0.10495121643E+03  0.47000000000E+01 0.  1.
<mgrwt>
<rscale>  2 0.23312188E+03</rscale>
<asrwt>0</asrwt>
<pdfrwt beam="1">  1        2 0.23800562E+00 0.23312188E+03</pdfrwt>
<pdfrwt beam="2">  1       -2 0.58012090E-02 0.23312188E+03</pdfrwt>
<totfact> 0.20096561E+03</totfact>
</mgrwt>
</event>
<event>
12    1  0.5759937E-002  0.2045179E+03  0.7546771E-02  0.1145982E+00
          2   -1    0    0  503    0  0.00000000000E+00  0.00000000000E+00  0.75925945497E+03  0.75925945497E+03  0.00000000000E+00 0. -1.
         -2   -1    0    0    0  501 -0.00000000000E+00 -0.00000000000E+00 -0.55090820273E+02  0.55090820273E+02  0.00000000000E+00 0.  1.
          6    2    1    2  503    0 -0.78355412279E+02  0.76147149578E+02  0.35233755944E+03  0.40772942745E+03  0.17367662823E+03 0.  0.
         24    2    3    3    0    0  0.27442048084E+01  0.49420121364E+02  0.83446646287E+02  0.12556653991E+03  0.79710313717E+02 0.  0.
         -6    2    1    2    0  501  0.78355412279E+02 -0.76147149578E+02  0.35183107525E+03  0.40662084779E+03  0.17209720893E+03 0.  0.
        -24    2    5    5    0    0  0.20312012270E+02 -0.97699884771E+02  0.30553038914E+03  0.32916505257E+03  0.71013856523E+02 0.  0.
          4    1    4    4  502    0  0.41062443718E+02  0.22269900700E+02  0.45196486162E+02  0.64998424001E+02  0.00000000000E+00 0. -1.
         -3    1    4    4    0  502 -0.38318238909E+02  0.27150220664E+02  0.38250160125E+02  0.60568115909E+02  0.00000000000E+00 0.  1.
          5    1    3    3  503    0 -0.81099617087E+02  0.26727028215E+02  0.26889091315E+03  0.28216288754E+03  0.47000000000E+01 0. -1.
         13    1    6    6    0    0 -0.18972837758E+02 -0.23702362200E+02  0.36961780066E+02  0.47832454799E+02  0.00000000000E+00 0. -1.
        -14    1    6    6    0    0  0.39284850028E+02 -0.73997522571E+02  0.26856860907E+03  0.28133259777E+03  0.00000000000E+00 0.  1.
         -5    1    5    5    0  501  0.58043400009E+02  0.21552735193E+02  0.46300686118E+02  0.77455795224E+02  0.47000000000E+01 0.  1.
<mgrwt>
<rscale>  2 0.20451792E+03</rscale>
<asrwt>0</asrwt>
<pdfrwt beam="1">  1        2 0.11680914E+00 0.20451792E+03</pdfrwt>
<pdfrwt beam="2">  1       -2 0.84755114E-02 0.20451792E+03</pdfrwt>
<totfact> 0.32422981E+03</totfact>
</mgrwt>
</event>
<event>
12    1  0.5759937E-002  0.1783232E+03  0.7546771E-02  0.1169436E+00
         -1   -1    0    0    0  501 -0.00000000000E+00  0.00000000000E+00  0.67673548713E+02  0.67673548713E+02  0.00000000000E+00 0. -1.
          1   -1    0    0  503    0  0.00000000000E+00 -0.00000000000E+00 -0.47067641376E+03  0.47067641376E+03  0.00000000000E+00 0.  1.
          6    2    1    2  503    0 -0.18276870140E+02 -0.31686395059E+02 -0.18881363890E+03  0.25848336900E+03  0.17269913202E+03 0.  0.
         24    2    3    3    0    0  0.28192231300E+02 -0.15299276675E+02 -0.19033869970E+03  0.20896235479E+03  0.80047331899E+02 0.  0.
         -6    2    1    2    0  501  0.18276870140E+02  0.31686395059E+02 -0.21418922615E+03  0.27986659347E+03  0.17638087745E+03 0.  0.
        -24    2    5    5    0    0  0.23107192078E+02  0.76361402487E+02 -0.20421638859E+03  0.23359850741E+03  0.80615899067E+02 0.  0.
          2    1    4    4  502    0  0.71409411083E+01 -0.46865356809E+02 -0.90651787961E+02  0.10229907805E+03  0.00000000000E+00 0. -1.
         -1    1    4    4    0  502  0.21051290192E+02  0.31566080134E+02 -0.99686911737E+02  0.10666327674E+03  0.00000000000E+00 0.  1.
          5    1    3    3  503    0 -0.46469101440E+02 -0.16387118385E+02  0.15250608006E+01  0.49521014207E+02  0.47000000000E+01 0. -1.
         11    1    6    6    0    0  0.52609493298E+02  0.59163331050E+02 -0.13812403401E+03  0.15920523640E+03  0.00000000000E+00 0. -1.
        -12    1    6    6    0    0 -0.29502301220E+02  0.17198071437E+02 -0.66092354575E+02  0.74393271011E+02  0.00000000000E+00 0.  1.
         -5    1    5    5    0  501 -0.48303219380E+01 -0.44675007427E+02 -0.99728375571E+01  0.46268086059E+02  0.47000000000E+01 0.  1.
<mgrwt>
<rscale>  2 0.17832325E+03</rscale>
<asrwt>0</asrwt>
<pdfrwt beam="2">  1        1 0.72411756E-01 0.17832325E+03</pdfrwt>
<pdfrwt beam="1">  1       -1 0.10411315E-01 0.17832325E+03</pdfrwt>
<totfact> 0.27585548E+03</totfact>
</mgrwt>
</event>
<event>
12    1  0.5759937E-002  0.1868314E+03  0.7546771E-02  0.1161351E+00
         -3   -1    0    0    0  501 -0.00000000000E+00  0.00000000000E+00  0.66770183098E+03  0.66770183098E+03  0.00000000000E+00 0.  1.
          3   -1    0    0  503    0  0.00000000000E+00 -0.00000000000E+00 -0.68461914090E+02  0.68461914090E+02  0.00000000000E+00 0. -1.
          6    2    1    2  503    0  0.15685563295E+02 -0.71390622554E+02  0.12172759757E+03  0.22371770952E+03  0.17288535988E+03 0.  0.
         24    2    3    3    0    0  0.12454049595E+02  0.17153066497E+02  0.10433754582E+03  0.13330238200E+03  0.80211411514E+02 0.  0.
         -6    2    1    2    0  501 -0.15685563295E+02  0.71390622554E+02  0.47751231932E+03  0.51244603555E+03  0.17099785484E+03 0.  0.
        -24    2    5    5    0    0 -0.71493476400E+02  0.44682977894E+02  0.37442966716E+03  0.39213001573E+03  0.80377160345E+02 0.  0.
          4    1    4    4  502    0  0.32491304343E+02 -0.21581806914E+02  0.55379659443E+02  0.67737478013E+02  0.00000000000E+00 0. -1.
         -3    1    4    4    0  502 -0.20037254747E+02  0.38734873411E+02  0.48957886379E+02  0.65564903986E+02  0.00000000000E+00 0.  1.
          5    1    3    3  503    0  0.32315137001E+01 -0.88543689051E+02  0.17390051749E+02  0.90415327525E+02  0.47000000000E+01 0. -1.
         13    1    6    6    0    0 -0.74916185373E+02  0.62462701776E+02  0.29680099184E+03  0.31241775350E+03  0.00000000000E+00 0. -1.
        -14    1    6    6    0    0  0.34227089728E+01 -0.17779723881E+02  0.77628675319E+02  0.79712262229E+02  0.00000000000E+00 0.  1.
         -5    1    5    5    0  501  0.55807913105E+02  0.26707644659E+02  0.10308265216E+03  0.12031601982E+03  0.47000000000E+01 0.  1.
<mgrwt>
<rscale>  2 0.18683136E+03</rscale>
<asrwt>0</asrwt>
<pdfrwt beam="2">  1        3 0.10532603E-01 0.18683136E+03</pdfrwt>
<pdfrwt beam="1">  1       -3 0.10272335E+00 0.18683136E+03</pdfrwt>
<totfact> 0.13963506E+02</totfact>
</mgrwt>
</event>
<event>
12    1  0.5759937E-002  0.3550763E+03  0.7546771E-02  0.1060551E+00
          1   -1    0    0  503    0  0.00000000000E+00  0.00000000000E+00  0.44224921427E+03  0.44224921427E+03  0.00000000000E+00 0. -1.
         -1   -1    0    0    0  501 -0.00000000000E+00 -0.00000000000E+00 -0.65241884005E+03  0.65241884005E+03  0.00000000000E+00 0.  1.
          6    2    1    2  503    0 -0.27876060973E+03  0.13708325720E+03 -0.51575329317E+03  0.62604979625E+03  0.17157386465E+03 0.  0.
         24    2    3    3    0    0 -0.20898071356E+03  0.16589275455E+03 -0.39168432691E+03  0.48074178051E+03  0.80639338633E+02 0.  0.
         -6    2    1    2    0  501  0.27876060973E+03 -0.13708325720E+03  0.30558366739E+03  0.46861825807E+03  0.17240184769E+03 0.  0.
        -24    2    5    5    0    0  0.20698056392E+03 -0.84979627190E+02  0.29558908889E+03  0.37923624178E+03  0.79904485086E+02 0.  0.
          4    1    4    4  502    0 -0.17894291451E+02  0.27307555325E+02 -0.14364424142E+02  0.35668542517E+02  0.00000000000E+00 0. -1.
         -3    1    4    4    0  502 -0.19108642211E+03  0.13858519923E+03 -0.37731990276E+03  0.44507323800E+03  0.00000000000E+00 0.  1.
          5    1    3    3  503    0 -0.69779896170E+02 -0.28809497358E+02 -0.12406896626E+03  0.14530801574E+03  0.47000000000E+01 0. -1.
         13    1    6    6    0    0  0.13677151735E+03 -0.21714039908E+02  0.21108606509E+03  0.25245846067E+03  0.00000000000E+00 0. -1.
        -14    1    6    6    0    0  0.70209046566E+02 -0.63265587282E+02  0.84503023795E+02  0.12677778111E+03  0.00000000000E+00 0.  1.
         -5    1    5    5    0  501  0.71780045809E+02 -0.52103630006E+02  0.99945784985E+01  0.89382016287E+02  0.47000000000E+01 0.  1.
<mgrwt>
<rscale>  2 0.35507634E+03</rscale>
<asrwt>0</asrwt>
<pdfrwt beam="1">  1        1 0.68038341E-01 0.35507634E+03</pdfrwt>
<pdfrwt beam="2">  1       -1 0.10037213E+00 0.35507634E+03</pdfrwt>
<totfact> 0.52958029E+01</totfact>
</mgrwt>
</event>
<event>
12    1  0.5759937E-002  0.2424713E+03  0.7546771E-02  0.1118157E+00
         -2   -1    0    0    0  501 -0.00000000000E+00  0.00000000000E+00  0.41908249243E+02  0.41908249243E+02  0.00000000000E+00 0.  1.
          2   -1    0    0  503    0  0.00000000000E+00 -0.00000000000E+00 -0.14309106179E+04  0.14309106179E+04  0.00000000000E+00 0. -1.
          6    2    1    2  503    0  0.16875535216E+03 -0.17017457417E+02 -0.59330382322E+03  0.64118788639E+03  0.17419677455E+03 0.  0.
         24    2    3    3    0    0  0.86538809600E+02  0.42944821912E+02 -0.43247852101E+03  0.45081482463E+03  0.82843899431E+02 0.  0.
         -6    2    1    2    0  501 -0.16875535216E+03  0.17017457417E+02 -0.79569854544E+03  0.83163098076E+03  0.17235414181E+03 0.  0.
        -24    2    5    5    0    0 -0.18171961548E+03  0.33018743747E+02 -0.55140364517E+03  0.58642453389E+03  0.75733070400E+02 0.  0.
          2    1    4    4  502    0  0.81371167742E+02  0.65282231063E+02 -0.35180383747E+03  0.36694546828E+03  0.00000000000E+00 0. -1.
         -1    1    4    4    0  502  0.51676418580E+01 -0.22337409151E+02 -0.80674683537E+02  0.83869356345E+02  0.00000000000E+00 0.  1.
          5    1    3    3  503    0  0.82216542562E+02 -0.59962279329E+02 -0.16082530221E+03  0.19037306176E+03  0.47000000000E+01 0. -1.
         11    1    6    6    0    0 -0.14823237526E+03 -0.33830913311E+00 -0.46339777906E+03  0.48652898492E+03  0.00000000000E+00 0. -1.
        -12    1    6    6    0    0 -0.33487240217E+02  0.33357052880E+02 -0.88005866104E+02  0.99895548965E+02  0.00000000000E+00 0.  1.
         -5    1    5    5    0  501  0.12964263318E+02 -0.16001286330E+02 -0.24429490027E+03  0.24520644687E+03  0.47000000000E+01 0.  1.
<mgrwt>
<rscale>  2 0.24247130E+03</rscale>
<asrwt>0</asrwt>
<pdfrwt beam="2">  1        2 0.22014011E+00 0.24247130E+03</pdfrwt>
<pdfrwt beam="1">  1       -2 0.64474226E-02 0.24247130E+03</pdfrwt>
<totfact> 0.19703140E+03</totfact>
</mgrwt>
</event>
<event>
12    1  0.5759937E-002  0.1803520E+03  0.7546771E-02  0.1167463E+00
         -2   -1    0    0    0  501 -0.00000000000E+00  0.00000000000E+00  0.47389760460E+03  0.47389760460E+03  0.00000000000E+00 0.  1.
          2   -1    0    0  503    0  0.00000000000E+00 -0.00000000000E+00 -0.68675290874E+02  0.68675290874E+02  0.00000000000E+00 0. -1.
          6    2    1    2  503    0 -0.13918760289E+02  0.46910274118E+02  0.19641920549E+03  0.26679309065E+03  0.17379224156E+03 0.  0.
         24    2    3    3    0    0 -0.19751844112E+02 -0.31040829021E+00  0.22741054263E+02  0.86654233297E+02  0.81250039385E+02 0.  0.
         -6    2    1    2    0  501  0.13918760289E+02 -0.46910274118E+02  0.20880310823E+03  0.27577980482E+03  0.17338240117E+03 0.  0.
        -24    2    5    5    0    0  0.75130263512E+02 -0.21560952217E+02  0.13475142544E+03  0.17630529566E+03  0.82560156648E+02 0.  0.
          4    1    4    4  502    0  0.13068217651E+02  0.85450368713E+01 -0.24137622348E+02  0.28747535204E+02  0.00000000000E+00 0. -1.
         -3    1    4    4    0  502 -0.32820061764E+02 -0.88554451615E+01  0.46878676611E+02  0.57906698092E+02  0.00000000000E+00 0.  1.
          5    1    3    3  503    0  0.58330838230E+01  0.47220682408E+02  0.17367815123E+03  0.18013885735E+03  0.47000000000E+01 0. -1.
         13    1    6    6    0    0  0.13220489635E+02  0.12622628248E+02 -0.56219810245E+01  0.19123774751E+02  0.00000000000E+00 0. -1.
        -14    1    6    6    0    0  0.61909773877E+02 -0.34183580465E+02  0.14037340646E+03  0.15718152091E+03  0.00000000000E+00 0.  1.
         -5    1    5    5    0  501 -0.61211503223E+02 -0.25349321901E+02  0.74051682798E+02  0.99474509161E+02  0.47000000000E+01 0.  1.
<mgrwt>
<rscale>  2 0.18035196E+03</rscale>
<asrwt>0</asrwt>
<pdfrwt beam="2">  1        2 0.10565430E-01 0.18035196E+03</pdfrwt>
<pdfrwt beam="1">  1       -2 0.72907322E-01 0.18035196E+03</pdfrwt>
<totfact> 0.10308438E+03</totfact>
</mgrwt>
</event>
<event>
12    1  0.5759937E-002  0.1949793E+03  0.7546771E-02  0.1154045E+00
         -2   -1    0    0    0  501 -0.00000000000E+00  0.00000000000E+00  0.35714529929E+02  0.35714529929E+02  0.00000000000E+00 0. -1.
          2   -1    0    0  503    0  0.00000000000E+00 -0.00000000000E+00 -0.11173106695E+04  0.11173106695E+04  0.00000000000E+00 0.  1.
          6    2    1    2  503    0 -0.30001955402E+01 -0.89667351020E+02 -0.66535826735E+03  0.69325219234E+03  0.17276499423E+03 0.  0.
         24    2    3    3    0    0  0.11555985825E+01 -0.37002048278E+02 -0.62049070902E+03  0.62378210864E+03  0.52200690571E+02 0.  0.
         -6    2    1    2    0  501  0.30001955402E+01  0.89667351020E+02 -0.41623787225E+03  0.45977300713E+03  0.17345897721E+03 0.  0.
        -24    2    5    5    0    0 -0.85924667516E+00  0.88663099250E+01 -0.72590646828E+02  0.10670189662E+03  0.77695192761E+02 0.  0.
          2    1    4    4  502    0 -0.16477944613E+02 -0.18765102704E+02 -0.50130366779E+03  0.50192531225E+03  0.00000000000E+00 0. -1.
         -1    1    4    4    0  502  0.17633543195E+02 -0.18236945574E+02 -0.11918704124E+03  0.12185679640E+03  0.00000000000E+00 0.  1.
          5    1    3    3  503    0 -0.41557941227E+01 -0.52665302741E+02 -0.44867558331E+02  0.69470083692E+02  0.47000000000E+01 0. -1.
         13    1    6    6    0    0 -0.33274694617E+02 -0.31309805839E+01 -0.94703247709E+01  0.34737521393E+02  0.00000000000E+00 0. -1.
        -14    1    6    6    0    0  0.32415447941E+02  0.11997290509E+02 -0.63120322057E+02  0.71964375224E+02  0.00000000000E+00 0.  1.
         -5    1    5    5    0  501  0.38594422154E+01  0.80801041095E+02 -0.34364722543E+03  0.35307111051E+03  0.47000000000E+01 0.  1.
<mgrwt>
<rscale>  2 0.19497929E+03</rscale>
<asrwt>0</asrwt>
<pdfrwt beam="2">  1        2 0.17189396E+00 0.19497929E+03</pdfrwt>
<pdfrwt beam="1">  1       -2 0.54945426E-02 0.19497929E+03</pdfrwt>
<totfact> 0.37529187E+03</totfact>
</mgrwt>
</event>
<event>
12    1  0.5759937E-002  0.1763045E+03  0.7546771E-02  0.1171428E+00
         -1   -1    0    0    0  501 -0.00000000000E+00  0.00000000000E+00  0.66779247276E+02  0.66779247276E+02  0.00000000000E+00 0.  1.
          1   -1    0    0  503    0  0.00000000000E+00 -0.00000000000E+00 -0.52818373079E+03  0.52818373079E+03  0.00000000000E+00 0. -1.
          6    2    1    2  503    0 -0.23726374746E+02  0.25151978401E+02 -0.12840189189E+03  0.21825407418E+03  0.17306713201E+03 0.  0.
         24    2    3    3    0    0  0.51038126587E+02 -0.11168011141E+01 -0.83849346006E+02  0.12722221832E+03  0.80923682562E+02 0.  0.
         -6    2    1    2    0  501  0.23726374746E+02 -0.25151978401E+02 -0.33300259163E+03  0.37670890389E+03  0.17269426557E+03 0.  0.
        -24    2    5    5    0    0 -0.38298673336E+02  0.24438138806E+02 -0.21933613535E+03  0.23797015804E+03  0.80358228220E+02 0.  0.
          4    1    4    4  502    0  0.53022482062E+02 -0.14938815708E+02 -0.94687608951E+02  0.10954585847E+03  0.00000000000E+00 0. -1.
         -3    1    4    4    0  502 -0.19843554749E+01  0.13822014594E+02  0.10838262945E+02  0.17676359856E+02  0.00000000000E+00 0.  1.
          5    1    3    3  503    0 -0.74764501332E+02  0.26268779515E+02 -0.44552545882E+02  0.91031855860E+02  0.47000000000E+01 0. -1.
         11    1    6    6    0    0 -0.23783801431E+02 -0.12570716460E+01 -0.20269641621E+03  0.20409087825E+03  0.00000000000E+00 0. -1.
        -12    1    6    6    0    0 -0.14514871905E+02  0.25695210452E+02 -0.16639719140E+02  0.33879279798E+02  0.00000000000E+00 0.  1.
         -5    1    5    5    0  501  0.62025048082E+02 -0.49590117207E+02 -0.11366645628E+03  0.13873874584E+03  0.47000000000E+01 0.  1.
<mgrwt>
<rscale>  2 0.17630447E+03</rscale>
<asrwt>0</asrwt>
<pdfrwt beam="2">  1        1 0.81259038E-01 0.17630447E+03</pdfrwt>
<pdfrwt beam="1">  1       -1 0.10273730E-01 0.17630447E+03</pdfrwt>
<totfact> 0.24185087E+03</totfact>
</mgrwt>
</event>
<event>
12    1  0.5759937E-002  0.1809260E+03  0.7546771E-02  0.1166910E+00
          2   -1    0    0  503    0  0.00000000000E+00  0.00000000000E+00  0.19969078250E+03  0.19969078250E+03  0.00000000000E+00 0. -1.
         -2   -1    0    0    0  501 -0.00000000000E+00 -0.00000000000E+00 -0.18595594466E+03  0.18595594466E+03  0.00000000000E+00 0.  1.
          6    2    1    2  503    0  0.28339866791E+02  0.43773024649E+02  0.73243774531E+02  0.19535729077E+03  0.17343758189E+03 0.  0.
         24    2    3    3    0    0  0.12799594673E+02  0.44372842932E+02 -0.25263582958E+02  0.95519175203E+02  0.79704989768E+02 0.  0.
         -6    2    1    2    0  501 -0.28339866791E+02 -0.43773024649E+02 -0.59508936685E+02  0.19028943640E+03  0.17305932602E+03 0.  0.
        -24    2    5    5    0    0  0.21307717721E+02 -0.82751595713E+02 -0.41140279864E+02  0.12438261427E+03  0.80477740256E+02 0.  0.
          4    1    4    4  502    0 -0.25715167656E+02  0.65278872639E+01  0.12797966206E+02  0.29456257378E+02  0.00000000000E+00 0. -1.
         -3    1    4    4    0  502  0.38514762329E+02  0.37844955668E+02 -0.38061549164E+02  0.66062917825E+02  0.00000000000E+00 0.  1.
          5    1    3    3  503    0  0.15540272118E+02 -0.59981828286E+00  0.98507357489E+02  0.99838115562E+02  0.47000000000E+01 0. -1.
         11    1    6    6    0    0  0.10415189220E+02  0.67467195135E+01  0.13992731801E+02  0.18702698573E+02  0.00000000000E+00 0. -1.
        -12    1    6    6    0    0  0.10892528501E+02 -0.89498315227E+02 -0.55133011665E+02  0.10567991569E+03  0.00000000000E+00 0.  1.
         -5    1    5    5    0  501 -0.49647584513E+02  0.38978571064E+02 -0.18368656820E+02  0.65906822132E+02  0.47000000000E+01 0.  1.
<mgrwt>
<rscale>  2 0.18092601E+03</rscale>
<asrwt>0</asrwt>
<pdfrwt beam="1">  1        2 0.30721659E-01 0.18092601E+03</pdfrwt>
<pdfrwt beam="2">  1       -2 0.28608607E-01 0.18092601E+03</pdfrwt>
<totfact> 0.18770703E+03</totfact>
</mgrwt>
</event>
<event>
12    1  0.5759937E-002  0.2381269E+03  0.7546771E-02  0.1121047E+00
          1   -1    0    0  503    0  0.00000000000E+00  0.00000000000E+00  0.91062413999E+03  0.91062413999E+03  0.00000000000E+00 0. -1.
         -1   -1    0    0    0  501 -0.00000000000E+00 -0.00000000000E+00 -0.92308040957E+02  0.92308040957E+02  0.00000000000E+00 0.  1.
          6    2    1    2  503    0 -0.79212330250E+02 -0.14935821206E+03  0.12522320867E+03  0.27065868524E+03  0.17027273161E+03 0.  0.
         24    2    3    3    0    0 -0.85273206369E+02 -0.17098794641E+03  0.82986173068E+02  0.22258960158E+03  0.78428491439E+02 0.  0.
         -6    2    1    2    0  501  0.79212330250E+02  0.14935821206E+03  0.69309289036E+03  0.73227349571E+03  0.16511889376E+03 0.  0.
        -24    2    5    5    0    0  0.15625971557E+01  0.11350084170E+03  0.51667692241E+03  0.53616149759E+03  0.87345443896E+02 0.  0.
          4    1    4    4  502    0 -0.53837861648E+02 -0.16601431732E+03  0.73579073193E+02  0.18940208266E+03  0.00000000000E+00 0. -1.
         -3    1    4    4    0  502 -0.31435344721E+02 -0.49736290830E+01  0.94070998745E+01  0.33187518920E+02  0.00000000000E+00 0.  1.
          5    1    3    3  503    0  0.60608761198E+01  0.21629734346E+02  0.42237035604E+02  0.48069083659E+02  0.47000000000E+01 0. -1.
         13    1    6    6    0    0 -0.84523705736E+01 -0.11377018456E+02  0.24632907873E+02  0.28419346712E+02  0.00000000000E+00 0. -1.
        -14    1    6    6    0    0  0.10014967729E+02  0.12487786015E+03  0.49204401454E+03  0.50774215088E+03  0.00000000000E+00 0.  1.
         -5    1    5    5    0  501  0.77649733094E+02  0.35857370364E+02  0.17641596795E+03  0.19611199812E+03  0.47000000000E+01 0.  1.
<mgrwt>
<rscale>  2 0.23812688E+03</rscale>
<asrwt>0</asrwt>
<pdfrwt beam="1">  1        1 0.14009602E+00 0.23812688E+03</pdfrwt>
<pdfrwt beam="2">  1       -1 0.14201238E-01 0.23812688E+03</pdfrwt>
<totfact> 0.66081145E+02</totfact>
</mgrwt>
</event>
<event>
12    1  0.5759937E-002  0.2362613E+03  0.7546771E-02  0.1122309E+00
         -3   -1    0    0    0  501 -0.00000000000E+00  0.00000000000E+00  0.31098735790E+03  0.31098735790E+03  0.00000000000E+00 0. -1.
          3   -1    0    0  503    0  0.00000000000E+00 -0.00000000000E+00 -0.19154865306E+03  0.19154865306E+03  0.00000000000E+00 0.  1.
          6    2    1    2  503    0 -0.73964790524E+02 -0.13743992881E+03 -0.32034728833E+01  0.23677738760E+03  0.17802456227E+03 0.  0.
         24    2    3    3    0    0 -0.72131171864E+02 -0.12058322206E+02 -0.18638511237E+02  0.11034859404E+03  0.80505335335E+02 0.  0.
         -6    2    1    2    0  501  0.73964790524E+02  0.13743992881E+03  0.12264217773E+03  0.26575862336E+03  0.17670885056E+03 0.  0.
        -24    2    5    5    0    0  0.23968777948E+02  0.10364165470E+02  0.49586953221E+01  0.85427419929E+02  0.81187050533E+02 0.  0.
          2    1    4    4  502    0  0.98470258138E+01 -0.97172427641E+01 -0.24491191638E+02  0.28128405432E+02  0.00000000000E+00 0. -1.
         -1    1    4    4    0  502 -0.81978197678E+02 -0.23410794421E+01  0.58526804007E+01  0.82220188612E+02  0.00000000000E+00 0.  1.
          5    1    3    3  503    0 -0.18336186596E+01 -0.12538160660E+03  0.15435038354E+02  0.12642879355E+03  0.47000000000E+01 0. -1.
         13    1    6    6    0    0  0.15345408553E+02 -0.25781575628E+02  0.28546202296E+02  0.41413245116E+02  0.00000000000E+00 0. -1.
        -14    1    6    6    0    0  0.86233693944E+01  0.36145741098E+02 -0.23587506973E+02  0.44014174813E+02  0.00000000000E+00 0.  1.
         -5    1    5    5    0  501  0.49996012576E+02  0.12707576334E+03  0.11768348241E+03  0.18033120343E+03  0.47000000000E+01 0.  1.
<mgrwt>
<rscale>  2 0.23626133E+03</rscale>
<asrwt>0</asrwt>
<pdfrwt beam="2">  1        3 0.29469023E-01 0.23626133E+03</pdfrwt>
<pdfrwt beam="1">  1       -3 0.47844209E-01 0.23626133E+03</pdfrwt>
<totfact> 0.12009060E+02</totfact>
</mgrwt>
</event>
<event>
12    1  0.5759937E-002  0.2147271E+03  0.7546771E-02  0.1137876E+00
         -2   -1    0    0    0  501 -0.00000000000E+00  0.00000000000E+00  0.29716384787E+03  0.29716384787E+03  0.00000000000E+00 0. -1.
          2   -1    0    0  503    0  0.00000000000E+00 -0.00000000000E+00 -0.16412005384E+03  0.16412005384E+03  0.00000000000E+00 0.  1.
          6    2    1    2  503    0  0.59393936724E+02 -0.11297402087E+03  0.12031135468E+03  0.24583155982E+03  0.17224274913E+03 0.  0.
         24    2    3    3    0    0  0.68025241849E+02 -0.14581687814E+03  0.99678235470E+02  0.20581945778E+03  0.80844932401E+02 0.  0.
         -6    2    1    2    0  501 -0.59393936724E+02  0.11297402087E+03  0.12732439350E+02  0.21545234189E+03  0.17310929352E+03 0.  0.
        -24    2    5    5    0    0  0.34170088053E+02  0.22019132436E+02 -0.31326552593E+01  0.83919799565E+02  0.73350406402E+02 0.  0.
          2    1    4    4  502    0  0.39606723219E+02 -0.53357165475E+02 -0.65310925512E+00  0.66453789835E+02  0.00000000000E+00 0. -1.
         -1    1    4    4    0  502  0.28418518630E+02 -0.92459712663E+02  0.10033134473E+03  0.13936566794E+03  0.00000000000E+00 0.  1.
          5    1    3    3  503    0 -0.86313051246E+01  0.32842857265E+02  0.20633119211E+02  0.40012102043E+02  0.47000000000E+01 0. -1.
         11    1    6    6    0    0 -0.17485213962E+02  0.21906235500E+02  0.11400801922E+02  0.30258786253E+02  0.00000000000E+00 0. -1.
        -12    1    6    6    0    0  0.51655302015E+02  0.11289693583E+00 -0.14533457181E+02  0.53661013312E+02  0.00000000000E+00 0.  1.
         -5    1    5    5    0  501 -0.93564024778E+02  0.90954888437E+02  0.15865094609E+02  0.13153254232E+03  0.47000000000E+01 0.  1.
<mgrwt>
<rscale>  2 0.21472709E+03</rscale>
<asrwt>0</asrwt>
<pdfrwt beam="2">  1        2 0.25249239E-01 0.21472709E+03</pdfrwt>
<pdfrwt beam="1">  1       -2 0.45717515E-01 0.21472709E+03</pdfrwt>
<totfact> 0.97293312E+02</totfact>
</mgrwt>
</event>
<event>
12    1  0.5759937E-002  0.2261927E+03  0.7546771E-02  0.1129349E+00
          1   -1    0    0  503    0  0.00000000000E+00  0.00000000000E+00  0.54068216739E+03  0.54068216739E+03  0.00000000000E+00 0. -1.
         -1   -1    0    0    0  501 -0.00000000000E+00 -0.00000000000E+00 -0.14435566972E+03  0.14435566972E+03  0.00000000000E+00 0.  1.
          6    2    1    2  503    0 -0.14398419218E+03 -0.19705287609E+02  0.39909432389E+03  0.45864805067E+03  0.17309537561E+03 0.  0.
         24    2    3    3    0    0  0.13769481405E+01  0.37702955796E+00  0.11889034075E+03  0.14231037864E+03  0.78200336349E+02 0.  0.
         -6    2    1    2    0  501  0.14398419218E+03  0.19705287609E+02 -0.27678262271E+01  0.22638978645E+03  0.17356534386E+03 0.  0.
        -24    2    5    5    0    0  0.55073684066E+02 -0.50433199024E+02  0.58294171564E+01  0.11272146037E+03  0.84234952858E+02 0.  0.
          2    1    4    4  502    0  0.29872204156E+02 -0.20244787596E+02  0.89403128476E+02  0.96411199491E+02  0.00000000000E+00 0. -1.
         -1    1    4    4    0  502 -0.28495256016E+02  0.20621817154E+02  0.29487212278E+02  0.45899179144E+02  0.00000000000E+00 0.  1.
          5    1    3    3  503    0 -0.14536114032E+03 -0.20082317167E+02  0.28020398314E+03  0.31633767203E+03  0.47000000000E+01 0. -1.
         13    1    6    6    0    0  0.75303887300E+01  0.13510004568E+02  0.26247585032E+02  0.30465762716E+02  0.00000000000E+00 0. -1.
        -14    1    6    6    0    0  0.47543295336E+02 -0.63943203592E+02 -0.20418167875E+02  0.82255697653E+02  0.00000000000E+00 0.  1.
         -5    1    5    5    0  501  0.88910508113E+02  0.70138486632E+02 -0.85972433834E+01  0.11366832608E+03  0.47000000000E+01 0.  1.
<mgrwt>
<rscale>  2 0.22619273E+03</rscale>
<asrwt>0</asrwt>
<pdfrwt beam="1">  1        1 0.83181871E-01 0.22619273E+03</pdfrwt>
<pdfrwt beam="2">  1       -1 0.22208565E-01 0.22619273E+03</pdfrwt>
<totfact> 0.69246497E+02</totfact>
</mgrwt>
</event>
<event>
12    1  0.5759937E-002  0.1983556E+03  0.7546771E-02  0.1151134E+00
          2   -1    0    0  503    0  0.00000000000E+00  0.00000000000E+00  0.90350131927E+03  0.90350131927E+03  0.00000000000E+00 0. -1.
         -2   -1    0    0    0  501 -0.00000000000E+00 -0.00000000000E+00 -0.45029302577E+02  0.45029302577E+02  0.00000000000E+00 0.  1.
          6    2    1    2  503    0 -0.64232800192E+02 -0.71336685849E+02  0.51823529402E+03  0.55541926305E+03  0.17523687523E+03 0.  0.
         24    2    3    3    0    0  0.93489385324E+01  0.12718317308E+02  0.15135950698E+03  0.17188380323E+03  0.79907341422E+02 0.  0.
         -6    2    1    2    0  501  0.64232800192E+02  0.71336685849E+02  0.34023672267E+03  0.39311135879E+03  0.17193236340E+03 0.  0.
        -24    2    5    5    0    0 -0.13027702374E+02 -0.10283632002E+02  0.16900611262E+03  0.18823804827E+03  0.81209744478E+02 0.  0.
          4    1    4    4  502    0  0.13167037184E+02 -0.93400682284E+01  0.14843144856E+03  0.14930674018E+03  0.00000000000E+00 0. -1.
         -3    1    4    4    0  502 -0.38180986517E+01  0.22058385537E+02  0.29280584221E+01  0.22577063049E+02  0.00000000000E+00 0.  1.
          5    1    3    3  503    0 -0.73581738724E+02 -0.84055003157E+02  0.36687578703E+03  0.38353545982E+03  0.47000000000E+01 0. -1.
         13    1    6    6    0    0  0.31563084141E+02 -0.17441738267E+02  0.56755000886E+02  0.67242640043E+02  0.00000000000E+00 0. -1.
        -14    1    6    6    0    0 -0.44590786514E+02  0.71581062648E+01  0.11225111173E+03  0.12099540823E+03  0.00000000000E+00 0.  1.
         -5    1    5    5    0  501  0.77260502565E+02  0.81620317851E+02  0.17123061005E+03  0.20487331052E+03  0.47000000000E+01 0.  1.
<mgrwt>
<rscale>  2 0.19835560E+03</rscale>
<asrwt>0</asrwt>
<pdfrwt beam="1">  1        2 0.13900019E+00 0.19835560E+03</pdfrwt>
<pdfrwt beam="2">  1       -2 0.69275857E-02 0.19835560E+03</pdfrwt>
<totfact> 0.35460995E+03</totfact>
</mgrwt>
</event>
<event>
12    1  0.5759937E-002  0.1807021E+03  0.7546771E-02  0.1167125E+00
         -2   -1    0    0    0  501 -0.00000000000E+00  0.00000000000E+00  0.73176787511E+03  0.73176787511E+03  0.00000000000E+00 0. -1.
          2   -1    0    0  503    0  0.00000000000E+00 -0.00000000000E+00 -0.44930842369E+02  0.44930842369E+02  0.00000000000E+00 0.  1.
          6    2    1    2  503    0 -0.57634160857E+02  0.82111289552E+01  0.37818285262E+03  0.41976687190E+03  0.17260601841E+03 0.  0.
         24    2    3    3    0    0  0.86222171614E+01  0.57495297296E+02  0.21119541466E+03  0.23341845813E+03  0.80626432284E+02 0.  0.
         -6    2    1    2    0  501  0.57634160857E+02 -0.82111289552E+01  0.30865418012E+03  0.35693184558E+03  0.16954002580E+03 0.  0.
        -24    2    5    5    0    0  0.70839950818E+02  0.30828433331E+02  0.29162813427E+03  0.31209373067E+03  0.79917689467E+02 0.  0.
          4    1    4    4  502    0  0.43627760515E+02  0.42014816653E+02  0.11712845973E+03  0.13186243735E+03  0.00000000000E+00 0. -1.
         -3    1    4    4    0  502 -0.35005543354E+02  0.15480480643E+02  0.94066954927E+02  0.10155602078E+03  0.00000000000E+00 0.  1.
          5    1    3    3  503    0 -0.66256378019E+02 -0.49284168341E+02  0.16698743796E+03  0.18634841377E+03  0.47000000000E+01 0. -1.
         11    1    6    6    0    0  0.28827317808E+02  0.48153348772E+02  0.22172129365E+03  0.22871399456E+03  0.00000000000E+00 0. -1.
        -12    1    6    6    0    0  0.42012633010E+02 -0.17324915441E+02  0.69906840617E+02  0.83379736103E+02  0.00000000000E+00 0.  1.
         -5    1    5    5    0  501 -0.13205789960E+02 -0.39039562286E+02  0.17026045852E+02  0.44838114917E+02  0.47000000000E+01 0.  1.
<mgrwt>
<rscale>  2 0.18070206E+03</rscale>
<asrwt>0</asrwt>
<pdfrwt beam="2">  1        2 0.69124378E-02 0.18070206E+03</pdfrwt>
<pdfrwt beam="1">  1       -2 0.11257966E+00 0.18070206E+03</pdfrwt>
<totfact> 0.65735108E+02</totfact>
</mgrwt>
</event>
<event>
12    1  0.5759937E-002  0.1905148E+03  0.7546771E-02  0.1157998E+00
         -2   -1    0    0    0  501 -0.00000000000E+00  0.00000000000E+00  0.48571471069E+02  0.48571471069E+02  0.00000000000E+00 0.  1.
          2   -1    0    0  503    0  0.00000000000E+00 -0.00000000000E+00 -0.83551971370E+03  0.83551971370E+03  0.00000000000E+00 0. -1.
          6    2    1    2  503    0 -0.41959612692E+02  0.67557712794E+02 -0.53679419409E+03  0.56953744739E+03  0.17291686879E+03 0.  0.
         24    2    3    3    0    0  0.14216108369E+02  0.44408391391E+02 -0.13895854762E+03  0.16706149243E+03  0.80161470370E+02 0.  0.
         -6    2    1    2    0  501  0.41959612692E+02 -0.67557712794E+02 -0.25015404853E+03  0.31455373738E+03  0.17332729746E+03 0.  0.
        -24    2    5    5    0    0 -0.40852027481E+01 -0.10279758623E+03 -0.19454223519E+03  0.23407555715E+03  0.79753699385E+02 0.  0.
          4    1    4    4  502    0  0.45784437090E+01 -0.23391889315E+02 -0.43132361277E+02  0.49280251845E+02  0.00000000000E+00 0. -1.
         -3    1    4    4    0  502  0.96376646605E+01  0.67800280706E+02 -0.95826186345E+02  0.11778124058E+03  0.00000000000E+00 0.  1.
          5    1    3    3  503    0 -0.56175721061E+02  0.23149321403E+02 -0.39783564647E+03  0.40247595496E+03  0.47000000000E+01 0. -1.
         13    1    6    6    0    0 -0.31226206542E+02 -0.37164665419E+02 -0.12741971864E+03  0.13635275219E+03  0.00000000000E+00 0. -1.
        -14    1    6    6    0    0  0.27141003794E+02 -0.65632920815E+02 -0.67122516546E+02  0.97722804959E+02  0.00000000000E+00 0.  1.
         -5    1    5    5    0  501  0.46044815440E+02  0.35239873440E+02 -0.55611813343E+02  0.80478180225E+02  0.47000000000E+01 0.  1.
<mgrwt>
<rscale>  2 0.19051478E+03</rscale>
<asrwt>0</asrwt>
<pdfrwt beam="2">  1        2 0.12854148E+00 0.19051478E+03</pdfrwt>
<pdfrwt beam="1">  1       -2 0.74725348E-02 0.19051478E+03</pdfrwt>
<totfact> 0.34899303E+03</totfact>
</mgrwt>
</event>
<event>
12    1  0.5759937E-002  0.2521398E+03  0.7546771E-02  0.1111960E+00
         -2   -1    0    0    0  501 -0.00000000000E+00  0.00000000000E+00  0.39062119707E+03  0.39062119707E+03  0.00000000000E+00 0. -1.
          2   -1    0    0  503    0  0.00000000000E+00 -0.00000000000E+00 -0.16543062086E+03  0.16543062086E+03  0.00000000000E+00 0.  1.
          6    2    1    2  503    0 -0.46885264184E+01 -0.18344567247E+03  0.14796295084E+03  0.29233082396E+03  0.17288718515E+03 0.  0.
         24    2    3    3    0    0 -0.33914894444E+02 -0.25039299752E+02  0.49802067198E+02  0.10363951896E+03  0.80521533742E+02 0.  0.
         -6    2    1    2    0  501  0.46885264184E+01  0.18344567247E+03  0.77227625369E+02  0.26372099397E+03  0.17294611738E+03 0.  0.
        -24    2    5    5    0    0 -0.40059488592E+02  0.17196839866E+03  0.98417373545E+02  0.21267975487E+03  0.66096943594E+02 0.  0.
          4    1    4    4  502    0 -0.13503913114E+02 -0.77131330297E+01  0.68976783931E+02  0.70708166516E+02  0.00000000000E+00 0. -1.
         -3    1    4    4    0  502 -0.20410981331E+02 -0.17326166723E+02 -0.19174716733E+02  0.32931352447E+02  0.00000000000E+00 0.  1.
          5    1    3    3  503    0  0.29226368026E+02 -0.15840637272E+03  0.98160883643E+02  0.18869130500E+03  0.47000000000E+01 0. -1.
         11    1    6    6    0    0  0.71117388544E+01  0.65394882834E+02  0.62466550006E+02  0.90714593093E+02  0.00000000000E+00 0. -1.
        -12    1    6    6    0    0 -0.47171227447E+02  0.10657351583E+03  0.35950823539E+02  0.12196516178E+03  0.00000000000E+00 0.  1.
         -5    1    5    5    0  501  0.44748015011E+02  0.11477273808E+02 -0.21189748176E+02  0.51041239103E+02  0.47000000000E+01 0.  1.
<mgrwt>
<rscale>  2 0.25213977E+03</rscale>
<asrwt>0</asrwt>
<pdfrwt beam="2">  1        2 0.25450865E-01 0.25213977E+03</pdfrwt>
<pdfrwt beam="1">  1       -2 0.60095569E-01 0.25213977E+03</pdfrwt>
<totfact> 0.55674867E+02</totfact>
</mgrwt>
</event>
<event>
12    1  0.5759937E-002  0.1999001E+03  0.7546771E-02  0.1149823E+00
         -3   -1    0    0    0  501 -0.00000000000E+00  0.00000000000E+00  0.17862520027E+03  0.17862520027E+03  0.00000000000E+00 0.  1.
          3   -1    0    0  503    0  0.00000000000E+00 -0.00000000000E+00 -0.22766333119E+03  0.22766333119E+03  0.00000000000E+00 0. -1.
          6    2    1    2  503    0 -0.97145987940E+02 -0.22885556824E+02  0.23218466382E+01  0.19929201604E+03  0.17248427465E+03 0.  0.
         24    2    3    3    0    0 -0.31342713665E+02 -0.60583228901E+02  0.41814793737E+02  0.11365926380E+03  0.80729535792E+02 0.  0.
         -6    2    1    2    0  501  0.97145987940E+02  0.22885556824E+02 -0.51359977558E+02  0.20699651542E+03  0.17392129949E+03 0.  0.
        -24    2    5    5    0    0  0.10369778513E+01  0.39484542159E+02 -0.53107380313E+02  0.10933581938E+03  0.87027714917E+02 0.  0.
          2    1    4    4  502    0  0.18530266079E+02 -0.50498918391E+02  0.13625764860E+02  0.55490296338E+02  0.00000000000E+00 0. -1.
         -1    1    4    4    0  502 -0.49872979745E+02 -0.10084310510E+02  0.28189028877E+02  0.58168967466E+02  0.00000000000E+00 0.  1.
          5    1    3    3  503    0 -0.65803274275E+02  0.37697672078E+02 -0.39492947099E+02  0.85632752238E+02  0.47000000000E+01 0. -1.
         11    1    6    6    0    0  0.26697713376E+02  0.57188828157E+02 -0.43720710488E+02  0.76777799467E+02  0.00000000000E+00 0. -1.
        -12    1    6    6    0    0 -0.25660735525E+02 -0.17704285998E+02 -0.93866698251E+01  0.32558019915E+02  0.00000000000E+00 0.  1.
         -5    1    5    5    0  501  0.96109010089E+02 -0.16598985335E+02  0.17474027550E+01  0.97660696039E+02  0.47000000000E+01 0.  1.
<mgrwt>
<rscale>  2 0.19990007E+03</rscale>
<asrwt>0</asrwt>
<pdfrwt beam="2">  1        3 0.35025128E-01 0.19990007E+03</pdfrwt>
<pdfrwt beam="1">  1       -3 0.27480800E-01 0.19990007E+03</pdfrwt>
<totfact> 0.24735841E+02</totfact>
</mgrwt>
</event>
<event>
12    1  0.5759937E-002  0.2135942E+03  0.7546771E-02  0.1138751E+00
         -2   -1    0    0    0  501 -0.00000000000E+00  0.00000000000E+00  0.59090800601E+02  0.59090800601E+02  0.00000000000E+00 0.  1.
          2   -1    0    0  503    0  0.00000000000E+00 -0.00000000000E+00 -0.78921056831E+03  0.78921056831E+03  0.00000000000E+00 0. -1.
          6    2    1    2  503    0  0.12288960736E+03  0.30493899265E+02 -0.42438224621E+03  0.47428328136E+03  0.16974276594E+03 0.  0.
         24    2    3    3    0    0  0.70925977622E+02  0.68222765825E+02 -0.17039792010E+03  0.21226455284E+03  0.79598675478E+02 0.  0.
         -6    2    1    2    0  501 -0.12288960736E+03 -0.30493899265E+02 -0.30573752150E+03  0.37401808755E+03  0.17430537649E+03 0.  0.
        -24    2    5    5    0    0 -0.12386097471E+03  0.20486330152E+02 -0.27875876119E+03  0.31614001870E+03  0.80478777982E+02 0.  0.
          2    1    4    4  502    0 -0.30755935961E+01  0.22625254024E+02 -0.93377993355E+02  0.96129137303E+02  0.00000000000E+00 0. -1.
         -1    1    4    4    0  502  0.74001571218E+02  0.45597511801E+02 -0.77019926744E+02  0.11613541553E+03  0.00000000000E+00 0.  1.
          5    1    3    3  503    0  0.51963629738E+02 -0.37728866559E+02 -0.25398432611E+03  0.26201872852E+03  0.47000000000E+01 0. -1.
         13    1    6    6    0    0 -0.98373312094E+02  0.49103988269E+02 -0.22076044574E+03  0.24662458231E+03  0.00000000000E+00 0. -1.
        -14    1    6    6    0    0 -0.25487662620E+02 -0.28617658117E+02 -0.57998315446E+02  0.69515436391E+02  0.00000000000E+00 0.  1.
         -5    1    5    5    0  501  0.97136735443E+00 -0.50980229417E+02 -0.26978760315E+02  0.57878068853E+02  0.47000000000E+01 0.  1.
<mgrwt>
<rscale>  2 0.21359417E+03</rscale>
<asrwt>0</asrwt>
<pdfrwt beam="2">  1        2 0.12141701E+00 0.21359417E+03</pdfrwt>
<pdfrwt beam="1">  1       -2 0.90908924E-02 0.21359417E+03</pdfrwt>
<totfact> 0.27699330E+03</totfact>
</mgrwt>
</event>
<event>
12    1  0.5759937E-002  0.5443535E+03  0.7546771E-02  0.1002809E+00
          1   -1    0    0  503    0  0.00000000000E+00  0.00000000000E+00  0.29881113479E+04  0.29881113479E+04  0.00000000000E+00 0. -1.
         -1   -1    0    0    0  501 -0.00000000000E+00 -0.00000000000E+00 -0.11511695042E+03  0.11511695042E+03  0.00000000000E+00 0.  1.
          6    2    1    2  503    0 -0.11082098367E+03  0.50419277712E+03  0.85864164741E+03  0.10165856463E+04  0.17230568975E+03 0.  0.
         24    2    3    3    0    0 -0.95971944699E+02  0.46139799290E+03  0.67292598725E+03  0.82536774982E+03  0.79396574902E+02 0.  0.
         -6    2    1    2    0  501  0.11082098367E+03 -0.50419277712E+03  0.20143527501E+04  0.20866426520E+04  0.17311530404E+03 0.  0.
        -24    2    5    5    0    0  0.12869123479E+03 -0.49247661142E+03  0.18372646890E+04  0.19082081100E+04  0.81375713921E+02 0.  0.
          4    1    4    4  502    0 -0.77004209724E+02  0.44123753878E+03  0.65024627910E+03  0.78958244499E+03  0.00000000000E+00 0. -1.
         -3    1    4    4    0  502 -0.18967734975E+02  0.20160454114E+02  0.22679708146E+02  0.35785304830E+02  0.00000000000E+00 0.  1.
          5    1    3    3  503    0 -0.14849038970E+02  0.42794784228E+02  0.18571566016E+03  0.19121789650E+03  0.47000000000E+01 0. -1.
         13    1    6    6    0    0  0.81131132466E+02 -0.20866119404E+03  0.92073970645E+03  0.94756707498E+03  0.00000000000E+00 0. -1.
        -14    1    6    6    0    0  0.47560102320E+02 -0.28381541738E+03  0.91652498259E+03  0.96064103503E+03  0.00000000000E+00 0.  1.
         -5    1    5    5    0  501 -0.17870251117E+02 -0.11716165704E+02  0.17708806104E+03  0.17843454199E+03  0.47000000000E+01 0.  1.
<mgrwt>
<rscale>  2 0.54435346E+03</rscale>
<asrwt>0</asrwt>
<pdfrwt beam="1">  1        1 0.45970938E+00 0.54435346E+03</pdfrwt>
<pdfrwt beam="2">  1       -1 0.17710302E-01 0.54435346E+03</pdfrwt>
<totfact> 0.16789475E+01</totfact>
</mgrwt>
</event>
<event>
12    1  0.5759937E-002  0.2244820E+03  0.7546771E-02  0.1130585E+00
          2   -1    0    0  503    0  0.00000000000E+00  0.00000000000E+00  0.16216208630E+04  0.16216208630E+04  0.00000000000E+00 0.  1.
         -2   -1    0    0    0  501 -0.00000000000E+00 -0.00000000000E+00 -0.43603886698E+02  0.43603886698E+02  0.00000000000E+00 0. -1.
          6    2    1    2  503    0  0.13290908391E+03 -0.17567861650E+02  0.12435914466E+04  0.12642968910E+04  0.18426472319E+03 0.  0.
         24    2    3    3    0    0  0.21821854773E+01  0.29132737485E+02  0.39474911103E+03  0.40416558209E+03  0.81666876746E+02 0.  0.
         -6    2    1    2    0  501 -0.13290908391E+03  0.17567861650E+02  0.33442552964E+03  0.40092785863E+03  0.17586716179E+03 0.  0.
        -24    2    5    5    0    0 -0.20247530723E+02  0.37797092300E+02  0.10121665460E+03  0.14110038368E+03  0.88464255035E+02 0.  0.
          2    1    4    4  502    0  0.12827024759E+01 -0.27718650348E+02  0.90846531747E+02  0.94989795416E+02  0.00000000000E+00 0. -1.
         -1    1    4    4    0  502  0.89948300139E+00  0.56851387833E+02  0.30390257928E+03  0.30917578667E+03  0.00000000000E+00 0.  1.
          5    1    3    3  503    0  0.13072689844E+03 -0.46700599135E+02  0.84884233559E+03  0.86013130895E+03  0.47000000000E+01 0. -1.
         13    1    6    6    0    0 -0.54158506326E+02  0.27912595141E+02  0.77377740819E+02  0.98486402865E+02  0.00000000000E+00 0. -1.
        -14    1    6    6    0    0  0.33910975603E+02  0.98844971591E+01  0.23838913778E+02  0.42613980811E+02  0.00000000000E+00 0.  1.
         -5    1    5    5    0  501 -0.11266155319E+03 -0.20229230650E+02  0.23320887505E+03  0.25982747495E+03  0.47000000000E+01 0.  1.
<mgrwt>
<rscale>  2 0.22448195E+03</rscale>
<asrwt>0</asrwt>
<pdfrwt beam="1">  1        2 0.24948009E+00 0.22448195E+03</pdfrwt>
<pdfrwt beam="2">  1       -2 0.67082915E-02 0.22448195E+03</pdfrwt>
<totfact> 0.14683155E+03</totfact>
</mgrwt>
</event>
<event>
12    1  0.5759937E-002  0.2219582E+03  0.7546771E-02  0.1132432E+00
         -3   -1    0    0    0  501 -0.00000000000E+00  0.00000000000E+00  0.16564607938E+03  0.16564607938E+03  0.00000000000E+00 0. -1.
          3   -1    0    0  503    0  0.00000000000E+00 -0.00000000000E+00 -0.30576604261E+03  0.30576604261E+03  0.00000000000E+00 0.  1.
          6    2    1    2  503    0 -0.11311161324E+03  0.78966729983E+02 -0.31324207991E+02  0.22484750361E+03  0.17477188670E+03 0.  0.
         24    2    3    3    0    0 -0.80594861661E+02  0.76928579003E+02  0.42753501481E+02  0.14378524215E+03  0.80204712935E+02 0.  0.
         -6    2    1    2    0  501  0.11311161324E+03 -0.78966729983E+02 -0.10879575523E+03  0.24656461838E+03  0.17299599183E+03 0.  0.
        -24    2    5    5    0    0  0.32835838544E+02 -0.69214822935E+01 -0.11615088097E+03  0.13834768075E+03  0.67252913757E+02 0.  0.
          2    1    4    4  502    0  0.29770013507E+01  0.41300391422E+02  0.31939345626E+02  0.52294422912E+02  0.00000000000E+00 0. -1.
         -1    1    4    4    0  502 -0.83571863012E+02  0.35628187581E+02  0.10814155854E+02  0.91490819236E+02  0.00000000000E+00 0.  1.
          5    1    3    3  503    0 -0.32516751576E+02  0.20381509794E+01 -0.74077709472E+02  0.81062261460E+02  0.47000000000E+01 0. -1.
         13    1    6    6    0    0  0.15225259482E+01 -0.26092947817E+02 -0.13686981531E+02  0.29504126397E+02  0.00000000000E+00 0. -1.
        -14    1    6    6    0    0  0.31313312596E+02  0.19171465523E+02 -0.10246389944E+03  0.10884355435E+03  0.00000000000E+00 0.  1.
         -5    1    5    5    0  501  0.80275774693E+02 -0.72045247689E+02  0.73551257349E+01  0.10821693764E+03  0.47000000000E+01 0.  1.
<mgrwt>
<rscale>  2 0.22195816E+03</rscale>
<asrwt>0</asrwt>
<pdfrwt beam="2">  1        3 0.47040929E-01 0.22195816E+03</pdfrwt>
<pdfrwt beam="1">  1       -3 0.25484013E-01 0.22195816E+03</pdfrwt>
<totfact> 0.16161521E+02</totfact>
</mgrwt>
</event>
<event>
12    1  0.5759937E-002  0.2722485E+03  0.7546771E-02  0.1100000E+00
         -1   -1    0    0    0  501 -0.00000000000E+00  0.00000000000E+00  0.76795004781E+03  0.76795004781E+03  0.00000000000E+00 0.  1.
          1   -1    0    0  503    0  0.00000000000E+00 -0.00000000000E+00 -0.20876473821E+03  0.20876473821E+03  0.00000000000E+00 0. -1.
          6    2    1    2  503    0 -0.15934796473E+03  0.13739194259E+03 -0.78347355166E+02  0.28361454992E+03  0.17329334988E+03 0.  0.
         24    2    3    3    0    0 -0.72077959504E+02 -0.10110205176E+01 -0.21644499087E+02  0.11038424687E+03  0.80746165278E+02 0.  0.
         -6    2    1    2    0  501  0.15934796473E+03 -0.13739194259E+03  0.63753266477E+03  0.69310023610E+03  0.17225480802E+03 0.  0.
        -24    2    5    5    0    0  0.11989211205E+03 -0.66139086839E+02  0.24382335766E+03  0.29102705586E+03  0.80612779164E+02 0.  0.
          2    1    4    4  502    0 -0.59305931264E+02  0.35779995298E+02 -0.12539860331E+02  0.70389272221E+02  0.00000000000E+00 0. -1.
         -1    1    4    4    0  502 -0.12772028240E+02 -0.36791015816E+02 -0.91046387560E+01  0.39994974647E+02  0.00000000000E+00 0.  1.
          5    1    3    3  503    0 -0.87270005221E+02  0.13840296310E+03 -0.56702856079E+02  0.17323030305E+03  0.47000000000E+01 0. -1.
         11    1    6    6    0    0  0.79125651686E+02 -0.17234797567E+02  0.74144545026E+02  0.10979672381E+03  0.00000000000E+00 0. -1.
        -12    1    6    6    0    0  0.40766460360E+02 -0.48904289272E+02  0.16967881263E+03  0.18123033205E+03  0.00000000000E+00 0.  1.
         -5    1    5    5    0  501  0.39455852679E+02 -0.71252855748E+02  0.39370930711E+03  0.40207318024E+03  0.47000000000E+01 0.  1.
<mgrwt>
<rscale>  2 0.27224852E+03</rscale>
<asrwt>0</asrwt>
<pdfrwt beam="2">  1        1 0.32117652E-01 0.27224852E+03</pdfrwt>
<pdfrwt beam="1">  1       -1 0.11814616E+00 0.27224852E+03</pdfrwt>
<totfact> 0.96077232E+01</totfact>
</mgrwt>
</event>
<event>
12    1  0.5759937E-002  0.2249859E+03  0.7546771E-02  0.1130220E+00
         -2   -1    0    0    0  501 -0.00000000000E+00  0.00000000000E+00  0.32957575986E+02  0.32957575986E+02  0.00000000000E+00 0. -1.
          2   -1    0    0  503    0  0.00000000000E+00 -0.00000000000E+00 -0.19735587247E+04  0.19735587247E+04  0.00000000000E+00 0.  1.
          6    2    1    2  503    0 -0.10999109707E+03 -0.92356236871E+02 -0.14430363187E+04  0.14604824254E+04  0.17328410743E+03 0.  0.
         24    2    3    3    0    0 -0.18950098708E+01 -0.10497777374E+01 -0.46757293227E+03  0.47479863137E+03  0.82490000989E+02 0.  0.
         -6    2    1    2    0  501  0.10999109707E+03  0.92356236871E+02 -0.49756483002E+03  0.54603387529E+03  0.17307373276E+03 0.  0.
        -24    2    5    5    0    0  0.13572105015E+03  0.36455205765E+02 -0.33250801835E+03  0.36981583750E+03  0.80330479389E+02 0.  0.
          2    1    4    4  502    0 -0.88861110568E+00  0.25863398687E+02 -0.49477015746E+02  0.55836189953E+02  0.00000000000E+00 0. -1.
         -1    1    4    4    0  502 -0.10063987651E+01 -0.26913176425E+02 -0.41809591652E+03  0.41896244141E+03  0.00000000000E+00 0.  1.
          5    1    3    3  503    0 -0.10809608720E+03 -0.91306459134E+02 -0.97546338645E+03  0.98568379405E+03  0.47000000000E+01 0. -1.
         11    1    6    6    0    0  0.74356935321E+02 -0.14345842031E+02 -0.11059853163E+03  0.13404026340E+03  0.00000000000E+00 0. -1.
        -12    1    6    6    0    0  0.61364114826E+02  0.50801047796E+02 -0.22190948672E+03  0.23577557410E+03  0.00000000000E+00 0.  1.
         -5    1    5    5    0  501 -0.25729953079E+02  0.55901031107E+02 -0.16505681167E+03  0.17621803779E+03  0.47000000000E+01 0.  1.
<mgrwt>
<rscale>  2 0.22498589E+03</rscale>
<asrwt>0</asrwt>
<pdfrwt beam="2">  1        2 0.30362444E+00 0.22498589E+03</pdfrwt>
<pdfrwt beam="1">  1       -2 0.50703960E-02 0.22498589E+03</pdfrwt>
<totfact> 0.14763310E+03</totfact>
</mgrwt>
</event>
<event>
12    1  0.5759937E-002  0.1908487E+03  0.7546771E-02  0.1157698E+00
          1   -1    0    0  503    0  0.00000000000E+00  0.00000000000E+00  0.13321352003E+04  0.13321352003E+04  0.00000000000E+00 0. -1.
         -1   -1    0    0    0  501 -0.00000000000E+00 -0.00000000000E+00 -0.56237349938E+02  0.56237349938E+02  0.00000000000E+00 0.  1.
          6    2    1    2  503    0 -0.79353634202E+02 -0.13900338110E+02  0.14054528998E+03  0.23711093026E+03  0.17314270430E+03 0.  0.
         24    2    3    3    0    0 -0.80630837601E+02  0.23252716061E+02  0.30324844775E+02  0.12069522159E+03  0.81275577685E+02 0.  0.
         -6    2    1    2    0  501  0.79353634202E+02  0.13900338110E+02  0.11353525604E+04  0.11512616200E+04  0.17288048652E+03 0.  0.
        -24    2    5    5    0    0  0.11950164155E+03  0.15350615599E+00  0.83585307047E+03  0.84873414628E+03  0.86131467893E+02 0.  0.
          2    1    4    4  502    0 -0.65292575575E+02  0.33065465970E+01  0.55014175493E+02  0.85443625747E+02  0.00000000000E+00 0. -1.
         -1    1    4    4    0  502 -0.15338262026E+02  0.19946169464E+02 -0.24689330718E+02  0.35251595844E+02  0.00000000000E+00 0.  1.
          5    1    3    3  503    0  0.12772033986E+01 -0.37153054170E+02  0.11022044521E+03  0.11641570867E+03  0.47000000000E+01 0. -1.
         13    1    6    6    0    0  0.12535899343E+03 -0.19437333443E+02  0.71824139005E+03  0.72935819838E+03  0.00000000000E+00 0. -1.
        -14    1    6    6    0    0 -0.58573518763E+01  0.19590839599E+02  0.11761168042E+03  0.11937594790E+03  0.00000000000E+00 0.  1.
         -5    1    5    5    0  501 -0.40148007350E+02  0.13746831954E+02  0.29949948994E+03  0.30252747372E+03  0.47000000000E+01 0.  1.
<mgrwt>
<rscale>  2 0.19084868E+03</rscale>
<asrwt>0</asrwt>
<pdfrwt beam="1">  1        1 0.20494385E+00 0.19084868E+03</pdfrwt>
<pdfrwt beam="2">  1       -1 0.86519010E-02 0.19084868E+03</pdfrwt>
<totfact> 0.71474839E+02</totfact>
</mgrwt>
</event>
<event>
12    1  0.5759937E-002  0.2069070E+03  0.7546771E-02  0.1144039E+00
          1   -1    0    0  503    0  0.00000000000E+00  0.00000000000E+00  0.51909022971E+03  0.51909022971E+03  0.00000000000E+00 0.  1.
         -1   -1    0    0    0  501 -0.00000000000E+00 -0.00000000000E+00 -0.11753201409E+03  0.11753201409E+03  0.00000000000E+00 0. -1.
          6    2    1    2  503    0  0.78701992656E+02 -0.75836270815E+02  0.37687311127E+03  0.43159394017E+03  0.17970766143E+03 0.  0.
         24    2    3    3    0    0  0.13375424682E+02 -0.10411613219E+03  0.29135777832E+03  0.32022844636E+03  0.81472890607E+02 0.  0.
         -6    2    1    2    0  501 -0.78701992656E+02  0.75836270815E+02  0.24685104343E+02  0.20502830363E+03  0.17170354479E+03 0.  0.
        -24    2    5    5    0    0 -0.60272528361E+02  0.10943910452E+03 -0.16806900840E+02  0.14834962967E+03  0.78201313509E+02 0.  0.
          4    1    4    4  502    0  0.13524481906E+02 -0.10079918916E+03  0.16499064715E+03  0.19381770248E+03  0.00000000000E+00 0. -1.
         -3    1    4    4    0  502 -0.14905722367E+00 -0.33169430258E+01  0.12636713117E+03  0.12641074388E+03  0.00000000000E+00 0.  1.
          5    1    3    3  503    0  0.65326567974E+02  0.28279861374E+02  0.85515332955E+02  0.11136549382E+03  0.47000000000E+01 0. -1.
         11    1    6    6    0    0 -0.44330957285E+02  0.34437280919E+02 -0.39202162988E+02  0.68468749615E+02  0.00000000000E+00 0. -1.
        -12    1    6    6    0    0 -0.15941571076E+02  0.75001823601E+02  0.22395262148E+02  0.79880880056E+02  0.00000000000E+00 0.  1.
         -5    1    5    5    0  501 -0.18429464295E+02 -0.33602833705E+02  0.41492005183E+02  0.56678673955E+02  0.47000000000E+01 0.  1.
<mgrwt>
<rscale>  2 0.20690704E+03</rscale>
<asrwt>0</asrwt>
<pdfrwt beam="1">  1        1 0.79860034E-01 0.20690704E+03</pdfrwt>
<pdfrwt beam="2">  1       -1 0.18081849E-01 0.20690704E+03</pdfrwt>
<totfact> 0.10213235E+03</totfact>
</mgrwt>
</event>
<event>
12    1  0.5759937E-002  0.2615080E+03  0.7546771E-02  0.1106241E+00
          2   -1    0    0  503    0  0.00000000000E+00  0.00000000000E+00  0.24021838302E+04  0.24021838302E+04  0.00000000000E+00 0.  1.
         -2   -1    0    0    0  501 -0.00000000000E+00 -0.00000000000E+00 -0.28744533562E+02  0.28744533562E+02  0.00000000000E+00 0. -1.
          6    2    1    2  503    0  0.77242563497E+02  0.17996625181E+03  0.10684956587E+04  0.11000788037E+04  0.17359762756E+03 0.  0.
         24    2    3    3    0    0  0.18872506123E+02  0.14634870759E+03  0.94202950826E+03  0.95671569797E+03  0.78174270821E+02 0.  0.
         -6    2    1    2    0  501 -0.77242563497E+02 -0.17996625181E+03  0.13049436379E+04  0.13308495601E+04  0.17299823094E+03 0.  0.
        -24    2    5    5    0    0 -0.22099801528E+02 -0.49105205277E+02  0.28699715580E+03  0.30303514675E+03  0.81013642794E+02 0.  0.
          4    1    4    4  502    0  0.44853069743E+02  0.49871914499E+02  0.37710853676E+03  0.38302722386E+03  0.00000000000E+00 0. -1.
         -3    1    4    4    0  502 -0.25980563619E+02  0.96476793087E+02  0.56492097150E+03  0.57368847412E+03  0.00000000000E+00 0.  1.
          5    1    3    3  503    0  0.58370057373E+02  0.33617544220E+02  0.12646615043E+03  0.14336310572E+03  0.47000000000E+01 0. -1.
         13    1    6    6    0    0 -0.45557373663E+02 -0.39809795713E+02  0.25607422692E+03  0.26312412247E+03  0.00000000000E+00 0. -1.
        -14    1    6    6    0    0  0.23457572134E+02 -0.92954095640E+01  0.30922928876E+02  0.39911024287E+02  0.00000000000E+00 0.  1.
         -5    1    5    5    0  501 -0.55142761968E+02 -0.13086104653E+03  0.10179464821E+04  0.10278144133E+04  0.47000000000E+01 0.  1.
<mgrwt>
<rscale>  2 0.26150803E+03</rscale>
<asrwt>0</asrwt>
<pdfrwt beam="1">  1        2 0.36956658E+00 0.26150803E+03</pdfrwt>
<pdfrwt beam="2">  1       -2 0.44222378E-02 0.26150803E+03</pdfrwt>
<totfact> 0.10718314E+03</totfact>
</mgrwt>
</event>
<event>
12    1  0.5759937E-002  0.2404152E+03  0.7546771E-02  0.1119517E+00
         -2   -1    0    0    0  501 -0.00000000000E+00  0.00000000000E+00  0.25977468256E+02  0.25977468256E+02  0.00000000000E+00 0. -1.
          2   -1    0    0  503    0  0.00000000000E+00 -0.00000000000E+00 -0.28484835571E+04  0.28484835571E+04  0.00000000000E+00 0.  1.
          6    2    1    2  503    0 -0.15459376296E+03  0.62213440867E+02 -0.20839755477E+04  0.20978050008E+04  0.17338395033E+03 0.  0.
         24    2    3    3    0    0 -0.11972284923E+03 -0.37450086122E+01 -0.17341550607E+04  0.17400858920E+04  0.79104685481E+02 0.  0.
         -6    2    1    2    0  501  0.15459376296E+03 -0.62213440867E+02 -0.73853054113E+03  0.77665602453E+03  0.17319779587E+03 0.  0.
        -24    2    5    5    0    0  0.14916052051E+03 -0.61791500859E+02 -0.74528590597E+03  0.76678570990E+03  0.80263271887E+02 0.  0.
          2    1    4    4  502    0 -0.41926151564E+02 -0.39633186157E+02 -0.74044389211E+03  0.74268819096E+03  0.00000000000E+00 0. -1.
         -1    1    4    4    0  502 -0.77796697667E+02  0.35888177545E+02 -0.99371116861E+03  0.99739770106E+03  0.00000000000E+00 0.  1.
          5    1    3    3  503    0 -0.34870913725E+02  0.65958449479E+02 -0.34982048701E+03  0.35771910882E+03  0.47000000000E+01 0. -1.
         11    1    6    6    0    0  0.75153399952E+02 -0.20456397429E+02 -0.19451016348E+03  0.20952494223E+03  0.00000000000E+00 0. -1.
        -12    1    6    6    0    0  0.74007120563E+02 -0.41335103430E+02 -0.55077574249E+03  0.55726076767E+03  0.00000000000E+00 0.  1.
         -5    1    5    5    0  501  0.54332424415E+01 -0.42194000787E+00  0.67553648410E+01  0.98703146319E+01  0.47000000000E+01 0.  1.
<mgrwt>
<rscale>  2 0.24041520E+03</rscale>
<asrwt>0</asrwt>
<pdfrwt beam="2">  1        2 0.43822826E+00 0.24041520E+03</pdfrwt>
<pdfrwt beam="1">  1       -2 0.39965334E-02 0.24041520E+03</pdfrwt>
<totfact> 0.70779854E+02</totfact>
</mgrwt>
</event>
<event>
12    1  0.5759937E-002  0.2357752E+03  0.7546771E-02  0.1122640E+00
          2   -1    0    0  503    0  0.00000000000E+00  0.00000000000E+00  0.29191945536E+03  0.29191945536E+03  0.00000000000E+00 0.  1.
         -2   -1    0    0    0  501 -0.00000000000E+00 -0.00000000000E+00 -0.31078852842E+03  0.31078852842E+03  0.00000000000E+00 0. -1.
          6    2    1    2  503    0  0.10230418173E+03  0.12449247206E+03  0.17809578634E+03  0.29565713415E+03  0.17242537708E+03 0.  0.
         24    2    3    3    0    0 -0.14218179008E+02  0.43155638592E+02  0.95436355907E+02  0.13119494253E+03  0.77713892973E+02 0.  0.
         -6    2    1    2    0  501 -0.10230418173E+03 -0.12449247206E+03 -0.19696485940E+03  0.30705084962E+03  0.17181544522E+03 0.  0.
        -24    2    5    5    0    0 -0.62820291044E+02 -0.87964490181E+02 -0.40191099653E+02  0.14123959298E+03  0.81542367109E+02 0.  0.
          4    1    4    4  502    0 -0.27232334511E+02 -0.14528450871E+02  0.31332497555E+02  0.43981829551E+02  0.00000000000E+00 0. -1.
         -3    1    4    4    0  502  0.13014155503E+02  0.57684089463E+02  0.64103858352E+02  0.87213112983E+02  0.00000000000E+00 0.  1.
          5    1    3    3  503    0  0.11652236074E+03  0.81336833471E+02  0.82659430434E+02  0.16446219161E+03  0.47000000000E+01 0. -1.
         13    1    6    6    0    0 -0.40826295620E+02 -0.62893244687E+02 -0.65349775153E+02  0.99463258311E+02  0.00000000000E+00 0. -1.
        -14    1    6    6    0    0 -0.21993995424E+02 -0.25071245494E+02  0.25158675500E+02  0.41776334667E+02  0.00000000000E+00 0.  1.
         -5    1    5    5    0  501 -0.39483890686E+02 -0.36527981883E+02 -0.15677375975E+03  0.16581125664E+03  0.47000000000E+01 0.  1.
<mgrwt>
<rscale>  2 0.23577521E+03</rscale>
<asrwt>0</asrwt>
<pdfrwt beam="1">  1        2 0.44910686E-01 0.23577521E+03</pdfrwt>
<pdfrwt beam="2">  1       -2 0.47813620E-01 0.23577521E+03</pdfrwt>
<totfact> 0.47534493E+02</totfact>
</mgrwt>
</event>
<event>
12    1  0.5759937E-002  0.1716830E+03  0.7546771E-02  0.1176104E+00
         -2   -1    0    0    0  501 -0.00000000000E+00  0.00000000000E+00  0.88784550951E+02  0.88784550951E+02  0.00000000000E+00 0. -1.
          2   -1    0    0  503    0  0.00000000000E+00 -0.00000000000E+00 -0.43815601440E+03  0.43815601440E+03  0.00000000000E+00 0.  1.
          6    2    1    2  503    0 -0.45377507828E+02 -0.24077768599E+02 -0.52241035368E+02  0.18788321997E+03  0.17300902119E+03 0.  0.
         24    2    3    3    0    0  0.17903955591E+02  0.23042556686E+02 -0.65009478565E+02  0.10782079552E+03  0.80917121791E+02 0.  0.
         -6    2    1    2    0  501  0.45377507828E+02  0.24077768599E+02 -0.29713042808E+03  0.33905734538E+03  0.15503075504E+03 0.  0.
        -24    2    5    5    0    0  0.51923666431E+02  0.38682019850E+02 -0.30548999820E+03  0.32039967244E+03  0.71689924691E+02 0.  0.
          4    1    4    4  502    0  0.10830523402E+02 -0.21802674215E+02  0.45407690312E+01  0.24764398306E+02  0.00000000000E+00 0. -1.
         -3    1    4    4    0  502  0.70734321890E+01  0.44845230901E+02 -0.69550247596E+02  0.83056397214E+02  0.00000000000E+00 0.  1.
          5    1    3    3  503    0 -0.63281463419E+02 -0.47120325284E+02  0.12768443196E+02  0.80062424451E+02  0.47000000000E+01 0. -1.
         13    1    6    6    0    0 -0.10653684017E+02  0.17120364201E+02 -0.24557080429E+02  0.31775116880E+02  0.00000000000E+00 0. -1.
        -14    1    6    6    0    0  0.62577350448E+02  0.21561655649E+02 -0.28093291777E+03  0.28862455556E+03  0.00000000000E+00 0.  1.
         -5    1    5    5    0  501 -0.65461586033E+01 -0.14604251251E+02  0.83595701194E+01  0.18657672943E+02  0.47000000000E+01 0.  1.
<mgrwt>
<rscale>  2 0.17168299E+03</rscale>
<asrwt>0</asrwt>
<pdfrwt beam="2">  1        2 0.67408618E-01 0.17168299E+03</pdfrwt>
<pdfrwt beam="1">  1       -2 0.13659162E-01 0.17168299E+03</pdfrwt>
<totfact> 0.28344490E+03</totfact>
</mgrwt>
</event>
<event>
12    1  0.5759937E-002  0.2078451E+03  0.7546771E-02  0.1143284E+00
          1   -1    0    0  503    0  0.00000000000E+00  0.00000000000E+00  0.25721548989E+03  0.25721548989E+03  0.00000000000E+00 0. -1.
         -1   -1    0    0    0  501 -0.00000000000E+00 -0.00000000000E+00 -0.19267332101E+03  0.19267332101E+03  0.00000000000E+00 0.  1.
          6    2    1    2  503    0 -0.13243940761E+02 -0.11422841940E+03 -0.48227216088E+02  0.21391573279E+03  0.17381180224E+03 0.  0.
         24    2    3    3    0    0 -0.36571308066E+02 -0.12626156676E+03  0.58832731304E+01  0.15359162696E+03  0.79223299319E+02 0.  0.
         -6    2    1    2    0  501  0.13243940761E+02  0.11422841940E+03  0.11276938497E+03  0.23597307811E+03  0.17246108442E+03 0.  0.
        -24    2    5    5    0    0 -0.59415076804E+02  0.49515209746E+02  0.52706639819E+02  0.12153202039E+03  0.77525058858E+02 0.  0.
          4    1    4    4  502    0 -0.33234538512E+02 -0.21704018163E+02  0.25470405931E+02  0.47162914804E+02  0.00000000000E+00 0. -1.
         -3    1    4    4    0  502 -0.33367695533E+01 -0.10455754859E+03 -0.19587132801E+02  0.10642871215E+03  0.00000000000E+00 0.  1.
          5    1    3    3  503    0  0.23327367305E+02  0.12033147357E+02 -0.54110489218E+02  0.60324105829E+02  0.47000000000E+01 0. -1.
         11    1    6    6    0    0  0.17863535943E+02  0.19445232844E+02  0.15761099169E+02  0.30751182802E+02  0.00000000000E+00 0. -1.
        -12    1    6    6    0    0 -0.77278612747E+02  0.30069976902E+02  0.36945540650E+02  0.90780837586E+02  0.00000000000E+00 0.  1.
         -5    1    5    5    0  501  0.72659017565E+02  0.64713209654E+02  0.60062745147E+02  0.11444105772E+03  0.47000000000E+01 0.  1.
<mgrwt>
<rscale>  2 0.20784510E+03</rscale>
<asrwt>0</asrwt>
<pdfrwt beam="1">  1        1 0.39571614E-01 0.20784510E+03</pdfrwt>
<pdfrwt beam="2">  1       -1 0.29642049E-01 0.20784510E+03</pdfrwt>
<totfact> 0.11080710E+03</totfact>
</mgrwt>
</event>
<event>
12    1  0.5759937E-002  0.1982602E+03  0.7546771E-02  0.1151215E+00
          1   -1    0    0  503    0  0.00000000000E+00  0.00000000000E+00  0.29369186377E+04  0.29369186377E+04  0.00000000000E+00 0. -1.
         -1   -1    0    0    0  501 -0.00000000000E+00 -0.00000000000E+00 -0.13386353974E+02  0.13386353974E+02  0.00000000000E+00 0.  1.
          6    2    1    2  503    0 -0.10286052490E+03 -0.99793572044E+01  0.14406456537E+04  0.14538551757E+04  0.16599728059E+03 0.  0.
         24    2    3    3    0    0 -0.38853849325E+02 -0.56133351917E+02  0.40558756855E+03  0.41578274305E+03  0.60937991848E+02 0.  0.
         -6    2    1    2    0  501  0.10286052490E+03  0.99793572044E+01  0.14828866300E+04  0.14964498160E+04  0.17242221183E+03 0.  0.
        -24    2    5    5    0    0  0.11961752831E+03  0.11297231101E+00  0.82568938041E+03  0.83894813720E+03  0.88105948457E+02 0.  0.
          2    1    4    4  502    0 -0.48486189382E+02 -0.54621781713E+02  0.39365510031E+03  0.40037331030E+03  0.00000000000E+00 0. -1.
         -1    1    4    4    0  502  0.96323400568E+01 -0.15115702041E+01  0.11932468242E+02  0.15409432754E+02  0.00000000000E+00 0.  1.
          5    1    3    3  503    0 -0.64006675574E+02  0.46153994713E+02  0.10350580852E+04  0.10380724327E+04  0.47000000000E+01 0. -1.
         13    1    6    6    0    0  0.97426614990E+02 -0.37891013829E+02  0.57485142196E+03  0.58427889878E+03  0.00000000000E+00 0. -1.
        -14    1    6    6    0    0  0.22190913316E+02  0.38003986140E+02  0.25083795845E+03  0.25466923842E+03  0.00000000000E+00 0.  1.
         -5    1    5    5    0  501 -0.16757003407E+02  0.98663848934E+01  0.65719724959E+03  0.65750167877E+03  0.47000000000E+01 0.  1.
<mgrwt>
<rscale>  2 0.19826019E+03</rscale>
<asrwt>0</asrwt>
<pdfrwt beam="1">  1        1 0.45183312E+00 0.19826019E+03</pdfrwt>
<pdfrwt beam="2">  1       -1 0.20594414E-02 0.19826019E+03</pdfrwt>
<totfact> 0.53325457E+02</totfact>
</mgrwt>
</event>
<event>
12    1  0.5759937E-002  0.2805296E+03  0.7546771E-02  0.1095400E+00
          2   -1    0    0  503    0  0.00000000000E+00  0.00000000000E+00  0.43870455669E+04  0.43870455669E+04  0.00000000000E+00 0. -1.
         -2   -1    0    0    0  501 -0.00000000000E+00 -0.00000000000E+00 -0.20878704438E+02  0.20878704438E+02  0.00000000000E+00 0.  1.
          6    2    1    2  503    0 -0.14034082997E+03  0.16962478292E+03  0.30088012191E+04  0.30218319073E+04  0.17353727177E+03 0.  0.
         24    2    3    3    0    0 -0.62540981841E+02  0.17002302287E+03  0.21293737176E+04  0.21389571736E+04  0.89923072179E+02 0.  0.
         -6    2    1    2    0  501  0.14034082997E+03 -0.16962478292E+03  0.13573656434E+04  0.13860923640E+04  0.17419080396E+03 0.  0.
        -24    2    5    5    0    0  0.41722994961E+02 -0.69207339283E+02  0.90370655733E+03  0.91107889396E+03  0.82757145537E+02 0.  0.
          2    1    4    4  502    0  0.21178181013E+02  0.21252011522E+02  0.23503477786E+03  0.23694199743E+03  0.00000000000E+00 0. -1.
         -1    1    4    4    0  502 -0.83719162853E+02  0.14877101135E+03  0.18943389397E+04  0.19020151762E+04  0.00000000000E+00 0.  1.
          5    1    3    3  503    0 -0.77799848128E+02 -0.39823994796E+00  0.87942750149E+03  0.88287473366E+03  0.47000000000E+01 0. -1.
         11    1    6    6    0    0  0.51571219458E+02 -0.62815309729E+01  0.41530575550E+03  0.41854261295E+03  0.00000000000E+00 0. -1.
        -12    1    6    6    0    0 -0.98482244973E+01 -0.62925808311E+02  0.48840080184E+03  0.49253628101E+03  0.00000000000E+00 0.  1.
         -5    1    5    5    0  501  0.98617835008E+02 -0.10041744364E+03  0.45365908608E+03  0.47501347008E+03  0.47000000000E+01 0.  1.
<mgrwt>
<rscale>  2 0.28052958E+03</rscale>
<asrwt>0</asrwt>
<pdfrwt beam="1">  1        2 0.67492935E+00 0.28052958E+03</pdfrwt>
<pdfrwt beam="2">  1       -2 0.32121119E-02 0.28052958E+03</pdfrwt>
<totfact> 0.81861470E+01</totfact>
</mgrwt>
</event>
<event>
12    1  0.5759937E-002  0.1906922E+03  0.7546771E-02  0.1157839E+00
          1   -1    0    0  503    0  0.00000000000E+00  0.00000000000E+00  0.63718852761E+03  0.63718852761E+03  0.00000000000E+00 0.  1.
         -1   -1    0    0    0  501 -0.00000000000E+00 -0.00000000000E+00 -0.58896558885E+02  0.58896558885E+02  0.00000000000E+00 0. -1.
          6    2    1    2  503    0  0.72905792261E+02  0.29422695425E+02  0.22565206430E+03  0.29445687874E+03  0.17206118029E+03 0.  0.
         24    2    3    3    0    0  0.87250622387E+02  0.46928701225E+02  0.83609318418E+02  0.15054556560E+03  0.76540676057E+02 0.  0.
         -6    2    1    2    0  501 -0.72905792261E+02 -0.29422695425E+02  0.35263990442E+03  0.40162820775E+03  0.17541198796E+03 0.  0.
        -24    2    5    5    0    0  0.41536811865E+01 -0.24760460479E+02  0.72360767424E+02  0.11087335651E+03  0.80165373148E+02 0.  0.
          2    1    4    4  502    0  0.14617018089E+02  0.50285040642E+02  0.31819400567E+02  0.61275743836E+02  0.00000000000E+00 0. -1.
         -1    1    4    4    0  502  0.72633604298E+02 -0.33563394165E+01  0.51789917851E+02  0.89269821769E+02  0.00000000000E+00 0.  1.
          5    1    3    3  503    0 -0.14344830126E+02 -0.17506005800E+02  0.14204274588E+03  0.14391131314E+03  0.47000000000E+01 0. -1.
         13    1    6    6    0    0  0.15214414809E+02  0.15917446948E+02 -0.51749218566E+01  0.22619092633E+02  0.00000000000E+00 0. -1.
        -14    1    6    6    0    0 -0.11060733623E+02 -0.40677907427E+02  0.77535689281E+02  0.88254263881E+02  0.00000000000E+00 0.  1.
         -5    1    5    5    0  501 -0.77059473447E+02 -0.46622349458E+01  0.28027913700E+03  0.29075485124E+03  0.47000000000E+01 0.  1.
<mgrwt>
<rscale>  2 0.19069215E+03</rscale>
<asrwt>0</asrwt>
<pdfrwt beam="1">  1        1 0.98028999E-01 0.19069215E+03</pdfrwt>
<pdfrwt beam="2">  1       -1 0.90610095E-02 0.19069215E+03</pdfrwt>
<totfact> 0.22747860E+03</totfact>
</mgrwt>
</event>
<event>
12    1  0.5759937E-002  0.2695618E+03  0.7546771E-02  0.1101531E+00
          1   -1    0    0  503    0  0.00000000000E+00  0.00000000000E+00  0.17551241034E+03  0.17551241034E+03  0.00000000000E+00 0. -1.
         -1   -1    0    0    0  501 -0.00000000000E+00 -0.00000000000E+00 -0.42444052415E+03  0.42444052415E+03  0.00000000000E+00 0.  1.
          6    2    1    2  503    0  0.20179750827E+03  0.45303555451E+02 -0.17154669695E+03  0.31961794854E+03  0.17306853358E+03 0.  0.
         24    2    3    3    0    0  0.15532144889E+03  0.75560562276E+02 -0.71485468821E+02  0.20511969558E+03  0.84437942918E+02 0.  0.
         -6    2    1    2    0  501 -0.20179750827E+03 -0.45303555451E+02 -0.77381416861E+02  0.28033498594E+03  0.17269966470E+03 0.  0.
        -24    2    5    5    0    0 -0.78232876048E+02  0.37738938127E+02 -0.17086806827E+02  0.11964334311E+03  0.80485776617E+02 0.  0.
          4    1    4    4  502    0  0.94543593258E+02  0.60064957731E+01 -0.12574581825E+02  0.95565104121E+02  0.00000000000E+00 0. -1.
         -3    1    4    4    0  502  0.60777855631E+02  0.69554066503E+02 -0.58910886997E+02  0.10955459146E+03  0.00000000000E+00 0.  1.
          5    1    3    3  503    0  0.46476059386E+02 -0.30257006825E+02 -0.10006122813E+03  0.11449825297E+03  0.47000000000E+01 0. -1.
         11    1    6    6    0    0 -0.57774898039E+02 -0.10852311973E+01  0.21053588550E+02  0.61500976910E+02  0.00000000000E+00 0. -1.
        -12    1    6    6    0    0 -0.20457978009E+02  0.38824169324E+02 -0.38140395377E+02  0.58142366201E+02  0.00000000000E+00 0.  1.
         -5    1    5    5    0  501 -0.12356463223E+03 -0.83042493578E+02 -0.60294610034E+02  0.16069164283E+03  0.47000000000E+01 0.  1.
<mgrwt>
<rscale>  2 0.26956180E+03</rscale>
<asrwt>0</asrwt>
<pdfrwt beam="1">  1        1 0.27001909E-01 0.26956180E+03</pdfrwt>
<pdfrwt beam="2">  1       -1 0.65298542E-01 0.26956180E+03</pdfrwt>
<totfact> 0.42851767E+02</totfact>
</mgrwt>
</event>
<event>
12    1  0.5759937E-002  0.1868531E+03  0.7546771E-02  0.1161331E+00
         -4   -1    0    0    0  501 -0.00000000000E+00  0.00000000000E+00  0.83245080239E+03  0.83245080239E+03  0.00000000000E+00 0.  1.
          4   -1    0    0  503    0  0.00000000000E+00 -0.00000000000E+00 -0.89871428831E+02  0.89871428831E+02  0.00000000000E+00 0. -1.
          6    2    1    2  503    0 -0.15451782803E+02  0.63280291324E+02  0.70987288667E+03  0.73455987755E+03  0.17724431055E+03 0.  0.
         24    2    3    3    0    0  0.18137270924E+02  0.10303320631E+03  0.57307843067E+03  0.58812445844E+03  0.80787924308E+02 0.  0.
         -6    2    1    2    0  501  0.15451782803E+02 -0.63280291324E+02  0.32706486894E+02  0.18776235367E+03  0.17303708940E+03 0.  0.
        -24    2    5    5    0    0  0.32897129266E+02 -0.43131424641E+02 -0.44401804069E+02  0.10604273866E+03  0.79567589588E+02 0.  0.
          2    1    4    4  502    0  0.25810184707E+02  0.41898911965E+02  0.10443949210E+03  0.11545255289E+03  0.00000000000E+00 0. -1.
         -1    1    4    4    0  502 -0.76729137825E+01  0.61134294341E+02  0.46863893857E+03  0.47267190555E+03  0.00000000000E+00 0.  1.
          5    1    3    3  503    0 -0.33589053727E+02 -0.39752914981E+02  0.13679445599E+03  0.14643541911E+03  0.47000000000E+01 0. -1.
         13    1    6    6    0    0 -0.85000480134E+01  0.12227080019E+02 -0.32704054635E+02  0.35934767170E+02  0.00000000000E+00 0. -1.
        -14    1    6    6    0    0  0.41397177279E+02 -0.55358504660E+02 -0.11697749434E+02  0.70107971492E+02  0.00000000000E+00 0.  1.
         -5    1    5    5    0  501 -0.17445346463E+02 -0.20148866684E+02  0.77108290963E+02  0.81719615008E+02  0.47000000000E+01 0.  1.
<mgrwt>
<rscale>  2 0.18685307E+03</rscale>
<asrwt>0</asrwt>
<pdfrwt beam="2">  1        4 0.13826374E-01 0.18685307E+03</pdfrwt>
<pdfrwt beam="1">  1       -4 0.12806935E+00 0.18685307E+03</pdfrwt>
<totfact> 0.36217760E+01</totfact>
</mgrwt>
</event>
<event>
12    1  0.5759937E-002  0.2030189E+03  0.7546771E-02  0.1147217E+00
          1   -1    0    0  503    0  0.00000000000E+00  0.00000000000E+00  0.62743746521E+03  0.62743746521E+03  0.00000000000E+00 0. -1.
         -1   -1    0    0    0  501 -0.00000000000E+00 -0.00000000000E+00 -0.68013533162E+02  0.68013533162E+02  0.00000000000E+00 0.  1.
          6    2    1    2  503    0  0.73888815696E+02  0.75038576822E+02  0.21595751843E+03  0.29666319270E+03  0.17401452536E+03 0.  0.
         24    2    3    3    0    0  0.16889982698E+02  0.99521757819E+02  0.15053491792E+03  0.20638307433E+03  0.98708459926E+02 0.  0.
         -6    2    1    2    0  501 -0.73888815696E+02 -0.75038576822E+02  0.34346641361E+03  0.39878780567E+03  0.17312478614E+03 0.  0.
        -24    2    5    5    0    0 -0.21621711853E+02 -0.30970713822E+02  0.77507394974E+02  0.12414236826E+03  0.89315439787E+02 0.  0.
          2    1    4    4  502    0  0.14012862347E+02  0.11973713184E+03  0.12458916382E+03  0.17336608894E+03  0.00000000000E+00 0. -1.
         -1    1    4    4    0  502  0.28771203507E+01 -0.20215374022E+02  0.25945754101E+02  0.33016985389E+02  0.00000000000E+00 0.  1.
          5    1    3    3  503    0  0.56998832999E+02 -0.24483180997E+02  0.65422600509E+02  0.90280118367E+02  0.47000000000E+01 0. -1.
         13    1    6    6    0    0 -0.80832342092E+00  0.11648543327E+02  0.75787016523E+02  0.76681248176E+02  0.00000000000E+00 0. -1.
        -14    1    6    6    0    0 -0.20813388432E+02 -0.42619257149E+02  0.17203784512E+01  0.47461120088E+02  0.00000000000E+00 0.  1.
         -5    1    5    5    0  501 -0.52267103844E+02 -0.44067863000E+02  0.26595901864E+03  0.27464543741E+03  0.47000000000E+01 0.  1.
<mgrwt>
<rscale>  2 0.20301891E+03</rscale>
<asrwt>0</asrwt>
<pdfrwt beam="1">  1        1 0.96528837E-01 0.20301891E+03</pdfrwt>
<pdfrwt beam="2">  1       -1 0.10463621E-01 0.20301891E+03</pdfrwt>
<totfact> 0.18651225E+03</totfact>
</mgrwt>
</event>
<event>
12    1  0.5759937E-002  0.2811504E+03  0.7546771E-02  0.1095062E+00
          1   -1    0    0  503    0  0.00000000000E+00  0.00000000000E+00  0.17494216392E+04  0.17494216392E+04  0.00000000000E+00 0.  1.
         -1   -1    0    0    0  501 -0.00000000000E+00 -0.00000000000E+00 -0.46118461695E+02  0.46118461695E+02  0.00000000000E+00 0. -1.
          6    2    1    2  503    0 -0.21594430345E+03 -0.48661533374E+02  0.97994944327E+03  0.10195291815E+04  0.17360574139E+03 0.  0.
         24    2    3    3    0    0 -0.21369996808E+03 -0.62408058925E+02  0.97689526372E+03  0.10045151208E+04  0.71859789690E+02 0.  0.
         -6    2    1    2    0  501  0.21594430345E+03  0.48661533374E+02  0.72335373420E+03  0.77601091941E+03  0.17306771864E+03 0.  0.
        -24    2    5    5    0    0  0.59997305142E+02  0.43520956767E+01  0.41963675906E+03  0.43170163469E+03  0.81563928805E+02 0.  0.
          2    1    4    4  502    0 -0.30280619065E+02  0.68753175810E+01  0.23925483591E+03  0.24126139846E+03  0.00000000000E+00 0. -1.
         -1    1    4    4    0  502 -0.18341934902E+03 -0.69283376506E+02  0.73764042781E+03  0.76325372229E+03  0.00000000000E+00 0.  1.
          5    1    3    3  503    0 -0.22443353745E+01  0.13746525551E+02  0.30541795577E+01  0.15014060702E+02  0.47000000000E+01 0. -1.
         13    1    6    6    0    0  0.28353856695E+02  0.29778951795E+01  0.32342260612E+02  0.43114160907E+02  0.00000000000E+00 0. -1.
        -14    1    6    6    0    0  0.31643448447E+02  0.13742004971E+01  0.38729449845E+03  0.38858747379E+03  0.00000000000E+00 0.  1.
         -5    1    5    5    0  501  0.15594699831E+03  0.44309437697E+02  0.30371697514E+03  0.34430928471E+03  0.47000000000E+01 0.  1.
<mgrwt>
<rscale>  2 0.28115036E+03</rscale>
<asrwt>0</asrwt>
<pdfrwt beam="1">  1        1 0.26914174E+00 0.28115036E+03</pdfrwt>
<pdfrwt beam="2">  1       -1 0.70951493E-02 0.28115036E+03</pdfrwt>
<totfact> 0.50771267E+02</totfact>
</mgrwt>
</event>
<event>
12    1  0.5759937E-002  0.2679187E+03  0.7546771E-02  0.1102477E+00
          3   -1    0    0  503    0  0.00000000000E+00  0.00000000000E+00  0.11204780473E+03  0.11204780473E+03  0.00000000000E+00 0. -1.
         -3   -1    0    0    0  501 -0.00000000000E+00 -0.00000000000E+00 -0.64131787355E+03  0.64131787355E+03  0.00000000000E+00 0.  1.
          6    2    1    2  503    0  0.41151159105E+02  0.19902492601E+03 -0.25190918733E+03  0.36749990628E+03  0.17405057711E+03 0.  0.
         24    2    3    3    0    0 -0.26848456066E+02  0.14100137479E+03 -0.21436957859E+03  0.27043295834E+03  0.81101426901E+02 0.  0.
         -6    2    1    2    0  501 -0.41151159105E+02 -0.19902492601E+03 -0.27736088150E+03  0.38586577200E+03  0.17509710548E+03 0.  0.
        -24    2    5    5    0    0  0.24278073834E+02 -0.81294239519E+02 -0.19950288450E+03  0.23022048052E+03  0.77471868943E+02 0.  0.
          2    1    4    4  502    0 -0.20784912322E+02  0.26223087209E+02 -0.11070663946E+03  0.11565302808E+03  0.00000000000E+00 0. -1.
         -1    1    4    4    0  502 -0.60635437440E+01  0.11477828758E+03 -0.10366293913E+03  0.15477993026E+03  0.00000000000E+00 0.  1.
          5    1    3    3  503    0  0.67999615171E+02  0.58023551221E+02 -0.37539608740E+02  0.97066947948E+02  0.47000000000E+01 0. -1.
         11    1    6    6    0    0  0.52903766821E+01 -0.92543269173E+02 -0.16527675902E+03  0.18949578314E+03  0.00000000000E+00 0. -1.
        -12    1    6    6    0    0  0.18987697151E+02  0.11249029654E+02 -0.34226125482E+02  0.40724697381E+02  0.00000000000E+00 0.  1.
         -5    1    5    5    0  501 -0.65429232938E+02 -0.11773068649E+03 -0.77857996992E+02  0.15564529148E+03  0.47000000000E+01 0.  1.
<mgrwt>
<rscale>  2 0.26791866E+03</rscale>
<asrwt>0</asrwt>
<pdfrwt beam="1">  1        3 0.17238124E-01 0.26791866E+03</pdfrwt>
<pdfrwt beam="2">  1       -3 0.98664289E-01 0.26791866E+03</pdfrwt>
<totfact> 0.67926653E+01</totfact>
</mgrwt>
</event>
<event>
12    1  0.5759937E-002  0.2364094E+03  0.7546771E-02  0.1122208E+00
         -2   -1    0    0    0  501 -0.00000000000E+00  0.00000000000E+00  0.28664978376E+02  0.28664978376E+02  0.00000000000E+00 0.  1.
          2   -1    0    0  503    0  0.00000000000E+00 -0.00000000000E+00 -0.23521717144E+04  0.23521717144E+04  0.00000000000E+00 0. -1.
          6    2    1    2  503    0  0.12521484443E+03 -0.91997026146E+02 -0.16612193334E+04  0.16782060566E+04  0.18050951363E+03 0.  0.
         24    2    3    3    0    0  0.10342807995E+03 -0.11536896662E+03 -0.15952805008E+04  0.16047831013E+04  0.80009748974E+02 0.  0.
         -6    2    1    2    0  501 -0.12521484443E+03  0.91997026146E+02 -0.66228740262E+03  0.70263063621E+03  0.17584935939E+03 0.  0.
        -24    2    5    5    0    0 -0.32950618013E+02  0.77779601415E+02 -0.51498899165E+03  0.52817796494E+03  0.81381149549E+02 0.  0.
          2    1    4    4  502    0  0.86553670335E+02 -0.10160567628E+03 -0.15331137555E+04  0.15389129405E+04  0.00000000000E+00 0. -1.
         -1    1    4    4    0  502  0.16874409614E+02 -0.13763290338E+02 -0.62166745307E+02  0.65870160792E+02  0.00000000000E+00 0.  1.
          5    1    3    3  503    0  0.21786764477E+02  0.23371940475E+02 -0.65938832601E+02  0.73422955216E+02  0.47000000000E+01 0. -1.
         13    1    6    6    0    0 -0.47937633382E+01 -0.17198839929E+02 -0.95060824395E+02  0.96723009654E+02  0.00000000000E+00 0. -1.
        -14    1    6    6    0    0 -0.28156854675E+02  0.94978441344E+02 -0.41992816726E+03  0.43145495529E+03  0.00000000000E+00 0.  1.
         -5    1    5    5    0  501 -0.92264226413E+02  0.14217424731E+02 -0.14729841096E+03  0.17445267127E+03  0.47000000000E+01 0.  1.
<mgrwt>
<rscale>  2 0.23640935E+03</rscale>
<asrwt>0</asrwt>
<pdfrwt beam="2">  1        2 0.36187259E+00 0.23640935E+03</pdfrwt>
<pdfrwt beam="1">  1       -2 0.44099965E-02 0.23640935E+03</pdfrwt>
<totfact> 0.11494778E+03</totfact>
</mgrwt>
</event>
<event>
12    1  0.5759937E-002  0.2135249E+03  0.7546771E-02  0.1138805E+00
          1   -1    0    0  503    0  0.00000000000E+00  0.00000000000E+00  0.12306266146E+04  0.12306266146E+04  0.00000000000E+00 0.  1.
         -1   -1    0    0    0  501 -0.00000000000E+00 -0.00000000000E+00 -0.37477427649E+02  0.37477427649E+02  0.00000000000E+00 0. -1.
          6    2    1    2  503    0  0.88251308546E+02 -0.89266879805E+02  0.52949809420E+03  0.57103178851E+03  0.17306704608E+03 0.  0.
         24    2    3    3    0    0  0.10416073559E+03 -0.11997820276E+03  0.42053618318E+03  0.45661551659E+03  0.80017627153E+02 0.  0.
         -6    2    1    2    0  501 -0.88251308546E+02  0.89266879805E+02  0.66365109273E+03  0.69707225372E+03  0.17239514126E+03 0.  0.
        -24    2    5    5    0    0 -0.12351551819E+03  0.41514224208E+02  0.47145397075E+03  0.49586165683E+03  0.81427404112E+02 0.  0.
          2    1    4    4  502    0  0.60500477300E+02 -0.11982299205E+03  0.31583891255E+03  0.34317936397E+03  0.00000000000E+00 0. -1.
         -1    1    4    4    0  502  0.43660258285E+02 -0.15521071448E+00  0.10469727063E+03  0.11343615262E+03  0.00000000000E+00 0.  1.
          5    1    3    3  503    0 -0.15909427039E+02  0.30711322956E+02  0.10896191102E+03  0.11441627192E+03  0.47000000000E+01 0. -1.
         11    1    6    6    0    0 -0.97845024464E+02  0.28265400467E+01  0.39007553623E+03  0.40216981750E+03  0.00000000000E+00 0. -1.
        -12    1    6    6    0    0 -0.25670493728E+02  0.38687684162E+02  0.81378434518E+02  0.93691839339E+02  0.00000000000E+00 0.  1.
         -5    1    5    5    0  501  0.35264209646E+02  0.47752655596E+02  0.19219712199E+03  0.20121059688E+03  0.47000000000E+01 0.  1.
<mgrwt>
<rscale>  2 0.21352486E+03</rscale>
<asrwt>0</asrwt>
<pdfrwt beam="1">  1        1 0.18932714E+00 0.21352486E+03</pdfrwt>
<pdfrwt beam="2">  1       -1 0.57657591E-02 0.21352486E+03</pdfrwt>
<totfact> 0.15480424E+03</totfact>
</mgrwt>
</event>
<event>
12    1  0.5759937E-002  0.2792245E+03  0.7546771E-02  0.1096113E+00
          2   -1    0    0  503    0  0.00000000000E+00  0.00000000000E+00  0.11951690517E+04  0.11951690517E+04  0.00000000000E+00 0. -1.
         -2   -1    0    0    0  501 -0.00000000000E+00 -0.00000000000E+00 -0.65569946434E+02  0.65569946434E+02  0.00000000000E+00 0.  1.
          6    2    1    2  503    0  0.30281535517E+02  0.21916503942E+03  0.52297929220E+03  0.59358782923E+03  0.17288402195E+03 0.  0.
         24    2    3    3    0    0  0.60779114181E+02  0.20415971713E+03  0.50655099752E+03  0.55554521014E+03  0.81616644120E+02 0.  0.
         -6    2    1    2    0  501 -0.30281535517E+02 -0.21916503942E+03  0.60661981303E+03  0.66715116887E+03  0.16778795744E+03 0.  0.
        -24    2    5    5    0    0 -0.56158772226E+02 -0.58521097088E+02  0.26138569911E+03  0.28546439807E+03  0.81172115680E+02 0.  0.
          4    1    4    4  502    0  0.24215159402E+02  0.60062308778E+02  0.74918839440E+02  0.99028719994E+02  0.00000000000E+00 0. -1.
         -3    1    4    4    0  502  0.36563954779E+02  0.14409740836E+03  0.43163215808E+03  0.45651649015E+03  0.00000000000E+00 0.  1.
          5    1    3    3  503    0 -0.30497578664E+02  0.15005322282E+02  0.16428294672E+02  0.38042619087E+02  0.47000000000E+01 0. -1.
         11    1    6    6    0    0  0.17182058782E+02 -0.32322451701E+02  0.74759222795E+02  0.83240046978E+02  0.00000000000E+00 0. -1.
        -12    1    6    6    0    0 -0.73340831007E+02 -0.26198645387E+02  0.18662647631E+03  0.20222435109E+03  0.00000000000E+00 0.  1.
         -5    1    5    5    0  501  0.25877236709E+02 -0.16064394233E+03  0.34523411393E+03  0.38168677080E+03  0.47000000000E+01 0.  1.
<mgrwt>
<rscale>  2 0.27922445E+03</rscale>
<asrwt>0</asrwt>
<pdfrwt beam="1">  1        2 0.18387215E+00 0.27922445E+03</pdfrwt>
<pdfrwt beam="2">  1       -2 0.10087685E-01 0.27922445E+03</pdfrwt>
<totfact> 0.13167239E+03</totfact>
</mgrwt>
</event>
<event>
12    1  0.5759937E-002  0.2065354E+03  0.7546771E-02  0.1144339E+00
          1   -1    0    0  503    0  0.00000000000E+00  0.00000000000E+00  0.31970396722E+03  0.31970396722E+03  0.00000000000E+00 0.  1.
         -1   -1    0    0    0  501 -0.00000000000E+00 -0.00000000000E+00 -0.18096653744E+03  0.18096653744E+03  0.00000000000E+00 0. -1.
          6    2    1    2  503    0  0.75625897135E+02  0.83794794108E+02 -0.58971478076E+02  0.21466439869E+03  0.17280719025E+03 0.  0.
         24    2    3    3    0    0  0.28305094203E+02  0.10731336686E+03 -0.28120013051E+01  0.13740924685E+03  0.80969480067E+02 0.  0.
         -6    2    1    2    0  501 -0.75625897135E+02 -0.83794794108E+02  0.19770890785E+03  0.28600610598E+03  0.17311798455E+03 0.  0.
        -24    2    5    5    0    0 -0.36050294743E+02 -0.36294578606E+01  0.16694831464E+03  0.19134347589E+03  0.86184623273E+02 0.  0.
          4    1    4    4  502    0  0.53310100229E+02  0.70568481846E+02 -0.18351254208E+02  0.90325223208E+02  0.00000000000E+00 0. -1.
         -3    1    4    4    0  502 -0.25005006026E+02  0.36744885019E+02  0.15539252903E+02  0.47084023640E+02  0.00000000000E+00 0.  1.
          5    1    3    3  503    0  0.47320802932E+02 -0.23518572757E+02 -0.56159476771E+02  0.77255151840E+02  0.47000000000E+01 0. -1.
         13    1    6    6    0    0 -0.30192505825E+02  0.25824242219E+02  0.26586397987E+02  0.47804973089E+02  0.00000000000E+00 0. -1.
        -14    1    6    6    0    0 -0.58577889186E+01 -0.29453700080E+02  0.14036191665E+03  0.14353850280E+03  0.00000000000E+00 0.  1.
         -5    1    5    5    0  501 -0.39575602392E+02 -0.80165336248E+02  0.30760593212E+02  0.94662630088E+02  0.47000000000E+01 0.  1.
<mgrwt>
<rscale>  2 0.20653545E+03</rscale>
<asrwt>0</asrwt>
<pdfrwt beam="1">  1        1 0.49185226E-01 0.20653545E+03</pdfrwt>
<pdfrwt beam="2">  1       -1 0.27841006E-01 0.20653545E+03</pdfrwt>
<totfact> 0.93783771E+02</totfact>
</mgrwt>
</event>
<event>
12    1  0.5759937E-002  0.1866478E+03  0.7546771E-02  0.1161520E+00
         -2   -1    0    0    0  501 -0.00000000000E+00  0.00000000000E+00  0.41048691507E+03  0.41048691507E+03  0.00000000000E+00 0.  1.
          2   -1    0    0  503    0  0.00000000000E+00 -0.00000000000E+00 -0.85173622003E+02  0.85173622003E+02  0.00000000000E+00 0. -1.
          6    2    1    2  503    0 -0.54499755844E+02 -0.55476237528E+02  0.14612801096E+03  0.23522947215E+03  0.16712771363E+03 0.  0.
         24    2    3    3    0    0 -0.51207439897E+00 -0.98160829146E+01  0.14393233012E+03  0.16433214864E+03  0.78688764878E+02 0.  0.
         -6    2    1    2    0  501  0.54499755844E+02  0.55476237528E+02  0.17918528210E+03  0.26043106492E+03  0.17224731619E+03 0.  0.
        -24    2    5    5    0    0  0.41106726845E+02 -0.33942732494E+02  0.11162252085E+03  0.14746229873E+03  0.80272475386E+02 0.  0.
          4    1    4    4  502    0 -0.28417212738E+02 -0.30910351786E+02  0.58438267198E+02  0.71958452599E+02  0.00000000000E+00 0. -1.
         -3    1    4    4    0  502  0.27905138339E+02  0.21094268871E+02  0.85494062922E+02  0.92373696038E+02  0.00000000000E+00 0.  1.
          5    1    3    3  503    0 -0.53987681446E+02 -0.45660154613E+02  0.21956808396E+01  0.70897323515E+02  0.47000000000E+01 0. -1.
         13    1    6    6    0    0  0.70002169866E+01 -0.32050414931E+02  0.10827954488E+03  0.11314014308E+03  0.00000000000E+00 0. -1.
        -14    1    6    6    0    0  0.34106509859E+02 -0.18923175627E+01  0.33429759695E+01  0.34322155655E+02  0.00000000000E+00 0.  1.
         -5    1    5    5    0  501  0.13393028999E+02  0.89418970022E+02  0.67562761250E+02  0.11296876619E+03  0.47000000000E+01 0.  1.
<mgrwt>
<rscale>  2 0.18664783E+03</rscale>
<asrwt>0</asrwt>
<pdfrwt beam="2">  1        2 0.13103634E-01 0.18664783E+03</pdfrwt>
<pdfrwt beam="1">  1       -2 0.63151832E-01 0.18664783E+03</pdfrwt>
<totfact> 0.10774155E+03</totfact>
</mgrwt>
</event>
<event>
12    1  0.5759937E-002  0.2969116E+03  0.7546771E-02  0.1086795E+00
          2   -1    0    0  503    0  0.00000000000E+00  0.00000000000E+00  0.20730039955E+04  0.20730039955E+04  0.00000000000E+00 0.  1.
         -2   -1    0    0    0  501 -0.00000000000E+00 -0.00000000000E+00 -0.45389134617E+02  0.45389134617E+02  0.00000000000E+00 0. -1.
          6    2    1    2  503    0  0.21594910055E+03 -0.10626442622E+03  0.74774366108E+03  0.80453097574E+03  0.17384868689E+03 0.  0.
         24    2    3    3    0    0  0.16095329159E+03 -0.13633900878E+03  0.49483597093E+03  0.54392896259E+03  0.80633682991E+02 0.  0.
         -6    2    1    2    0  501 -0.21594910055E+03  0.10626442622E+03  0.12798711998E+04  0.13138621544E+04  0.17388884469E+03 0.  0.
        -24    2    5    5    0    0 -0.25555818768E+02  0.52201785885E+02  0.43401275698E+03  0.44514415288E+03  0.80050717046E+02 0.  0.
          4    1    4    4  502    0  0.14688066179E+03 -0.12356019047E+03  0.36198106558E+03  0.40972105305E+03  0.00000000000E+00 0. -1.
         -3    1    4    4    0  502  0.14072629796E+02 -0.12778818306E+02  0.13285490535E+03  0.13420790954E+03  0.00000000000E+00 0.  1.
          5    1    3    3  503    0  0.54995808962E+02  0.30074582563E+02  0.25290769015E+03  0.26060201315E+03  0.47000000000E+01 0. -1.
         11    1    6    6    0    0 -0.39392766426E+02  0.67589012662E+02  0.34400802787E+03  0.35279113923E+03  0.00000000000E+00 0. -1.
        -12    1    6    6    0    0  0.13836947658E+02 -0.15387226777E+02  0.90004729102E+02  0.92353013643E+02  0.00000000000E+00 0.  1.
         -5    1    5    5    0  501 -0.19039328178E+03  0.54062640333E+02  0.84585844283E+03  0.86871800150E+03  0.47000000000E+01 0.  1.
<mgrwt>
<rscale>  2 0.29691159E+03</rscale>
<asrwt>0</asrwt>
<pdfrwt beam="1">  1        2 0.31892362E+00 0.29691159E+03</pdfrwt>
<pdfrwt beam="2">  1       -2 0.69829454E-02 0.29691159E+03</pdfrwt>
<totfact> 0.79293231E+02</totfact>
</mgrwt>
</event>
<event>
12    1  0.5759937E-002  0.3981742E+03  0.7546771E-02  0.1044414E+00
          2   -1    0    0  503    0  0.00000000000E+00  0.00000000000E+00  0.90453618667E+03  0.90453618667E+03  0.00000000000E+00 0. -1.
         -2   -1    0    0    0  501 -0.00000000000E+00 -0.00000000000E+00 -0.23726441915E+03  0.23726441915E+03  0.00000000000E+00 0.  1.
          6    2    1    2  503    0 -0.12904597612E+03  0.33410187634E+03  0.41635954892E+02  0.40004182411E+03  0.17327140724E+03 0.  0.
         24    2    3    3    0    0 -0.65677277699E+02  0.28360719107E+03 -0.12857639909E+02  0.30228218491E+03  0.80390651084E+02 0.  0.
         -6    2    1    2    0  501  0.12904597612E+03 -0.33410187634E+03  0.62563581263E+03  0.74175878171E+03  0.17466823544E+03 0.  0.
        -24    2    5    5    0    0  0.44731957393E+02 -0.24328702424E+03  0.50846120715E+03  0.57114761770E+03  0.80543639412E+02 0.  0.
          2    1    4    4  502    0 -0.71995533053E+02  0.15874753812E+03  0.12347637962E+02  0.17474725120E+03  0.00000000000E+00 0. -1.
         -1    1    4    4    0  502  0.63182553547E+01  0.12485965295E+03 -0.25205277872E+02  0.12753493372E+03  0.00000000000E+00 0.  1.
          5    1    3    3  503    0 -0.63368698424E+02  0.50494685275E+02  0.54493594801E+02  0.97759639194E+02  0.47000000000E+01 0. -1.
         11    1    6    6    0    0 -0.12190282332E+02 -0.77349578601E+02  0.22012158421E+03  0.23363448403E+03  0.00000000000E+00 0. -1.
        -12    1    6    6    0    0  0.56922239725E+02 -0.16593744564E+03  0.28833962294E+03  0.33751313366E+03  0.00000000000E+00 0.  1.
         -5    1    5    5    0  501  0.84314018730E+02 -0.90814852100E+02  0.11717460548E+03  0.17061116401E+03  0.47000000000E+01 0.  1.
<mgrwt>
<rscale>  2 0.39817424E+03</rscale>
<asrwt>0</asrwt>
<pdfrwt beam="1">  1        2 0.13915941E+00 0.39817424E+03</pdfrwt>
<pdfrwt beam="2">  1       -2 0.36502219E-01 0.39817424E+03</pdfrwt>
<totfact> 0.21303955E+02</totfact>
</mgrwt>
</event>
<event>
12    1  0.5759937E-002  0.2093096E+03  0.7546771E-02  0.1142114E+00
         -2   -1    0    0    0  501 -0.00000000000E+00  0.00000000000E+00  0.14499121235E+03  0.14499121235E+03  0.00000000000E+00 0.  1.
          2   -1    0    0  503    0  0.00000000000E+00 -0.00000000000E+00 -0.37220809168E+03  0.37220809168E+03  0.00000000000E+00 0. -1.
          6    2    1    2  503    0  0.11644352289E+03 -0.21764182327E+02 -0.22570538517E+03  0.30768553479E+03  0.17232148378E+03 0.  0.
         24    2    3    3    0    0  0.12026535907E+02  0.34226276124E+02 -0.56175889728E+02  0.10080349490E+03  0.75429029248E+02 0.  0.
         -6    2    1    2    0  501 -0.11644352289E+03  0.21764182327E+02 -0.15114941623E+01  0.20951376924E+03  0.17280324427E+03 0.  0.
        -24    2    5    5    0    0 -0.13287246998E+03  0.37203301486E+02  0.39367501448E+02  0.16259406138E+03  0.76471234511E+02 0.  0.
          4    1    4    4  502    0  0.29312533412E+02  0.51078613372E+02 -0.45430817670E+02  0.74378817907E+02  0.00000000000E+00 0. -1.
         -3    1    4    4    0  502 -0.17285997506E+02 -0.16852337248E+02 -0.10745072058E+02  0.26424676990E+02  0.00000000000E+00 0.  1.
          5    1    3    3  503    0  0.10441698698E+03 -0.55990458451E+02 -0.16952949544E+03  0.20688203990E+03  0.47000000000E+01 0. -1.
         11    1    6    6    0    0 -0.80653384056E+02  0.93037576073E+00 -0.11098971179E+02  0.81418800777E+02  0.00000000000E+00 0. -1.
        -12    1    6    6    0    0 -0.52219085920E+02  0.36272925726E+02  0.50466472626E+02  0.81175260606E+02  0.00000000000E+00 0.  1.
         -5    1    5    5    0  501  0.16428947091E+02 -0.15439119159E+02 -0.40878995610E+02  0.46919707853E+02  0.47000000000E+01 0.  1.
<mgrwt>
<rscale>  2 0.20930963E+03</rscale>
<asrwt>0</asrwt>
<pdfrwt beam="2">  1        2 0.57262783E-01 0.20930963E+03</pdfrwt>
<pdfrwt beam="1">  1       -2 0.22306340E-01 0.20930963E+03</pdfrwt>
<totfact> 0.14939080E+03</totfact>
</mgrwt>
</event>
<event>
12    1  0.5759937E-002  0.1969445E+03  0.7546771E-02  0.1152343E+00
         -1   -1    0    0    0  501 -0.00000000000E+00  0.00000000000E+00  0.77414484935E+02  0.77414484935E+02  0.00000000000E+00 0. -1.
          1   -1    0    0  503    0  0.00000000000E+00 -0.00000000000E+00 -0.50141359260E+03  0.50141359260E+03  0.00000000000E+00 0.  1.
          6    2    1    2  503    0 -0.90056870943E+02  0.45452474136E+02 -0.22062189159E+03  0.29616875638E+03  0.16989922246E+03 0.  0.
         24    2    3    3    0    0 -0.10340977735E+03  0.82178799343E+02 -0.19575920947E+03  0.24961377775E+03  0.80860576530E+02 0.  0.
         -6    2    1    2    0  501  0.90056870943E+02 -0.45452474136E+02 -0.20337721607E+03  0.28265932116E+03  0.16839783969E+03 0.  0.
        -24    2    5    5    0    0  0.19840506029E+02  0.12590597835E+02 -0.36247497082E+02  0.92255095693E+02  0.81516579929E+02 0.  0.
          2    1    4    4  502    0 -0.10247374013E+03  0.38517402440E+02 -0.12217683989E+03  0.16404766963E+03  0.00000000000E+00 0. -1.
         -1    1    4    4    0  502 -0.93603722242E+00  0.43661396903E+02 -0.73582369579E+02  0.85566108116E+02  0.00000000000E+00 0.  1.
          5    1    3    3  503    0  0.13352906405E+02 -0.36726325208E+02 -0.24862682123E+02  0.46554978628E+02  0.47000000000E+01 0. -1.
         11    1    6    6    0    0 -0.31311031577E+02  0.58940052608E+01 -0.58993902016E+01  0.32402512266E+02  0.00000000000E+00 0. -1.
        -12    1    6    6    0    0  0.51151537606E+02  0.66965925744E+01 -0.30348106880E+02  0.59852583426E+02  0.00000000000E+00 0.  1.
         -5    1    5    5    0  501  0.70216364914E+02 -0.58043071971E+02 -0.16712971899E+03  0.19040422546E+03  0.47000000000E+01 0.  1.
<mgrwt>
<rscale>  2 0.19694447E+03</rscale>
<asrwt>0</asrwt>
<pdfrwt beam="2">  1        1 0.77140557E-01 0.19694447E+03</pdfrwt>
<pdfrwt beam="1">  1       -1 0.11909920E-01 0.19694447E+03</pdfrwt>
<totfact> 0.20674924E+03</totfact>
</mgrwt>
</event>
<event>
12    1  0.5759937E-002  0.1885985E+03  0.7546771E-02  0.1159731E+00
         -2   -1    0    0    0  501 -0.00000000000E+00  0.00000000000E+00  0.70210128426E+02  0.70210128426E+02  0.00000000000E+00 0.  1.
          2   -1    0    0  503    0  0.00000000000E+00 -0.00000000000E+00 -0.50861988080E+03  0.50861988080E+03  0.00000000000E+00 0. -1.
          6    2    1    2  503    0 -0.68216661853E+02 -0.33309847195E+02 -0.23742194466E+03  0.30323526900E+03  0.17268291659E+03 0.  0.
         24    2    3    3    0    0  0.31161375984E+01 -0.31291346588E+02 -0.20754768126E+03  0.22573040311E+03  0.83001904843E+02 0.  0.
         -6    2    1    2    0  501  0.68216661853E+02  0.33309847195E+02 -0.20098780771E+03  0.27559474023E+03  0.17260736693E+03 0.  0.
        -24    2    5    5    0    0  0.41109702757E+02 -0.38869442958E+02 -0.16193771439E+03  0.18904049743E+03  0.79445862504E+02 0.  0.
          4    1    4    4  502    0 -0.18183478538E+02 -0.51870727448E+02 -0.16480382330E+03  0.17372826895E+03  0.00000000000E+00 0. -1.
         -3    1    4    4    0  502  0.21299616137E+02  0.20579380860E+02 -0.42743857960E+02  0.52002134162E+02  0.00000000000E+00 0.  1.
          5    1    3    3  503    0 -0.71332799451E+02 -0.20185006063E+01 -0.29874263407E+02  0.77504865888E+02  0.47000000000E+01 0. -1.
         11    1    6    6    0    0 -0.10847467090E+02 -0.10106882801E+02  0.17344177320E+01  0.14927318148E+02  0.00000000000E+00 0. -1.
        -12    1    6    6    0    0  0.51957169847E+02 -0.28762560158E+02 -0.16367213213E+03  0.17411317928E+03  0.00000000000E+00 0.  1.
         -5    1    5    5    0  501  0.27106959096E+02  0.72179290153E+02 -0.39050093314E+02  0.86554242797E+02  0.47000000000E+01 0.  1.
<mgrwt>
<rscale>  2 0.18859852E+03</rscale>
<asrwt>0</asrwt>
<pdfrwt beam="2">  1        2 0.78249211E-01 0.18859852E+03</pdfrwt>
<pdfrwt beam="1">  1       -2 0.10801558E-01 0.18859852E+03</pdfrwt>
<totfact> 0.35217692E+03</totfact>
</mgrwt>
</event>
<event>
12    1  0.5759937E-002  0.1772708E+03  0.7546771E-02  0.1170471E+00
          2   -1    0    0  503    0  0.00000000000E+00  0.00000000000E+00  0.27471275232E+03  0.27471275232E+03  0.00000000000E+00 0.  1.
         -2   -1    0    0    0  501 -0.00000000000E+00 -0.00000000000E+00 -0.18728928107E+03  0.18728928107E+03  0.00000000000E+00 0. -1.
          6    2    1    2  503    0  0.30946400239E+02  0.26070850047E+02  0.18778203375E+03  0.25803071504E+03  0.17227997212E+03 0.  0.
         24    2    3    3    0    0  0.43013736820E+02 -0.29603487976E+02  0.17647503377E+03  0.19976244945E+03  0.77685588186E+02 0.  0.
         -6    2    1    2    0  501 -0.30946400239E+02 -0.26070850047E+02 -0.10035856250E+03  0.20397131834E+03  0.17290196277E+03 0.  0.
        -24    2    5    5    0    0 -0.63521668913E+02 -0.29363271896E+02 -0.12286326377E+03  0.16396457204E+03  0.83016836485E+02 0.  0.
          2    1    4    4  502    0  0.53725446039E+01 -0.48516316736E+02  0.70758243632E+02  0.85961772126E+02  0.00000000000E+00 0. -1.
         -1    1    4    4    0  502  0.37641192216E+02  0.18912828760E+02  0.10571679013E+03  0.11380067732E+03  0.00000000000E+00 0.  1.
          5    1    3    3  503    0 -0.12067336582E+02  0.55674338023E+02  0.11306999987E+02  0.58268265593E+02  0.47000000000E+01 0. -1.
         13    1    6    6    0    0 -0.52153165638E+02 -0.55520507909E+02 -0.10695125353E+03  0.13130517932E+03  0.00000000000E+00 0. -1.
        -14    1    6    6    0    0 -0.11368503275E+02  0.26157236012E+02 -0.15912010238E+02  0.32659392712E+02  0.00000000000E+00 0.  1.
         -5    1    5    5    0  501  0.32575268674E+02  0.32924218496E+01  0.22504701268E+02  0.40006746306E+02  0.47000000000E+01 0.  1.
<mgrwt>
<rscale>  2 0.17727077E+03</rscale>
<asrwt>0</asrwt>
<pdfrwt beam="1">  1        2 0.42263501E-01 0.17727077E+03</pdfrwt>
<pdfrwt beam="2">  1       -2 0.28813735E-01 0.17727077E+03</pdfrwt>
<totfact> 0.13128495E+03</totfact>
</mgrwt>
</event>
<event>
12    1  0.5759937E-002  0.2417212E+03  0.7546771E-02  0.1118652E+00
          2   -1    0    0  503    0  0.00000000000E+00  0.00000000000E+00  0.19415924892E+04  0.19415924892E+04  0.00000000000E+00 0. -1.
         -2   -1    0    0    0  501 -0.00000000000E+00 -0.00000000000E+00 -0.41630189478E+02  0.41630189478E+02  0.00000000000E+00 0.  1.
          6    2    1    2  503    0 -0.10854600381E+03 -0.12772943424E+03  0.14721893638E+04  0.14919129454E+04  0.17425748331E+03 0.  0.
         24    2    3    3    0    0  0.69862134069E+01 -0.27660453399E+02  0.49388382552E+03  0.50172846241E+03  0.83643941957E+02 0.  0.
         -6    2    1    2    0  501  0.10854600381E+03  0.12772943424E+03  0.42777293595E+03  0.49130973329E+03  0.17406471780E+03 0.  0.
        -24    2    5    5    0    0  0.12247300001E+03  0.10125520938E+03  0.22908255343E+03  0.29032514704E+03  0.80979142750E+02 0.  0.
          2    1    4    4  502    0 -0.17314477529E+02  0.12408815303E+02  0.34469770633E+03  0.34535529325E+03  0.00000000000E+00 0. -1.
         -1    1    4    4    0  502  0.24300690936E+02 -0.40069268702E+02  0.14918611919E+03  0.15637316916E+03  0.00000000000E+00 0.  1.
          5    1    3    3  503    0 -0.11553221722E+03 -0.10006898084E+03  0.97830553827E+03  0.99018448299E+03  0.47000000000E+01 0. -1.
         11    1    6    6    0    0  0.90382711947E+01  0.11943029987E+02  0.85162783284E+02  0.86469798011E+02  0.00000000000E+00 0. -1.
        -12    1    6    6    0    0  0.11343472881E+03  0.89312179390E+02  0.14391977014E+03  0.20385534903E+03  0.00000000000E+00 0.  1.
         -5    1    5    5    0  501 -0.13926996197E+02  0.26474224861E+02  0.19869038252E+03  0.20098458625E+03  0.47000000000E+01 0.  1.
<mgrwt>
<rscale>  2 0.24172119E+03</rscale>
<asrwt>0</asrwt>
<pdfrwt beam="1">  1        2 0.29870647E+00 0.24172119E+03</pdfrwt>
<pdfrwt beam="2">  1       -2 0.64046460E-02 0.24172119E+03</pdfrwt>
<totfact> 0.10708222E+03</totfact>
</mgrwt>
</event>
<event>
12    1  0.5759937E-002  0.2574306E+03  0.7546771E-02  0.1108697E+00
         -2   -1    0    0    0  501 -0.00000000000E+00  0.00000000000E+00  0.56665962954E+02  0.56665962954E+02  0.00000000000E+00 0. -1.
          2   -1    0    0  503    0  0.00000000000E+00 -0.00000000000E+00 -0.11697116013E+04  0.11697116013E+04  0.00000000000E+00 0.  1.
          6    2    1    2  503    0  0.40171629724E+02  0.18506535054E+03 -0.54616706937E+03  0.60331758672E+03  0.17271565932E+03 0.  0.
         24    2    3    3    0    0  0.57411610167E+02  0.42371415953E+02 -0.29654364738E+03  0.31523301805E+03  0.79638502003E+02 0.  0.
         -6    2    1    2    0  501 -0.40171629724E+02 -0.18506535054E+03 -0.56687856902E+03  0.62305997758E+03  0.17603829084E+03 0.  0.
        -24    2    5    5    0    0  0.10902652051E+02 -0.18271483965E+03 -0.50215134096E+03  0.54044150984E+03  0.80109149762E+02 0.  0.
          4    1    4    4  502    0  0.19848819772E+02  0.33924548058E+02 -0.25719841911E+03  0.26018431428E+03  0.00000000000E+00 0. -1.
         -3    1    4    4    0  502  0.37562790395E+02  0.84468678954E+01 -0.39345228267E+02  0.55048703771E+02  0.00000000000E+00 0.  1.
          5    1    3    3  503    0 -0.17239980444E+02  0.14269393459E+03 -0.24962342199E+03  0.28808456866E+03  0.47000000000E+01 0. -1.
         13    1    6    6    0    0  0.11664906156E+02 -0.91621660002E+02 -0.14549478030E+03  0.17233493468E+03  0.00000000000E+00 0. -1.
        -14    1    6    6    0    0 -0.76225410538E+00 -0.91093179646E+02 -0.35665656066E+03  0.36810657515E+03  0.00000000000E+00 0.  1.
         -5    1    5    5    0  501 -0.51074281775E+02 -0.23505108903E+01 -0.64727228061E+02  0.82618467746E+02  0.47000000000E+01 0.  1.
<mgrwt>
<rscale>  2 0.25743057E+03</rscale>
<asrwt>0</asrwt>
<pdfrwt beam="2">  1        2 0.17995563E+00 0.25743057E+03</pdfrwt>
<pdfrwt beam="1">  1       -2 0.87178406E-02 0.25743057E+03</pdfrwt>
<totfact> 0.17175308E+03</totfact>
</mgrwt>
</event>
<event>
12    1  0.5759937E-002  0.2007769E+03  0.7546771E-02  0.1149085E+00
          2   -1    0    0  503    0  0.00000000000E+00  0.00000000000E+00  0.68964325895E+03  0.68964325895E+03  0.00000000000E+00 0.  1.
         -2   -1    0    0    0  501 -0.00000000000E+00 -0.00000000000E+00 -0.72640847095E+02  0.72640847095E+02  0.00000000000E+00 0. -1.
          6    2    1    2  503    0  0.92900776129E+01 -0.10039198394E+03  0.13985370094E+03  0.24455100568E+03  0.17343955930E+03 0.  0.
         24    2    3    3    0    0 -0.15748787393E+02  0.11748617520E+02  0.77648685962E+02  0.11380693069E+03  0.80849519003E+02 0.  0.
         -6    2    1    2    0  501 -0.92900776129E+01  0.10039198394E+03  0.47714871091E+03  0.51773310036E+03  0.17381546222E+03 0.  0.
        -24    2    5    5    0    0 -0.51130514263E+02  0.93197832076E+01  0.18588350466E+03  0.20967096660E+03  0.81902680559E+02 0.  0.
          2    1    4    4  502    0  0.23548844526E+02 -0.74204233740E+01 -0.45067563437E-02  0.24690297322E+02  0.00000000000E+00 0. -1.
         -1    1    4    4    0  502 -0.39297631918E+02  0.19169040894E+02  0.77653192718E+02  0.89116633366E+02  0.00000000000E+00 0.  1.
          5    1    3    3  503    0  0.25038865006E+02 -0.11214060146E+03  0.62205014980E+02  0.13074407499E+03  0.47000000000E+01 0. -1.
         11    1    6    6    0    0 -0.36168600931E+02  0.41332614572E+02  0.72795374595E+02  0.91190565757E+02  0.00000000000E+00 0. -1.
        -12    1    6    6    0    0 -0.14961913331E+02 -0.32012831364E+02  0.11308813006E+03  0.11848040084E+03  0.00000000000E+00 0.  1.
         -5    1    5    5    0  501  0.41840436650E+02  0.91072200733E+02  0.29126520626E+03  0.30806213377E+03  0.47000000000E+01 0.  1.
<mgrwt>
<rscale>  2 0.20077687E+03</rscale>
<asrwt>0</asrwt>
<pdfrwt beam="1">  1        2 0.10609896E+00 0.20077687E+03</pdfrwt>
<pdfrwt beam="2">  1       -2 0.11175515E-01 0.20077687E+03</pdfrwt>
<totfact> 0.23523491E+03</totfact>
</mgrwt>
</event>
<event>
12    1  0.5759937E-002  0.2342680E+03  0.7546771E-02  0.1123671E+00
         -1   -1    0    0    0  501 -0.00000000000E+00  0.00000000000E+00  0.25839190927E+02  0.25839190927E+02  0.00000000000E+00 0.  1.
          1   -1    0    0  503    0  0.00000000000E+00 -0.00000000000E+00 -0.21249420953E+04  0.21249420953E+04  0.00000000000E+00 0. -1.
          6    2    1    2  503    0 -0.60759126741E+02 -0.14578461603E+03 -0.10747410980E+04  0.11000834321E+04  0.17369601105E+03 0.  0.
         24    2    3    3    0    0 -0.11243880264E+02 -0.16182620348E+03 -0.75876533673E+03  0.77981500745E+03  0.77926020370E+02 0.  0.
         -6    2    1    2    0  501  0.60759126741E+02  0.14578461603E+03 -0.10243618064E+04  0.10506978541E+04  0.17234861301E+03 0.  0.
        -24    2    5    5    0    0  0.63491766788E+01  0.15967827229E+03 -0.79358683361E+03  0.81314227234E+03  0.76699608225E+02 0.  0.
          2    1    4    4  502    0  0.21566140263E+02 -0.28510920519E+02 -0.26195996729E+03  0.26438796391E+03  0.00000000000E+00 0. -1.
         -1    1    4    4    0  502 -0.32810020527E+02 -0.13331528296E+03 -0.49680536944E+03  0.51542704354E+03  0.00000000000E+00 0.  1.
          5    1    3    3  503    0 -0.49515246477E+02  0.16041587448E+02 -0.31597576122E+03  0.32026842467E+03  0.47000000000E+01 0. -1.
         13    1    6    6    0    0  0.25924923271E+02  0.17588380425E+02 -0.20206434011E+03  0.20447848375E+03  0.00000000000E+00 0. -1.
        -14    1    6    6    0    0 -0.19575746593E+02  0.14208989186E+03 -0.59152249350E+03  0.60866378859E+03  0.00000000000E+00 0.  1.
         -5    1    5    5    0  501  0.54409950062E+02 -0.13893656260E+02 -0.23077497278E+03  0.23755558173E+03  0.47000000000E+01 0.  1.
<mgrwt>
<rscale>  2 0.23426802E+03</rscale>
<asrwt>0</asrwt>
<pdfrwt beam="2">  1        1 0.32691434E+00 0.23426802E+03</pdfrwt>
<pdfrwt beam="1">  1       -1 0.39752581E-02 0.23426802E+03</pdfrwt>
<totfact> 0.69758255E+02</totfact>
</mgrwt>
</event>
<event>
12    1  0.5759937E-002  0.1815658E+03  0.7546771E-02  0.1166296E+00
          2   -1    0    0  503    0  0.00000000000E+00  0.00000000000E+00  0.21955637307E+02  0.21955637307E+02  0.00000000000E+00 0.  1.
         -2   -1    0    0    0  501 -0.00000000000E+00 -0.00000000000E+00 -0.15425114134E+04  0.15425114134E+04  0.00000000000E+00 0. -1.
          6    2    1    2  503    0 -0.26145525480E+02 -0.66731926896E+00 -0.67158108591E+03  0.69795060283E+03  0.18822819985E+03 0.  0.
         24    2    3    3    0    0 -0.10797349227E+01 -0.61570940334E+02 -0.55358233926E+03  0.56273470463E+03  0.80154818526E+02 0.  0.
         -6    2    1    2    0  501  0.26145525480E+02  0.66731926896E+00 -0.84897469020E+03  0.86651644790E+03  0.17148963833E+03 0.  0.
        -24    2    5    5    0    0  0.70242065035E+02 -0.16119162323E+01 -0.36245354350E+03  0.37797308656E+03  0.80960095084E+02 0.  0.
          2    1    4    4  502    0 -0.38542178589E+02 -0.43245902079E+02 -0.27377269674E+03  0.27983423139E+03  0.00000000000E+00 0. -1.
         -1    1    4    4    0  502  0.37462443666E+02 -0.18325038256E+02 -0.27980964252E+03  0.28290047324E+03  0.00000000000E+00 0.  1.
          5    1    3    3  503    0 -0.25065790557E+02  0.60903621066E+02 -0.11799874666E+03  0.13521589821E+03  0.47000000000E+01 0. -1.
         13    1    6    6    0    0  0.60255050399E+02 -0.24028422934E+02 -0.33468923740E+03  0.34091776404E+03  0.00000000000E+00 0. -1.
        -14    1    6    6    0    0  0.99870146359E+01  0.22416506701E+02 -0.27764306101E+02  0.37055322523E+02  0.00000000000E+00 0.  1.
         -5    1    5    5    0  501 -0.44096539555E+02  0.22792355013E+01 -0.48652114670E+03  0.48854336133E+03  0.47000000000E+01 0.  1.
<mgrwt>
<rscale>  2 0.18156576E+03</rscale>
<asrwt>0</asrwt>
<pdfrwt beam="1">  1        2 0.33777896E-02 0.18156576E+03</pdfrwt>
<pdfrwt beam="2">  1       -2 0.23730950E+00 0.18156576E+03</pdfrwt>
<totfact> 0.22644129E+02</totfact>
</mgrwt>
</event>
<event>
12    1  0.5759937E-002  0.2138669E+03  0.7546771E-02  0.1138540E+00
          2   -1    0    0  503    0  0.00000000000E+00  0.00000000000E+00  0.35440509943E+03  0.35440509943E+03  0.00000000000E+00 0. -1.
         -2   -1    0    0    0  501 -0.00000000000E+00 -0.00000000000E+00 -0.17618379374E+03  0.17618379374E+03  0.00000000000E+00 0.  1.
          6    2    1    2  503    0 -0.60560704395E+02  0.11042666942E+03 -0.48196009797E+02  0.21890532069E+03  0.17243849869E+03 0.  0.
         24    2    3    3    0    0 -0.23738869149E+02  0.13762930358E+03 -0.14423134604E+02  0.16182180332E+03  0.80454397671E+02 0.  0.
         -6    2    1    2    0  501  0.60560704395E+02 -0.11042666942E+03  0.22641731549E+03  0.31168357249E+03  0.17326338438E+03 0.  0.
        -24    2    5    5    0    0 -0.26916816702E+02 -0.78345316807E+02  0.89120438451E+02  0.14568943907E+03  0.80127750628E+02 0.  0.
          2    1    4    4  502    0 -0.30148142431E+02  0.24911667419E+02  0.19818424157E+02  0.43843717927E+02  0.00000000000E+00 0. -1.
         -1    1    4    4    0  502  0.64092732815E+01  0.11271763617E+03 -0.34241558761E+02  0.11797808539E+03  0.00000000000E+00 0.  1.
          5    1    3    3  503    0 -0.36821835246E+02 -0.27202634163E+02 -0.33772875193E+02  0.57083517368E+02  0.47000000000E+01 0. -1.
         13    1    6    6    0    0  0.88156420755E+01 -0.68488452150E+02  0.83247941800E+02  0.10816008246E+03  0.00000000000E+00 0. -1.
        -14    1    6    6    0    0 -0.35732458777E+02 -0.98568646573E+01  0.58724966512E+01  0.37529356617E+02  0.00000000000E+00 0.  1.
         -5    1    5    5    0  501  0.87477521096E+02 -0.32081352615E+02  0.13729687704E+03  0.16599413341E+03  0.47000000000E+01 0.  1.
<mgrwt>
<rscale>  2 0.21386688E+03</rscale>
<asrwt>0</asrwt>
<pdfrwt beam="1">  1        2 0.54523861E-01 0.21386688E+03</pdfrwt>
<pdfrwt beam="2">  1       -2 0.27105199E-01 0.21386688E+03</pdfrwt>
<totfact> 0.11185189E+03</totfact>
</mgrwt>
</event>
<event>
12    1  0.5759937E-002  0.2270624E+03  0.7546771E-02  0.1128725E+00
         -2   -1    0    0    0  501 -0.00000000000E+00  0.00000000000E+00  0.14258541028E+03  0.14258541028E+03  0.00000000000E+00 0. -1.
          2   -1    0    0  503    0  0.00000000000E+00 -0.00000000000E+00 -0.42160415183E+03  0.42160415183E+03  0.00000000000E+00 0.  1.
          6    2    1    2  503    0  0.22980647301E+02 -0.14670489420E+03 -0.33674656722E+02  0.23065350782E+03  0.17325305778E+03 0.  0.
         24    2    3    3    0    0  0.70082683739E+02 -0.14425018089E+03 -0.33392370416E+02  0.18325311605E+03  0.82139861795E+02 0.  0.
         -6    2    1    2    0  501 -0.22980647301E+02  0.14670489420E+03 -0.24534408483E+03  0.33353605428E+03  0.17030015682E+03 0.  0.
        -24    2    5    5    0    0 -0.76994541021E+02  0.13139114926E+03 -0.18738599792E+03  0.25270758568E+03  0.74537361053E+02 0.  0.
          2    1    4    4  502    0  0.38011194695E+02 -0.16525503539E+02 -0.30624254531E+02  0.51534339570E+02  0.00000000000E+00 0. -1.
         -1    1    4    4    0  502  0.32071489044E+02 -0.12772467735E+03 -0.27681158855E+01  0.13171877648E+03  0.00000000000E+00 0.  1.
          5    1    3    3  503    0 -0.47102036438E+02 -0.24547133195E+01 -0.28228630616E+00  0.47400391767E+02  0.47000000000E+01 0. -1.
         13    1    6    6    0    0 -0.12670295028E+02  0.79016836720E+01  0.45280163842E+01  0.15603714729E+02  0.00000000000E+00 0. -1.
        -14    1    6    6    0    0 -0.64324245993E+02  0.12348946559E+03 -0.19191401431E+03  0.23710387095E+03  0.00000000000E+00 0.  1.
         -5    1    5    5    0  501  0.54013893720E+02  0.15313744943E+02 -0.57958086905E+02  0.80828468603E+02  0.47000000000E+01 0.  1.
<mgrwt>
<rscale>  2 0.22706238E+03</rscale>
<asrwt>0</asrwt>
<pdfrwt beam="2">  1        2 0.64862177E-01 0.22706238E+03</pdfrwt>
<pdfrwt beam="1">  1       -2 0.21936217E-01 0.22706238E+03</pdfrwt>
<totfact> 0.13452464E+03</totfact>
</mgrwt>
</event>
<event>
12    1  0.5759937E-002  0.1925246E+03  0.7546771E-02  0.1156204E+00
          2   -1    0    0  503    0  0.00000000000E+00  0.00000000000E+00  0.86310302317E+03  0.86310302317E+03  0.00000000000E+00 0.  1.
         -2   -1    0    0    0  501 -0.00000000000E+00 -0.00000000000E+00 -0.44283064240E+02  0.44283064240E+02  0.00000000000E+00 0. -1.
          6    2    1    2  503    0 -0.18145271613E+02  0.69739489379E+02  0.33147870454E+03  0.38356058511E+03  0.17901883596E+03 0.  0.
         24    2    3    3    0    0 -0.54743296828E+02  0.81305746130E+02  0.31849817050E+03  0.34277115010E+03  0.80271563013E+02 0.  0.
         -6    2    1    2    0  501  0.18145271613E+02 -0.69739489379E+02  0.48734125438E+03  0.52382550229E+03  0.17804160010E+03 0.  0.
        -24    2    5    5    0    0  0.45421871136E+02 -0.80557023043E+02  0.19805661929E+03  0.23301848378E+03  0.80737903110E+02 0.  0.
          2    1    4    4  502    0 -0.43396277376E+02  0.47820224337E+02  0.85711373010E+02  0.10731472503E+03  0.00000000000E+00 0. -1.
         -1    1    4    4    0  502 -0.11347019452E+02  0.33485521793E+02  0.23278679749E+03  0.23545642506E+03  0.00000000000E+00 0.  1.
          5    1    3    3  503    0  0.36598025215E+02 -0.11566256751E+02  0.12980534046E+02  0.40789435016E+02  0.47000000000E+01 0. -1.
         11    1    6    6    0    0  0.50110168181E+02 -0.23934590495E+02  0.51118809479E+02  0.75478647708E+02  0.00000000000E+00 0. -1.
        -12    1    6    6    0    0 -0.46882970450E+01 -0.56622432548E+02  0.14693780982E+03  0.15753983607E+03  0.00000000000E+00 0.  1.
         -5    1    5    5    0  501 -0.27276599523E+02  0.10817533663E+02  0.28928463509E+03  0.29080701851E+03  0.47000000000E+01 0.  1.
<mgrwt>
<rscale>  2 0.19252458E+03</rscale>
<asrwt>0</asrwt>
<pdfrwt beam="1">  1        2 0.13278507E+00 0.19252458E+03</pdfrwt>
<pdfrwt beam="2">  1       -2 0.68127798E-02 0.19252458E+03</pdfrwt>
<totfact> 0.38614160E+03</totfact>
</mgrwt>
</event>
<event>
12    1  0.5759937E-002  0.2190771E+03  0.7546771E-02  0.1134573E+00
         -2   -1    0    0    0  501 -0.00000000000E+00  0.00000000000E+00  0.14413693854E+03  0.14413693854E+03  0.00000000000E+00 0.  1.
          2   -1    0    0  503    0  0.00000000000E+00 -0.00000000000E+00 -0.49276291513E+03  0.49276291513E+03  0.00000000000E+00 0. -1.
          6    2    1    2  503    0  0.11152666390E+03  0.75909531500E+02 -0.35588707382E+03  0.41814432936E+03  0.17317221814E+03 0.  0.
         24    2    3    3    0    0  0.83456708715E+01  0.65428046480E+02 -0.25002024018E+03  0.26986737460E+03  0.77251536448E+02 0.  0.
         -6    2    1    2    0  501 -0.11152666390E+03 -0.75909531500E+02  0.72610972332E+01  0.21875552430E+03  0.17204883652E+03 0.  0.
        -24    2    5    5    0    0 -0.14924642432E+02 -0.33881907083E+02 -0.46320449228E+02  0.10047051305E+03  0.81104940645E+02 0.  0.
          2    1    4    4  502    0  0.33227779082E+02  0.67081407830E+02 -0.16345543036E+03  0.17978230806E+03  0.00000000000E+00 0. -1.
         -1    1    4    4    0  502 -0.24882108211E+02 -0.16533613496E+01 -0.86564809825E+02  0.90085066536E+02  0.00000000000E+00 0.  1.
          5    1    3    3  503    0  0.10318099303E+03  0.10481485020E+02 -0.10586683364E+03  0.14827695476E+03  0.47000000000E+01 0. -1.
         11    1    6    6    0    0 -0.44480747179E+02 -0.38754146661E+00 -0.23521408613E+02  0.50318423277E+02  0.00000000000E+00 0. -1.
        -12    1    6    6    0    0  0.29556104747E+02 -0.33494365616E+02 -0.22799040615E+02  0.50152089775E+02  0.00000000000E+00 0.  1.
         -5    1    5    5    0  501 -0.96602021465E+02 -0.42027624418E+02  0.53581546462E+02  0.11828501125E+03  0.47000000000E+01 0.  1.
<mgrwt>
<rscale>  2 0.21907709E+03</rscale>
<asrwt>0</asrwt>
<pdfrwt beam="2">  1        2 0.75809679E-01 0.21907709E+03</pdfrwt>
<pdfrwt beam="1">  1       -2 0.22174914E-01 0.21907709E+03</pdfrwt>
<totfact> 0.11110599E+03</totfact>
</mgrwt>
</event>
<event>
12    1  0.5759937E-002  0.2081898E+03  0.7546771E-02  0.1143008E+00
         -2   -1    0    0    0  501 -0.00000000000E+00  0.00000000000E+00  0.13662801319E+03  0.13662801319E+03  0.00000000000E+00 0.  1.
          2   -1    0    0  503    0  0.00000000000E+00 -0.00000000000E+00 -0.33721684073E+03  0.33721684073E+03  0.00000000000E+00 0. -1.
          6    2    1    2  503    0  0.10955284261E+03  0.31540079542E+02 -0.42986895399E+02  0.21336097555E+03  0.17515259282E+03 0.  0.
         24    2    3    3    0    0  0.59694782775E+02 -0.20608897410E+02  0.33475753752E+02  0.10812804989E+03  0.81134797352E+02 0.  0.
         -6    2    1    2    0  501 -0.10955284261E+03 -0.31540079542E+02 -0.15760193214E+03  0.26048387836E+03  0.17325380207E+03 0.  0.
        -24    2    5    5    0    0 -0.32559518023E+02 -0.46346909376E+02 -0.15233219918E+03  0.18176237987E+03  0.81389837239E+02 0.  0.
          4    1    4    4  502    0 -0.14364166889E+02  0.62950397270E+01  0.24133724243E+02  0.28781825193E+02  0.00000000000E+00 0. -1.
         -3    1    4    4    0  502  0.74058949664E+02 -0.26903937137E+02  0.93420295086E+01  0.79346224700E+02  0.00000000000E+00 0.  1.
          5    1    3    3  503    0  0.49858059833E+02  0.52148976952E+02 -0.76462649151E+02  0.10523292566E+03  0.47000000000E+01 0. -1.
         13    1    6    6    0    0 -0.23620812991E+02 -0.84206265452E+01 -0.13797618025E+03  0.14023650051E+03  0.00000000000E+00 0. -1.
        -14    1    6    6    0    0 -0.89387050324E+01 -0.37926282831E+02 -0.14356018924E+02  0.41525879357E+02  0.00000000000E+00 0.  1.
         -5    1    5    5    0  501 -0.76993324584E+02  0.14806829834E+02 -0.52697329626E+01  0.78721498498E+02  0.47000000000E+01 0.  1.
<mgrwt>
<rscale>  2 0.20818981E+03</rscale>
<asrwt>0</asrwt>
<pdfrwt beam="2">  1        2 0.51879513E-01 0.20818981E+03</pdfrwt>
<pdfrwt beam="1">  1       -2 0.21019695E-01 0.20818981E+03</pdfrwt>
<totfact> 0.18410122E+03</totfact>
</mgrwt>
</event>
<event>
12    1  0.5759937E-002  0.2050465E+03  0.7546771E-02  0.1145550E+00
         -2   -1    0    0    0  501 -0.00000000000E+00  0.00000000000E+00  0.38015007507E+02  0.38015007507E+02  0.00000000000E+00 0. -1.
          2   -1    0    0  503    0  0.00000000000E+00 -0.00000000000E+00 -0.13990062596E+04  0.13990062596E+04  0.00000000000E+00 0.  1.
          6    2    1    2  503    0 -0.94248933659E+02  0.51453017189E+02 -0.35592552814E+03  0.41157133514E+03  0.17657210384E+03 0.  0.
         24    2    3    3    0    0 -0.42983535515E+02 -0.33335190598E+02 -0.11001853138E+03  0.14641190710E+03  0.79834516558E+02 0.  0.
         -6    2    1    2    0  501  0.94248933659E+02 -0.51453017189E+02 -0.10050657240E+04  0.10254499320E+04  0.17280098101E+03 0.  0.
        -24    2    5    5    0    0  0.51479598053E+01 -0.69070738317E+02 -0.49069954408E+03  0.50310519461E+03  0.86784364441E+02 0.  0.
          2    1    4    4  502    0  0.15570083653E+02  0.40083600808E+01 -0.56476143278E+02  0.58720092090E+02  0.00000000000E+00 0. -1.
         -1    1    4    4    0  502 -0.58553619168E+02 -0.37343550679E+02 -0.53542388106E+02  0.87691815006E+02  0.00000000000E+00 0.  1.
          5    1    3    3  503    0 -0.51265398144E+02  0.84788207787E+02 -0.24590699676E+03  0.26515942805E+03  0.47000000000E+01 0. -1.
         13    1    6    6    0    0 -0.34760333741E+02 -0.58000851518E+02 -0.25601519466E+03  0.26479456089E+03  0.00000000000E+00 0. -1.
        -14    1    6    6    0    0  0.39908293546E+02 -0.11069886799E+02 -0.23468434941E+03  0.23831063373E+03  0.00000000000E+00 0.  1.
         -5    1    5    5    0  501  0.89100973854E+02  0.17617721128E+02 -0.51436617992E+03  0.52234473740E+03  0.47000000000E+01 0.  1.
<mgrwt>
<rscale>  2 0.20504648E+03</rscale>
<asrwt>0</asrwt>
<pdfrwt beam="2">  1        2 0.21523176E+00 0.20504648E+03</pdfrwt>
<pdfrwt beam="1">  1       -2 0.58484620E-02 0.20504648E+03</pdfrwt>
<totfact> 0.23814313E+03</totfact>
</mgrwt>
</event>
<event>
12    1  0.5759937E-002  0.3453307E+03  0.7546771E-02  0.1064548E+00
          2   -1    0    0  503    0  0.00000000000E+00  0.00000000000E+00  0.42782557233E+03  0.42782557233E+03  0.00000000000E+00 0.  1.
         -2   -1    0    0    0  501 -0.00000000000E+00 -0.00000000000E+00 -0.30010531455E+03  0.30010531455E+03  0.00000000000E+00 0. -1.
          6    2    1    2  503    0  0.17951673944E+03  0.23928161243E+03 -0.33330140608E+02  0.34644426065E+03  0.17155400806E+03 0.  0.
         24    2    3    3    0    0  0.16032980180E+03  0.10091430579E+03 -0.26144331618E+02  0.20648935372E+03  0.77878011460E+02 0.  0.
         -6    2    1    2    0  501 -0.17951673944E+03 -0.23928161243E+03  0.16105039838E+03  0.38148662623E+03  0.17353058920E+03 0.  0.
        -24    2    5    5    0    0 -0.20139371048E+03 -0.19693450651E+03  0.15731110915E+03  0.33344548214E+03  0.84240596034E+02 0.  0.
          4    1    4    4  502    0  0.94159117453E+02  0.13392500724E+02 -0.12033409995E+02  0.95865016723E+02  0.00000000000E+00 0. -1.
         -3    1    4    4    0  502  0.66170684343E+02  0.87521805061E+02 -0.14110921623E+02  0.11062433700E+03  0.00000000000E+00 0.  1.
          5    1    3    3  503    0  0.19186937642E+02  0.13836730664E+03 -0.71858089892E+01  0.13995490693E+03  0.47000000000E+01 0. -1.
         11    1    6    6    0    0 -0.28463841808E+02 -0.23114285304E+02 -0.82621341931E+01  0.37586212060E+02  0.00000000000E+00 0. -1.
        -12    1    6    6    0    0 -0.17292986867E+03 -0.17382022121E+03  0.16557324335E+03  0.29585927008E+03  0.00000000000E+00 0.  1.
         -5    1    5    5    0  501  0.21876971043E+02 -0.42347105913E+02  0.37392892272E+01  0.48041144086E+02  0.47000000000E+01 0.  1.
<mgrwt>
<rscale>  2 0.34533069E+03</rscale>
<asrwt>0</asrwt>
<pdfrwt beam="1">  1        2 0.65819319E-01 0.34533069E+03</pdfrwt>
<pdfrwt beam="2">  1       -2 0.46170048E-01 0.34533069E+03</pdfrwt>
<totfact> 0.33484896E+02</totfact>
</mgrwt>
</event>
<event>
12    1  0.5759937E-002  0.2212339E+03  0.7546771E-02  0.1132966E+00
         -1   -1    0    0    0  501 -0.00000000000E+00  0.00000000000E+00  0.89124882446E+02  0.89124882446E+02  0.00000000000E+00 0. -1.
          1   -1    0    0  503    0  0.00000000000E+00 -0.00000000000E+00 -0.56312729335E+03  0.56312729335E+03  0.00000000000E+00 0.  1.
          6    2    1    2  503    0  0.12211548809E+03 -0.63601803825E+02 -0.28897546326E+03  0.36430787512E+03  0.17394259867E+03 0.  0.
         24    2    3    3    0    0  0.41454007050E+02  0.64762447702E+00 -0.22621795963E+03  0.24349869575E+03  0.79988720794E+02 0.  0.
         -6    2    1    2    0  501 -0.12211548809E+03  0.63601803825E+02 -0.18502694764E+03  0.28794430067E+03  0.17239363983E+03 0.  0.
        -24    2    5    5    0    0 -0.14910999889E+03  0.31869941187E+02 -0.13859704424E+03  0.22538680192E+03  0.91326802671E+02 0.  0.
          4    1    4    4  502    0 -0.24097519462E+02  0.34412845814E+01 -0.67445654133E+02  0.71703899093E+02  0.00000000000E+00 0. -1.
         -3    1    4    4    0  502  0.65551526512E+02 -0.27936601043E+01 -0.15877230549E+03  0.17179479665E+03  0.00000000000E+00 0.  1.
          5    1    3    3  503    0  0.80661481035E+02 -0.64249428302E+02 -0.62757503630E+02  0.12080917938E+03  0.47000000000E+01 0. -1.
         13    1    6    6    0    0 -0.95280210805E+02  0.37539076586E+02 -0.34509425477E+02  0.10806665207E+03  0.00000000000E+00 0. -1.
        -14    1    6    6    0    0 -0.53829788087E+02 -0.56691353986E+01 -0.10408761876E+03  0.11732014985E+03  0.00000000000E+00 0.  1.
         -5    1    5    5    0  501  0.26994510806E+02  0.31731862637E+02 -0.46429903405E+02  0.62557498753E+02  0.47000000000E+01 0.  1.
<mgrwt>
<rscale>  2 0.22123391E+03</rscale>
<asrwt>0</asrwt>
<pdfrwt beam="2">  1        1 0.86634968E-01 0.22123391E+03</pdfrwt>
<pdfrwt beam="1">  1       -1 0.13711520E-01 0.22123391E+03</pdfrwt>
<totfact> 0.14219963E+03</totfact>
</mgrwt>
</event>
<event>
12    1  0.5759937E-002  0.1917553E+03  0.7546771E-02  0.1156888E+00
          2   -1    0    0  503    0  0.00000000000E+00  0.00000000000E+00  0.46070062707E+03  0.46070062707E+03  0.00000000000E+00 0.  1.
         -2   -1    0    0    0  501 -0.00000000000E+00 -0.00000000000E+00 -0.10276439642E+03  0.10276439642E+03  0.00000000000E+00 0. -1.
          6    2    1    2  503    0  0.90223849988E+01 -0.82238831667E+02  0.46017817180E+02  0.19745669528E+03  0.17328265392E+03 0.  0.
         24    2    3    3    0    0  0.66980518079E+02 -0.16919879541E+02  0.26166980677E+02  0.10778029701E+03  0.78480630859E+02 0.  0.
         -6    2    1    2    0  501 -0.90223849988E+01  0.82238831667E+02  0.31191841347E+03  0.36600832822E+03  0.17269733871E+03 0.  0.
        -24    2    5    5    0    0 -0.48666628950E+02 -0.25515700548E+01  0.11850478937E+03  0.15108509008E+03  0.80052283282E+02 0.  0.
          4    1    4    4  502    0  0.47546830612E+01 -0.36416821069E+02 -0.19284658864E+01  0.36776498589E+02  0.00000000000E+00 0. -1.
         -3    1    4    4    0  502  0.62225835018E+02  0.19496941528E+02  0.28095446564E+02  0.71003798422E+02  0.00000000000E+00 0.  1.
          5    1    3    3  503    0 -0.57958133081E+02 -0.65318952126E+02  0.19850836502E+02  0.89676398271E+02  0.47000000000E+01 0. -1.
         13    1    6    6    0    0 -0.65920781973E+02  0.15957288232E+02  0.93513514486E+02  0.11552039619E+03  0.00000000000E+00 0. -1.
        -14    1    6    6    0    0  0.17254153023E+02 -0.18508858286E+02  0.24991274885E+02  0.35564693897E+02  0.00000000000E+00 0.  1.
         -5    1    5    5    0  501  0.39644243951E+02  0.84790401721E+02  0.19341362410E+03  0.21492323813E+03  0.47000000000E+01 0.  1.
<mgrwt>
<rscale>  2 0.19175535E+03</rscale>
<asrwt>0</asrwt>
<pdfrwt beam="1">  1        2 0.70877019E-01 0.19175535E+03</pdfrwt>
<pdfrwt beam="2">  1       -2 0.15809907E-01 0.19175535E+03</pdfrwt>
<totfact> 0.21179429E+03</totfact>
</mgrwt>
</event>
<event>
12    1  0.5759937E-002  0.1839606E+03  0.7546771E-02  0.1164024E+00
          1   -1    0    0  503    0  0.00000000000E+00  0.00000000000E+00  0.32865043243E+02  0.32865043243E+02  0.00000000000E+00 0. -1.
         -1   -1    0    0    0  501 -0.00000000000E+00 -0.00000000000E+00 -0.10954857443E+04  0.10954857443E+04  0.00000000000E+00 0.  1.
          6    2    1    2  503    0  0.36979045972E+02  0.49298875650E+02 -0.39221123527E+03  0.43307594316E+03  0.17299505915E+03 0.  0.
         24    2    3    3    0    0 -0.33869301392E+02  0.65344703588E+02 -0.21041857422E+03  0.23725046338E+03  0.81208042303E+02 0.  0.
         -6    2    1    2    0  501 -0.36979045972E+02 -0.49298875650E+02 -0.67040946582E+03  0.69527484442E+03  0.17366758027E+03 0.  0.
        -24    2    5    5    0    0 -0.35631499292E+02  0.53750144534E+01 -0.17151610383E+03  0.19337074324E+03  0.81706645664E+02 0.  0.
          4    1    4    4  502    0 -0.54601716683E+02  0.18701228636E+02 -0.12619019212E+03  0.13876255980E+03  0.00000000000E+00 0. -1.
         -3    1    4    4    0  502  0.20732415291E+02  0.46643474952E+02 -0.84228382104E+02  0.98487903578E+02  0.00000000000E+00 0.  1.
          5    1    3    3  503    0  0.70848347364E+02 -0.16045827938E+02 -0.18179266105E+03  0.19582547977E+03  0.47000000000E+01 0. -1.
         11    1    6    6    0    0 -0.50384422313E+02 -0.20911842452E+02 -0.78511101994E+02  0.95602763050E+02  0.00000000000E+00 0. -1.
        -12    1    6    6    0    0  0.14752923021E+02  0.26286856905E+02 -0.93005001841E+02  0.97767980193E+02  0.00000000000E+00 0.  1.
         -5    1    5    5    0  501 -0.13475466800E+01 -0.54673890103E+02 -0.49889336199E+03  0.50190410117E+03  0.47000000000E+01 0.  1.
<mgrwt>
<rscale>  2 0.18396056E+03</rscale>
<asrwt>0</asrwt>
<pdfrwt beam="1">  1        1 0.50561599E-02 0.18396056E+03</pdfrwt>
<pdfrwt beam="2">  1       -1 0.16853629E+00 0.18396056E+03</pdfrwt>
<totfact> 0.45131417E+02</totfact>
</mgrwt>
</event>
<event>
12    1  0.5759937E-002  0.2261775E+03  0.7546771E-02  0.1129359E+00
          2   -1    0    0  503    0  0.00000000000E+00  0.00000000000E+00  0.74840662821E+03  0.74840662821E+03  0.00000000000E+00 0. -1.
         -2   -1    0    0    0  501 -0.00000000000E+00 -0.00000000000E+00 -0.71604680178E+02  0.71604680178E+02  0.00000000000E+00 0.  1.
          6    2    1    2  503    0  0.63064319402E+02  0.12531126203E+03  0.43081394646E+03  0.48832957054E+03  0.18216775849E+03 0.  0.
         24    2    3    3    0    0  0.91238602221E+02  0.44132909283E+02  0.16478899242E+03  0.20873149949E+03  0.78366004364E+02 0.  0.
         -6    2    1    2    0  501 -0.63064319402E+02 -0.12531126203E+03  0.24598800158E+03  0.33168173784E+03  0.17269237831E+03 0.  0.
        -24    2    5    5    0    0  0.22278827150E+02 -0.95317436078E+02  0.10308900956E+03  0.16249162532E+03  0.78704667242E+02 0.  0.
          2    1    4    4  502    0  0.85284551884E+02  0.49981056819E+02  0.17154897176E+03  0.19799144058E+03  0.00000000000E+00 0. -1.
         -1    1    4    4    0  502  0.59540503376E+01 -0.58481475359E+01 -0.67599793315E+01  0.10740058919E+02  0.00000000000E+00 0.  1.
          5    1    3    3  503    0 -0.28174282819E+02  0.81178352748E+02  0.26602495403E+03  0.27959807105E+03  0.47000000000E+01 0. -1.
         11    1    6    6    0    0  0.14999339147E+02 -0.10627218210E+03  0.73413520342E+02  0.13003192620E+03  0.00000000000E+00 0. -1.
        -12    1    6    6    0    0  0.72794880027E+01  0.10954746023E+02  0.29675489220E+02  0.32459699112E+02  0.00000000000E+00 0.  1.
         -5    1    5    5    0  501 -0.85343146552E+02 -0.29993825953E+02  0.14289899201E+03  0.16919011253E+03  0.47000000000E+01 0.  1.
<mgrwt>
<rscale>  2 0.22617753E+03</rscale>
<asrwt>0</asrwt>
<pdfrwt beam="1">  1        2 0.11513948E+00 0.22617753E+03</pdfrwt>
<pdfrwt beam="2">  1       -2 0.11016105E-01 0.22617753E+03</pdfrwt>
<totfact> 0.21835541E+03</totfact>
</mgrwt>
</event>
<event>
12    1  0.5759937E-002  0.1972468E+03  0.7546771E-02  0.1152083E+00
         -2   -1    0    0    0  501 -0.00000000000E+00  0.00000000000E+00  0.27672661557E+02  0.27672661557E+02  0.00000000000E+00 0.  1.
          2   -1    0    0  503    0  0.00000000000E+00 -0.00000000000E+00 -0.29675551946E+04  0.29675551946E+04  0.00000000000E+00 0. -1.
          6    2    1    2  503    0 -0.46708116525E+02 -0.79972736539E+02 -0.38395903445E+03  0.43171356346E+03  0.17428360222E+03 0.  0.
         24    2    3    3    0    0 -0.19084868467E+02 -0.30154433778E+01 -0.72758339709E+02  0.10991637390E+03  0.80090624613E+02 0.  0.
         -6    2    1    2    0  501  0.46708116525E+02  0.79972736539E+02 -0.25559234986E+04  0.25635142927E+04  0.17402100862E+03 0.  0.
        -24    2    5    5    0    0  0.45871890938E+02  0.80568436456E+01 -0.20725538395E+04  0.20748007649E+04  0.84555622296E+02 0.  0.
          2    1    4    4  502    0  0.27623473311E+02  0.90358834187E+01 -0.99458765315E+01  0.30718462313E+02  0.00000000000E+00 0. -1.
         -1    1    4    4    0  502 -0.46708341778E+02 -0.12051326796E+02 -0.62812463178E+02  0.79197911587E+02  0.00000000000E+00 0.  1.
          5    1    3    3  503    0 -0.27623248058E+02 -0.76957293161E+02 -0.31120069474E+03  0.32179718956E+03  0.47000000000E+01 0. -1.
         13    1    6    6    0    0  0.14722070637E+02 -0.34630352276E+02 -0.12404524168E+04  0.12410230453E+04  0.00000000000E+00 0. -1.
        -14    1    6    6    0    0  0.31149820302E+02  0.42687195921E+02 -0.83210142277E+03  0.83377771964E+03  0.00000000000E+00 0.  1.
         -5    1    5    5    0  501  0.83622558685E+00  0.71915892893E+02 -0.48336965908E+03  0.48871352778E+03  0.47000000000E+01 0.  1.
<mgrwt>
<rscale>  2 0.19724681E+03</rscale>
<asrwt>0</asrwt>
<pdfrwt beam="2">  1        2 0.45654700E+00 0.19724681E+03</pdfrwt>
<pdfrwt beam="1">  1       -2 0.42573321E-02 0.19724681E+03</pdfrwt>
<totfact> 0.55551392E+02</totfact>
</mgrwt>
</event>
<event>
12    1  0.5759937E-002  0.2405468E+03  0.7546771E-02  0.1119429E+00
         -1   -1    0    0    0  501 -0.00000000000E+00  0.00000000000E+00  0.24793729002E+03  0.24793729002E+03  0.00000000000E+00 0.  1.
          1   -1    0    0  503    0  0.00000000000E+00 -0.00000000000E+00 -0.28166086448E+03  0.28166086448E+03  0.00000000000E+00 0. -1.
          6    2    1    2  503    0 -0.14831918094E+03 -0.72119396530E+02 -0.12640772786E+03  0.27051591239E+03  0.17320553803E+03 0.  0.
         24    2    3    3    0    0 -0.87365433521E+02  0.14052460883E+02 -0.10848447339E+03  0.16335117292E+03  0.84169674445E+02 0.  0.
         -6    2    1    2    0  501  0.14831918094E+03  0.72119396530E+02  0.92684153408E+02  0.25908224211E+03  0.17701262410E+03 0.  0.
        -24    2    5    5    0    0  0.11998874037E+03  0.11747383270E+03  0.57509272007E+02  0.19490279816E+03  0.80513260893E+02 0.  0.
          4    1    4    4  502    0 -0.45495944105E+01 -0.17427313561E+02 -0.59389674182E+02  0.62060804593E+02  0.00000000000E+00 0. -1.
         -3    1    4    4    0  502 -0.82815839110E+02  0.31479774444E+02 -0.49094799212E+02  0.10129036833E+03  0.00000000000E+00 0.  1.
          5    1    3    3  503    0 -0.60953747424E+02 -0.86171857414E+02 -0.17923254465E+02  0.10716473947E+03  0.47000000000E+01 0. -1.
         11    1    6    6    0    0  0.65025244738E+01 -0.59540966911E+01  0.21738739597E+02  0.23458620829E+02  0.00000000000E+00 0. -1.
        -12    1    6    6    0    0  0.11348621590E+03  0.12342792939E+03  0.35770532410E+02  0.17144417733E+03  0.00000000000E+00 0.  1.
         -5    1    5    5    0  501  0.28330440574E+02 -0.45354436170E+02  0.35174881401E+02  0.64179443944E+02  0.47000000000E+01 0.  1.
<mgrwt>
<rscale>  2 0.24054679E+03</rscale>
<asrwt>0</asrwt>
<pdfrwt beam="2">  1        1 0.43332441E-01 0.24054679E+03</pdfrwt>
<pdfrwt beam="1">  1       -1 0.38144198E-01 0.24054679E+03</pdfrwt>
<totfact> 0.64023947E+02</totfact>
</mgrwt>
</event>
<event>
12    1  0.5759937E-002  0.2418132E+03  0.7546771E-02  0.1118591E+00
         -2   -1    0    0    0  501 -0.00000000000E+00  0.00000000000E+00  0.21895330796E+03  0.21895330796E+03  0.00000000000E+00 0.  1.
          2   -1    0    0  503    0  0.00000000000E+00 -0.00000000000E+00 -0.63128345399E+03  0.63128345399E+03  0.00000000000E+00 0. -1.
          6    2    1    2  503    0  0.84409890183E+02 -0.14622251256E+03 -0.52891710182E+03  0.58139141917E+03  0.17250109841E+03 0.  0.
         24    2    3    3    0    0  0.44070623954E+02 -0.14616428733E+03 -0.50612542145E+03  0.53482092976E+03  0.81020157301E+02 0.  0.
         -6    2    1    2    0  501 -0.84409890183E+02  0.14622251256E+03  0.11658695579E+03  0.26884534277E+03  0.17372175261E+03 0.  0.
        -24    2    5    5    0    0 -0.10001489052E+03  0.92360641073E+02  0.23411224230E+02  0.15999487567E+03  0.80726751927E+02 0.  0.
          2    1    4    4  502    0  0.12462276833E+02 -0.13982843130E+03 -0.42152286781E+03  0.44428462344E+03  0.00000000000E+00 0. -1.
         -1    1    4    4    0  502  0.31608347121E+02 -0.63358560313E+01 -0.84602553638E+02  0.90536306317E+02  0.00000000000E+00 0.  1.
          5    1    3    3  503    0  0.40339266229E+02 -0.58225236816E-01 -0.22791680370E+02  0.46570489413E+02  0.47000000000E+01 0. -1.
         11    1    6    6    0    0 -0.93834690618E+01  0.99810812883E+01 -0.24831506142E+02  0.28359745637E+02  0.00000000000E+00 0. -1.
        -12    1    6    6    0    0 -0.90631421457E+02  0.82379559785E+02  0.48242730373E+02  0.13163513004E+03  0.00000000000E+00 0.  1.
         -5    1    5    5    0  501  0.15605000336E+02  0.53861871490E+02  0.93175731561E+02  0.10885046710E+03  0.47000000000E+01 0.  1.
<mgrwt>
<rscale>  2 0.24181317E+03</rscale>
<asrwt>0</asrwt>
<pdfrwt beam="2">  1        2 0.97120530E-01 0.24181317E+03</pdfrwt>
<pdfrwt beam="1">  1       -2 0.33685125E-01 0.24181317E+03</pdfrwt>
<totfact> 0.39556457E+02</totfact>
</mgrwt>
</event>
<event>
12    1  0.5759937E-002  0.2687782E+03  0.7546771E-02  0.1101981E+00
          2   -1    0    0  503    0  0.00000000000E+00  0.00000000000E+00  0.24579026183E+03  0.24579026183E+03  0.00000000000E+00 0.  1.
         -2   -1    0    0    0  501 -0.00000000000E+00 -0.00000000000E+00 -0.29514689783E+03  0.29514689783E+03  0.00000000000E+00 0. -1.
          6    2    1    2  503    0  0.68481054579E+02 -0.19352006759E+03 -0.71527536952E+01  0.26796648271E+03  0.17209068125E+03 0.  0.
         24    2    3    3    0    0 -0.16727844313E+02 -0.57481854158E+02 -0.34622879197E+02  0.10504426274E+03  0.79066864348E+02 0.  0.
         -6    2    1    2    0  501 -0.68481054579E+02  0.19352006759E+03 -0.42203882306E+02  0.27297067695E+03  0.17490612166E+03 0.  0.
        -24    2    5    5    0    0 -0.41804700873E+02  0.17306563656E+03 -0.83881889011E+02  0.21921979008E+03  0.96549456166E+02 0.  0.
          4    1    4    4  502    0  0.11642426888E+02 -0.20439045704E+02 -0.50539533503E+02  0.55745359805E+02  0.00000000000E+00 0. -1.
         -3    1    4    4    0  502 -0.28370271201E+02 -0.37042808454E+02  0.15916654306E+02  0.49298902934E+02  0.00000000000E+00 0.  1.
          5    1    3    3  503    0  0.85208898891E+02 -0.13603821343E+03  0.27470125502E+02  0.16292221997E+03  0.47000000000E+01 0. -1.
         13    1    6    6    0    0 -0.37448100041E+02  0.40173944573E+02 -0.64721404039E+02  0.84883250174E+02  0.00000000000E+00 0. -1.
        -14    1    6    6    0    0 -0.43566008321E+01  0.13289169199E+03 -0.19160484973E+02  0.13433653991E+03  0.00000000000E+00 0.  1.
         -5    1    5    5    0  501 -0.26676353706E+02  0.20454431032E+02  0.41678006705E+02  0.53750886865E+02  0.47000000000E+01 0.  1.
<mgrwt>
<rscale>  2 0.26877816E+03</rscale>
<asrwt>0</asrwt>
<pdfrwt beam="1">  1        2 0.37813886E-01 0.26877816E+03</pdfrwt>
<pdfrwt beam="2">  1       -2 0.45407215E-01 0.26877816E+03</pdfrwt>
<totfact> 0.63416678E+02</totfact>
</mgrwt>
</event>
<event>
12    1  0.5759937E-002  0.1972917E+03  0.7546771E-02  0.1152044E+00
          1   -1    0    0  503    0  0.00000000000E+00  0.00000000000E+00  0.78936653232E+03  0.78936653232E+03  0.00000000000E+00 0.  1.
         -1   -1    0    0    0  501 -0.00000000000E+00 -0.00000000000E+00 -0.52895947026E+02  0.52895947026E+02  0.00000000000E+00 0. -1.
          6    2    1    2  503    0  0.90259320285E+02  0.32385208382E+02  0.47771419503E+03  0.51681488213E+03  0.17231141468E+03 0.  0.
         24    2    3    3    0    0  0.10220656359E+03  0.34247690985E+02  0.21273174021E+03  0.25151505772E+03  0.79912107900E+02 0.  0.
         -6    2    1    2    0  501 -0.90259320285E+02 -0.32385208382E+02  0.25875639026E+03  0.32544759722E+03  0.17252745409E+03 0.  0.
        -24    2    5    5    0    0  0.41936811989E+01  0.12977685185E+02  0.16608222529E+03  0.18548420038E+03  0.81455974361E+02 0.  0.
          4    1    4    4  502    0  0.31109881818E+02 -0.22792417305E+01  0.86979071794E+01  0.32383225270E+02  0.00000000000E+00 0. -1.
         -3    1    4    4    0  502  0.71096681776E+02  0.36526932715E+02  0.20403383303E+03  0.21913183245E+03  0.00000000000E+00 0.  1.
          5    1    3    3  503    0 -0.11947243309E+02 -0.18624826031E+01  0.26498245483E+03  0.26529982441E+03  0.47000000000E+01 0. -1.
         13    1    6    6    0    0 -0.19478201928E+02  0.49490655123E+01  0.27899703955E+01  0.20289838210E+02  0.00000000000E+00 0. -1.
        -14    1    6    6    0    0  0.23671883127E+02  0.80286196728E+01  0.16329225489E+03  0.16519436217E+03  0.00000000000E+00 0.  1.
         -5    1    5    5    0  501 -0.94453001484E+02 -0.45362893567E+02  0.92674164976E+02  0.13996339684E+03  0.47000000000E+01 0.  1.
<mgrwt>
<rscale>  2 0.19729167E+03</rscale>
<asrwt>0</asrwt>
<pdfrwt beam="1">  1        1 0.12144100E+00 0.19729167E+03</pdfrwt>
<pdfrwt beam="2">  1       -1 0.81378386E-02 0.19729167E+03</pdfrwt>
<totfact> 0.19632329E+03</totfact>
</mgrwt>
</event>
<event>
12    1  0.5759937E-002  0.1825199E+03  0.7546771E-02  0.1165386E+00
         -4   -1    0    0    0  501 -0.00000000000E+00  0.00000000000E+00  0.46645852851E+03  0.46645852851E+03  0.00000000000E+00 0.  1.
          4   -1    0    0  503    0  0.00000000000E+00 -0.00000000000E+00 -0.90701587781E+02  0.90701587781E+02  0.00000000000E+00 0. -1.
          6    2    1    2  503    0  0.43968539362E+02 -0.48364894580E+02  0.58069965243E+02  0.18991747354E+03  0.16859457408E+03 0.  0.
         24    2    3    3    0    0 -0.39755006160E+02 -0.32027668335E+02  0.34841691064E+02  0.10138397842E+03  0.80365014717E+02 0.  0.
         -6    2    1    2    0  501 -0.43968539362E+02  0.48364894580E+02  0.31768697548E+03  0.36724264275E+03  0.17224908935E+03 0.  0.
        -24    2    5    5    0    0 -0.19956191057E+02  0.75198957016E+02  0.10969932482E+03  0.15610853228E+03  0.79264110956E+02 0.  0.
          4    1    4    4  502    0 -0.25786126582E+02 -0.16222695158E+02 -0.24059638264E+02  0.38819664549E+02  0.00000000000E+00 0. -1.
         -3    1    4    4    0  502 -0.13968879578E+02 -0.15804973177E+02  0.58901329327E+02  0.62564313872E+02  0.00000000000E+00 0.  1.
          5    1    3    3  503    0  0.83723545522E+02 -0.16337226244E+02  0.23228274180E+02  0.88533495116E+02  0.47000000000E+01 0. -1.
         13    1    6    6    0    0  0.13053106578E+02  0.76902907239E+02  0.76033243353E+02  0.10892885214E+03  0.00000000000E+00 0. -1.
        -14    1    6    6    0    0 -0.33009297635E+02 -0.17039502227E+01  0.33666081467E+02  0.47179680139E+02  0.00000000000E+00 0.  1.
         -5    1    5    5    0  501 -0.24012348305E+02 -0.26834062436E+02  0.20798765066E+03  0.21113411047E+03  0.47000000000E+01 0.  1.
<mgrwt>
<rscale>  2 0.18251990E+03</rscale>
<asrwt>0</asrwt>
<pdfrwt beam="2">  1        4 0.13954091E-01 0.18251990E+03</pdfrwt>
<pdfrwt beam="1">  1       -4 0.71762849E-01 0.18251990E+03</pdfrwt>
<totfact> 0.13553813E+02</totfact>
</mgrwt>
</event>
<event>
12    1  0.5759937E-002  0.1858864E+03  0.7546771E-02  0.1162225E+00
         -1   -1    0    0    0  501 -0.00000000000E+00  0.00000000000E+00  0.10077097006E+03  0.10077097006E+03  0.00000000000E+00 0. -1.
          1   -1    0    0  503    0  0.00000000000E+00 -0.00000000000E+00 -0.36970193269E+03  0.36970193269E+03  0.00000000000E+00 0.  1.
          6    2    1    2  503    0  0.46378608197E+02  0.44266461069E+02 -0.19795164334E+03  0.27169348593E+03  0.17470547307E+03 0.  0.
         24    2    3    3    0    0  0.41251001318E+02  0.89776941468E+02 -0.98066912865E+02  0.16170918904E+03  0.82287289986E+02 0.  0.
         -6    2    1    2    0  501 -0.46378608197E+02 -0.44266461069E+02 -0.70979319292E+02  0.19877941682E+03  0.17425469265E+03 0.  0.
        -24    2    5    5    0    0  0.19595421365E+01 -0.43888292164E+02  0.21849623613E+02  0.94012902940E+02  0.80193502684E+02 0.  0.
          4    1    4    4  502    0 -0.15049078226E+02  0.65005466881E+02 -0.45092117622E+02  0.80532506179E+02  0.00000000000E+00 0. -1.
         -3    1    4    4    0  502  0.56300079544E+02  0.24771474586E+02 -0.52974795243E+02  0.81176682864E+02  0.00000000000E+00 0.  1.
          5    1    3    3  503    0  0.51276068789E+01 -0.45510480399E+02 -0.99884730477E+02  0.10998429688E+03  0.47000000000E+01 0. -1.
         11    1    6    6    0    0 -0.35456093533E+02 -0.28635529965E+02 -0.44658718442E+01  0.45793800414E+02  0.00000000000E+00 0. -1.
        -12    1    6    6    0    0  0.37415635670E+02 -0.15252762199E+02  0.26315495457E+02  0.48219102526E+02  0.00000000000E+00 0.  1.
         -5    1    5    5    0  501 -0.48338150333E+02 -0.37816890502E+00 -0.92828942905E+02  0.10476651388E+03  0.47000000000E+01 0.  1.
<mgrwt>
<rscale>  2 0.18588640E+03</rscale>
<asrwt>0</asrwt>
<pdfrwt beam="2">  1        1 0.56877221E-01 0.18588640E+03</pdfrwt>
<pdfrwt beam="1">  1       -1 0.15503226E-01 0.18588640E+03</pdfrwt>
<totfact> 0.20215644E+03</totfact>
</mgrwt>
</event>
<event>
12    1  0.5759937E-002  0.3250272E+03  0.7546771E-02  0.1073359E+00
         -2   -1    0    0    0  501 -0.00000000000E+00  0.00000000000E+00  0.88731319464E+02  0.88731319464E+02  0.00000000000E+00 0. -1.
          2   -1    0    0  503    0  0.00000000000E+00 -0.00000000000E+00 -0.20478192006E+04  0.20478192006E+04  0.00000000000E+00 0.  1.
          6    2    1    2  503    0  0.60227613506E+02  0.26874746952E+03 -0.28667040117E+03  0.43265538833E+03  0.17075771825E+03 0.  0.
         24    2    3    3    0    0 -0.28474907593E+02  0.17178032235E+03 -0.18892648680E+03  0.26880567769E+03  0.79018829633E+02 0.  0.
         -6    2    1    2    0  501 -0.60227613506E+02 -0.26874746952E+03 -0.16724174800E+04  0.17038951318E+04  0.17442999987E+03 0.  0.
        -24    2    5    5    0    0  0.40866726293E+01 -0.24419365406E+03 -0.13226022899E+04  0.13473394216E+04  0.79996612907E+02 0.  0.
          2    1    4    4  502    0 -0.25689905588E+02  0.76894003005E+02 -0.35760368054E+02  0.88608480805E+02  0.00000000000E+00 0. -1.
         -1    1    4    4    0  502 -0.27850020056E+01  0.94886319345E+02 -0.15316611874E+03  0.18019719689E+03  0.00000000000E+00 0.  1.
          5    1    3    3  503    0  0.88702521100E+02  0.96967147165E+02 -0.97743914369E+02  0.16384971063E+03  0.47000000000E+01 0. -1.
         13    1    6    6    0    0 -0.22099330534E+02 -0.21509239336E+03 -0.10593017610E+04  0.10811444579E+04  0.00000000000E+00 0. -1.
        -14    1    6    6    0    0  0.26186003163E+02 -0.29101260692E+02 -0.26330052892E+03  0.26619496363E+03  0.00000000000E+00 0.  1.
         -5    1    5    5    0  501 -0.64314286136E+02 -0.24553815460E+02 -0.34981519009E+03  0.35655571019E+03  0.47000000000E+01 0.  1.
<mgrwt>
<rscale>  2 0.32502720E+03</rscale>
<asrwt>0</asrwt>
<pdfrwt beam="2">  1        2 0.31504906E+00 0.32502720E+03</pdfrwt>
<pdfrwt beam="1">  1       -2 0.13650974E-01 0.32502720E+03</pdfrwt>
<totfact> 0.27855493E+02</totfact>
</mgrwt>
</event>
<event>
12    1  0.5759937E-002  0.2308570E+03  0.7546771E-02  0.1126038E+00
          2   -1    0    0  503    0  0.00000000000E+00  0.00000000000E+00  0.79586692695E+03  0.79586692695E+03  0.00000000000E+00 0.  1.
         -2   -1    0    0    0  501 -0.00000000000E+00 -0.00000000000E+00 -0.72410844688E+02  0.72410844688E+02  0.00000000000E+00 0. -1.
          6    2    1    2  503    0  0.32131711138E+02 -0.14985504042E+03  0.24338029213E+03  0.33579143139E+03  0.17330014079E+03 0.  0.
         24    2    3    3    0    0 -0.24354245961E+01 -0.17297295444E+03  0.20131697829E+03  0.27645563113E+03  0.77289171142E+02 0.  0.
         -6    2    1    2    0  501 -0.32131711138E+02  0.14985504042E+03  0.48007579014E+03  0.53248634025E+03  0.17198825041E+03 0.  0.
        -24    2    5    5    0    0 -0.23937851571E+02  0.17607276589E+03  0.45390645273E+03  0.49425765098E+03  0.81761348434E+02 0.  0.
          4    1    4    4  502    0 -0.33455049251E+02 -0.13901509459E+03  0.16061914393E+03  0.21504173139E+03  0.00000000000E+00 0. -1.
         -3    1    4    4    0  502  0.31019624655E+02 -0.33957859847E+02  0.40697834362E+02  0.61413899737E+02  0.00000000000E+00 0.  1.
          5    1    3    3  503    0  0.34567135735E+02  0.23117914016E+02  0.42063313838E+02  0.59335800259E+02  0.47000000000E+01 0. -1.
         13    1    6    6    0    0 -0.29343584272E+02  0.38215775679E+02  0.60377753509E+02  0.77246129790E+02  0.00000000000E+00 0. -1.
        -14    1    6    6    0    0  0.54057327006E+01  0.13785699021E+03  0.39352869923E+03  0.41701152119E+03  0.00000000000E+00 0.  1.
         -5    1    5    5    0  501 -0.81938595674E+01 -0.26217725462E+02  0.26169337401E+02  0.38228689266E+02  0.47000000000E+01 0.  1.
<mgrwt>
<rscale>  2 0.23085698E+03</rscale>
<asrwt>0</asrwt>
<pdfrwt beam="1">  1        2 0.12244106E+00 0.23085698E+03</pdfrwt>
<pdfrwt beam="2">  1       -2 0.11140130E-01 0.23085698E+03</pdfrwt>
<totfact> 0.19862201E+03</totfact>
</mgrwt>
</event>
<event>
12    1  0.5759937E-002  0.1917462E+03  0.7546771E-02  0.1156896E+00
          1   -1    0    0  503    0  0.00000000000E+00  0.00000000000E+00  0.25057604097E+03  0.25057604097E+03  0.00000000000E+00 0. -1.
         -1   -1    0    0    0  501 -0.00000000000E+00 -0.00000000000E+00 -0.14679421802E+03  0.14679421802E+03  0.00000000000E+00 0.  1.
          6    2    1    2  503    0 -0.54761027086E+01 -0.77329778953E+02  0.48963941937E+02  0.20006359559E+03  0.17781476952E+03 0.  0.
         24    2    3    3    0    0 -0.73211454468E+02 -0.59486369957E+02  0.30746079609E+02  0.12753466598E+03  0.80132542329E+02 0.  0.
         -6    2    1    2    0  501  0.54761027086E+01  0.77329778953E+02  0.54817881015E+02  0.19730666339E+03  0.17295963959E+03 0.  0.
        -24    2    5    5    0    0  0.52286922932E+02  0.91821664452E+02  0.60518256390E+02  0.14775011070E+03  0.83680914687E+02 0.  0.
          4    1    4    4  502    0 -0.22022015856E+02  0.19413232316E+02  0.31877053146E+01  0.29529717853E+02  0.00000000000E+00 0. -1.
         -3    1    4    4    0  502 -0.51189438612E+02 -0.78899602273E+02  0.27558374295E+02  0.98004948130E+02  0.00000000000E+00 0.  1.
          5    1    3    3  503    0  0.67735351759E+02 -0.17843408996E+02  0.18217862328E+02  0.72528929610E+02  0.47000000000E+01 0. -1.
         11    1    6    6    0    0  0.32108791612E+02  0.61296670074E+02  0.80423295725E+02  0.10609506471E+03  0.00000000000E+00 0. -1.
        -12    1    6    6    0    0  0.20178131320E+02  0.30524994378E+02 -0.19905039335E+02  0.41655045988E+02  0.00000000000E+00 0.  1.
         -5    1    5    5    0  501 -0.46810820223E+02 -0.14491885498E+02 -0.57003753750E+01  0.49556552692E+02  0.47000000000E+01 0.  1.
<mgrwt>
<rscale>  2 0.19174615E+03</rscale>
<asrwt>0</asrwt>
<pdfrwt beam="1">  1        1 0.38550160E-01 0.19174615E+03</pdfrwt>
<pdfrwt beam="2">  1       -1 0.22583726E-01 0.19174615E+03</pdfrwt>
<totfact> 0.17980600E+03</totfact>
</mgrwt>
</event>
<event>
12    1  0.5759937E-002  0.2295117E+03  0.7546771E-02  0.1126984E+00
         -2   -1    0    0    0  501 -0.00000000000E+00  0.00000000000E+00  0.54722617284E+03  0.54722617284E+03  0.00000000000E+00 0. -1.
          2   -1    0    0  503    0  0.00000000000E+00 -0.00000000000E+00 -0.14847003102E+03  0.14847003102E+03  0.00000000000E+00 0.  1.
          6    2    1    2  503    0 -0.12323892474E+03 -0.87230500894E+02 -0.71075777907E+01  0.22924981241E+03  0.17235998947E+03 0.  0.
         24    2    3    3    0    0 -0.27495188738E+02 -0.64903547344E+02 -0.36512117124E+02  0.12652652989E+03  0.98525997623E+02 0.  0.
         -6    2    1    2    0  501  0.12323892474E+03  0.87230500894E+02  0.40586371962E+03  0.46644639145E+03  0.17334902463E+03 0.  0.
        -24    2    5    5    0    0  0.15430981832E+03  0.87460865128E+02  0.32866508646E+03  0.38309669165E+03  0.85331196746E+02 0.  0.
          2    1    4    4  502    0  0.27622059854E+02 -0.86145481825E+01 -0.37963420662E+02  0.47732692562E+02  0.00000000000E+00 0. -1.
         -1    1    4    4    0  502 -0.55117248592E+02 -0.56288999162E+02  0.14513035374E+01  0.78793837328E+02  0.00000000000E+00 0.  1.
          5    1    3    3  503    0 -0.95743736002E+02 -0.22326953549E+02  0.29404539333E+02  0.10272328252E+03  0.47000000000E+01 0. -1.
         11    1    6    6    0    0  0.11511049459E+03  0.19205934330E+02  0.17329826201E+03  0.20892960895E+03  0.00000000000E+00 0. -1.
        -12    1    6    6    0    0  0.39199323729E+02  0.68254930798E+02  0.15536682445E+03  0.17416708271E+03  0.00000000000E+00 0.  1.
         -5    1    5    5    0  501 -0.31070893578E+02 -0.23036423405E+00  0.77198633156E+02  0.83349699799E+02  0.47000000000E+01 0.  1.
<mgrwt>
<rscale>  2 0.22951174E+03</rscale>
<asrwt>0</asrwt>
<pdfrwt beam="2">  1        2 0.22841543E-01 0.22951174E+03</pdfrwt>
<pdfrwt beam="1">  1       -2 0.84188641E-01 0.22951174E+03</pdfrwt>
<totfact> 0.30414976E+02</totfact>
</mgrwt>
</event>
<event>
12    1  0.5759937E-002  0.1989383E+03  0.7546771E-02  0.1150638E+00
          2   -1    0    0  503    0  0.00000000000E+00  0.00000000000E+00  0.11223824843E+04  0.11223824843E+04  0.00000000000E+00 0. -1.
         -2   -1    0    0    0  501 -0.00000000000E+00 -0.00000000000E+00 -0.36443063532E+02  0.36443063532E+02  0.00000000000E+00 0.  1.
          6    2    1    2  503    0 -0.92083533819E+00  0.10138303073E+03  0.43813676045E+03  0.48111015825E+03  0.17094969041E+03 0.  0.
         24    2    3    3    0    0 -0.18636104318E+01  0.83936415759E+02  0.44589459904E+03  0.46142393824E+03  0.83912230302E+02 0.  0.
         -6    2    1    2    0  501  0.92083533819E+00 -0.10138303073E+03  0.64780266032E+03  0.67771538959E+03  0.17137822415E+03 0.  0.
        -24    2    5    5    0    0  0.31578603782E+02  0.42131561731E+01  0.34034007350E+03  0.35114872603E+03  0.80368546468E+02 0.  0.
          2    1    4    4  502    0  0.32168641158E+02  0.50753573609E+02  0.34111553860E+03  0.34636766215E+03  0.00000000000E+00 0. -1.
         -1    1    4    4    0  502 -0.34032251590E+02  0.33182842149E+02  0.10477906044E+03  0.11505627609E+03  0.00000000000E+00 0.  1.
          5    1    3    3  503    0  0.94277509356E+00  0.17446614969E+02 -0.77578385843E+01  0.19686220009E+02  0.47000000000E+01 0. -1.
         11    1    6    6    0    0 -0.82620011296E+01  0.33888256189E+02  0.17769266409E+03  0.18108384092E+03  0.00000000000E+00 0. -1.
        -12    1    6    6    0    0  0.39840604912E+02 -0.29675100016E+02  0.16264740941E+03  0.17006488511E+03  0.00000000000E+00 0.  1.
         -5    1    5    5    0  501 -0.30657768444E+02 -0.10559618690E+03  0.30746258682E+03  0.32656666356E+03  0.47000000000E+01 0.  1.
<mgrwt>
<rscale>  2 0.19893829E+03</rscale>
<asrwt>0</asrwt>
<pdfrwt beam="1">  1        2 0.17267420E+00 0.19893829E+03</pdfrwt>
<pdfrwt beam="2">  1       -2 0.56066260E-02 0.19893829E+03</pdfrwt>
<totfact> 0.36162140E+03</totfact>
</mgrwt>
</event>
<event>
12    1  0.5759937E-002  0.2246524E+03  0.7546771E-02  0.1130461E+00
          2   -1    0    0  503    0  0.00000000000E+00  0.00000000000E+00  0.23346063711E+03  0.23346063711E+03  0.00000000000E+00 0.  1.
         -2   -1    0    0    0  501 -0.00000000000E+00 -0.00000000000E+00 -0.29389382150E+03  0.29389382150E+03  0.00000000000E+00 0. -1.
          6    2    1    2  503    0  0.26937211695E+02  0.13883104144E+03  0.10519664155E+03  0.24959005032E+03  0.17671782136E+03 0.  0.
         24    2    3    3    0    0 -0.31826401124E+02  0.72778270648E+02  0.11323507307E+03  0.16069214763E+03  0.81793569738E+02 0.  0.
         -6    2    1    2    0  501 -0.26937211695E+02 -0.13883104144E+03 -0.16562982594E+03  0.27776440829E+03  0.17239534748E+03 0.  0.
        -24    2    5    5    0    0  0.47730359193E+02 -0.45910207015E+02 -0.70730047004E+02  0.12532561515E+03  0.79484815949E+02 0.  0.
          2    1    4    4  502    0 -0.35292438640E+02  0.78130992824E+02  0.54449235299E+02  0.10156144687E+03  0.00000000000E+00 0. -1.
         -1    1    4    4    0  502  0.34660375159E+01 -0.53527221758E+01  0.58785837770E+02  0.59130700766E+02  0.00000000000E+00 0.  1.
          5    1    3    3  503    0  0.58763612819E+02  0.66052770797E+02 -0.80384315225E+01  0.88897902691E+02  0.47000000000E+01 0. -1.
         11    1    6    6    0    0  0.25298687960E+02 -0.52152659245E+02 -0.81258358576E+01  0.58531638344E+02  0.00000000000E+00 0. -1.
        -12    1    6    6    0    0  0.22431671233E+02  0.62424522310E+01 -0.62604211146E+02  0.66793976805E+02  0.00000000000E+00 0.  1.
         -5    1    5    5    0  501 -0.74667570888E+02 -0.92920834430E+02 -0.94899778935E+02  0.15243879314E+03  0.47000000000E+01 0.  1.
<mgrwt>
<rscale>  2 0.22465241E+03</rscale>
<asrwt>0</asrwt>
<pdfrwt beam="1">  1        2 0.35917021E-01 0.22465241E+03</pdfrwt>
<pdfrwt beam="2">  1       -2 0.45214434E-01 0.22465241E+03</pdfrwt>
<totfact> 0.67540481E+02</totfact>
</mgrwt>
</event>
<event>
12    1  0.5759937E-002  0.1852295E+03  0.7546771E-02  0.1162836E+00
          2   -1    0    0  503    0  0.00000000000E+00  0.00000000000E+00  0.67320739670E+02  0.67320739670E+02  0.00000000000E+00 0.  1.
         -2   -1    0    0    0  501 -0.00000000000E+00 -0.00000000000E+00 -0.88867185451E+03  0.88867185451E+03  0.00000000000E+00 0. -1.
          6    2    1    2  503    0  0.33467962415E+02 -0.62316791172E+02 -0.72492763775E+03  0.74863221710E+03  0.17299314883E+03 0.  0.
         24    2    3    3    0    0  0.49713135467E+02  0.21543002577E+02 -0.46605826861E+03  0.47599360844E+03  0.80150537976E+02 0.  0.
         -6    2    1    2    0  501 -0.33467962415E+02  0.62316791172E+02 -0.96423477089E+02  0.20736037708E+03  0.16940292818E+03 0.  0.
        -24    2    5    5    0    0 -0.14537873688E+02  0.10647081063E+03 -0.82892962255E+02  0.15722964274E+03  0.79388500910E+02 0.  0.
          2    1    4    4  502    0  0.37729236371E+02 -0.13502259910E+02 -0.38251606706E+03  0.38460934447E+03  0.00000000000E+00 0. -1.
         -1    1    4    4    0  502  0.11983899096E+02  0.35045262487E+02 -0.83542201556E+02  0.91384263968E+02  0.00000000000E+00 0.  1.
          5    1    3    3  503    0 -0.16245173052E+02 -0.83859793748E+02 -0.25886936914E+03  0.27263860866E+03  0.47000000000E+01 0. -1.
         13    1    6    6    0    0 -0.46514756183E+02  0.59451083357E+02 -0.57815885386E+02  0.95082755840E+02  0.00000000000E+00 0. -1.
        -14    1    6    6    0    0  0.31976882495E+02  0.47019727273E+02 -0.25077076868E+02  0.62146886899E+02  0.00000000000E+00 0.  1.
         -5    1    5    5    0  501 -0.18930088727E+02 -0.44154019458E+02 -0.13530514834E+02  0.50130734338E+02  0.47000000000E+01 0.  1.
<mgrwt>
<rscale>  2 0.18522951E+03</rscale>
<asrwt>0</asrwt>
<pdfrwt beam="1">  1        2 0.10357037E-01 0.18522951E+03</pdfrwt>
<pdfrwt beam="2">  1       -2 0.13671874E+00 0.18522951E+03</pdfrwt>
<totfact> 0.24629275E+02</totfact>
</mgrwt>
</event>
<event>
12    1  0.5759937E-002  0.1811253E+03  0.7546771E-02  0.1166718E+00
         -1   -1    0    0    0  501 -0.00000000000E+00  0.00000000000E+00  0.42262317976E+02  0.42262317976E+02  0.00000000000E+00 0.  1.
          1   -1    0    0  503    0  0.00000000000E+00 -0.00000000000E+00 -0.78778887525E+03  0.78778887525E+03  0.00000000000E+00 0. -1.
          6    2    1    2  503    0  0.10572582910E+02  0.52655608163E+02 -0.42445569499E+03  0.46177796077E+03  0.17375803712E+03 0.  0.
         24    2    3    3    0    0 -0.63998321299E+01  0.82085646309E+02 -0.17059493034E+03  0.20561089059E+03  0.79963722335E+02 0.  0.
         -6    2    1    2    0  501 -0.10572582910E+02 -0.52655608163E+02 -0.32107086229E+03  0.36827323246E+03  0.17220418855E+03 0.  0.
        -24    2    5    5    0    0 -0.45650982440E+01  0.18669798580E+02 -0.26443845475E+03  0.27687999910E+03  0.79783682878E+02 0.  0.
          2    1    4    4  502    0 -0.16215584880E+02  0.57323599396E+00  0.68680440142E-01  0.16225859284E+02  0.00000000000E+00 0. -1.
         -1    1    4    4    0  502  0.98157527503E+01  0.81512410316E+02 -0.17066361078E+03  0.18938503131E+03  0.00000000000E+00 0.  1.
          5    1    3    3  503    0  0.16972415040E+02 -0.29430038146E+02 -0.25386076465E+03  0.25616707018E+03  0.47000000000E+01 0. -1.
         13    1    6    6    0    0  0.27152146069E+02 -0.89793347214E+01 -0.44108709209E+02  0.52568485962E+02  0.00000000000E+00 0. -1.
        -14    1    6    6    0    0 -0.31717244314E+02  0.27649133301E+02 -0.22032974554E+03  0.22431151314E+03  0.00000000000E+00 0.  1.
         -5    1    5    5    0  501 -0.60074846657E+01 -0.71325406743E+02 -0.56632407541E+02  0.91393233354E+02  0.47000000000E+01 0.  1.
<mgrwt>
<rscale>  2 0.18112526E+03</rscale>
<asrwt>0</asrwt>
<pdfrwt beam="2">  1        1 0.12119827E+00 0.18112526E+03</pdfrwt>
<pdfrwt beam="1">  1       -1 0.65018959E-02 0.18112526E+03</pdfrwt>
<totfact> 0.27616461E+03</totfact>
</mgrwt>
</event>
<event>
12    1  0.5759937E-002  0.2575328E+03  0.7546771E-02  0.1108635E+00
          1   -1    0    0  503    0  0.00000000000E+00  0.00000000000E+00  0.36654311219E+03  0.36654311219E+03  0.00000000000E+00 0.  1.
         -1   -1    0    0    0  501 -0.00000000000E+00 -0.00000000000E+00 -0.21219294232E+03  0.21219294232E+03  0.00000000000E+00 0. -1.
          6    2    1    2  503    0  0.14431411431E+03  0.12385591103E+03 -0.33976394632E+02  0.25936350436E+03  0.17305542962E+03 0.  0.
         24    2    3    3    0    0  0.69494793624E+02  0.75681238779E+02  0.35840451821E+02  0.14615921186E+03  0.97574591875E+02 0.  0.
         -6    2    1    2    0  501 -0.14431411431E+03 -0.12385591103E+03  0.18832656451E+03  0.31937255015E+03  0.17425579074E+03 0.  0.
        -24    2    5    5    0    0 -0.84085056726E+02 -0.94353492257E+02  0.37548996442E+02  0.15428500634E+03  0.80131503046E+02 0.  0.
          4    1    4    4  502    0  0.90809469770E+02  0.78698245008E+02  0.29998846442E+02  0.12385356012E+03  0.00000000000E+00 0. -1.
         -3    1    4    4    0  502 -0.21314676147E+02 -0.30170062287E+01  0.58416053791E+01  0.22305651733E+02  0.00000000000E+00 0.  1.
          5    1    3    3  503    0  0.74819320682E+02  0.48174672247E+02 -0.69816846453E+02  0.11320429251E+03  0.47000000000E+01 0. -1.
         11    1    6    6    0    0  0.14765296767E+02 -0.38347917141E+01  0.71483909287E+01  0.16846931738E+02  0.00000000000E+00 0. -1.
        -12    1    6    6    0    0 -0.98850353493E+02 -0.90518700543E+02  0.30400605513E+02  0.13743807460E+03  0.00000000000E+00 0.  1.
         -5    1    5    5    0  501 -0.60229057580E+02 -0.29502418769E+02  0.15077756807E+03  0.16508754381E+03  0.47000000000E+01 0.  1.
<mgrwt>
<rscale>  2 0.25753282E+03</rscale>
<asrwt>0</asrwt>
<pdfrwt beam="1">  1        1 0.56391248E-01 0.25753282E+03</pdfrwt>
<pdfrwt beam="2">  1       -1 0.32645068E-01 0.25753282E+03</pdfrwt>
<totfact> 0.60163751E+02</totfact>
</mgrwt>
</event>
<event>
12    1  0.5759937E-002  0.2708455E+03  0.7546771E-02  0.1100797E+00
         -2   -1    0    0    0  501 -0.00000000000E+00  0.00000000000E+00  0.14934896207E+03  0.14934896207E+03  0.00000000000E+00 0.  1.
          2   -1    0    0  503    0  0.00000000000E+00 -0.00000000000E+00 -0.67746488760E+03  0.67746488760E+03  0.00000000000E+00 0. -1.
          6    2    1    2  503    0  0.27256541399E+02  0.20648657181E+03 -0.47524583248E+02  0.27532891837E+03  0.17368881337E+03 0.  0.
         24    2    3    3    0    0  0.67908861855E+02  0.18550672078E+03 -0.70695102970E+02  0.22383398374E+03  0.77971133909E+02 0.  0.
         -6    2    1    2    0  501 -0.27256541399E+02 -0.20648657181E+03 -0.48059134229E+03  0.55148493130E+03  0.17259191113E+03 0.  0.
        -24    2    5    5    0    0 -0.41522758686E+02 -0.36467984696E+02 -0.13949192533E+03  0.17006554642E+03  0.80063970977E+02 0.  0.
          2    1    4    4  502    0  0.81949579025E+02  0.15689863397E+03 -0.73873943413E+02  0.19180791005E+03  0.00000000000E+00 0. -1.
         -1    1    4    4    0  502 -0.14040717171E+02  0.28608086808E+02  0.31788404430E+01  0.32026073690E+02  0.00000000000E+00 0.  1.
          5    1    3    3  503    0 -0.40652320455E+02  0.20979851035E+02  0.23170519721E+02  0.51494934625E+02  0.47000000000E+01 0. -1.
         13    1    6    6    0    0 -0.52392188218E+02 -0.42387039044E+02 -0.61940277962E+02  0.91532510614E+02  0.00000000000E+00 0. -1.
        -14    1    6    6    0    0  0.10869429532E+02  0.59190543475E+01 -0.77551647371E+02  0.78533035805E+02  0.00000000000E+00 0.  1.
         -5    1    5    5    0  501  0.14266217287E+02 -0.17001858712E+03 -0.34109941695E+03  0.38141938488E+03  0.47000000000E+01 0.  1.
<mgrwt>
<rscale>  2 0.27084546E+03</rscale>
<asrwt>0</asrwt>
<pdfrwt beam="2">  1        2 0.10422537E+00 0.27084546E+03</pdfrwt>
<pdfrwt beam="1">  1       -2 0.22976763E-01 0.27084546E+03</pdfrwt>
<totfact> 0.72307342E+02</totfact>
</mgrwt>
</event>
<event>
12    1  0.5759937E-002  0.1820943E+03  0.7546771E-02  0.1165791E+00
          2   -1    0    0  503    0  0.00000000000E+00  0.00000000000E+00  0.67225640619E+03  0.67225640619E+03  0.00000000000E+00 0. -1.
         -2   -1    0    0    0  501 -0.00000000000E+00 -0.00000000000E+00 -0.49562623826E+02  0.49562623826E+02  0.00000000000E+00 0.  1.
          6    2    1    2  503    0 -0.37922877694E+02 -0.42023419242E+02  0.33568812598E+03  0.38170323211E+03  0.17264624834E+03 0.  0.
         24    2    3    3    0    0 -0.64899955109E+02 -0.60253127899E+02  0.14953772641E+03  0.19266845689E+03  0.83169459940E+02 0.  0.
         -6    2    1    2    0  501  0.37922877694E+02  0.42023419242E+02  0.28700565639E+03  0.34011579791E+03  0.17350042296E+03 0.  0.
        -24    2    5    5    0    0  0.76863150747E+02  0.53195510151E+02  0.26810211395E+03  0.29516477570E+03  0.80658508958E+02 0.  0.
          2    1    4    4  502    0 -0.95736245795E+01 -0.27699227899E+02 -0.67434012908E+00  0.29314778669E+02  0.00000000000E+00 0. -1.
         -1    1    4    4    0  502 -0.55326330529E+02 -0.32553900000E+02  0.15021206654E+03  0.16335367822E+03  0.00000000000E+00 0.  1.
          5    1    3    3  503    0  0.26977077415E+02  0.18229708657E+02  0.18615039956E+03  0.18903477522E+03  0.47000000000E+01 0. -1.
         11    1    6    6    0    0  0.88041807701E+01  0.52568824107E+02  0.91376710366E+02  0.10578609580E+03  0.00000000000E+00 0. -1.
        -12    1    6    6    0    0  0.68058969977E+02  0.62668604372E+00  0.17672540358E+03  0.18937867990E+03  0.00000000000E+00 0.  1.
         -5    1    5    5    0  501 -0.38940273053E+02 -0.11172090909E+02  0.18903542442E+02  0.44951022208E+02  0.47000000000E+01 0.  1.
<mgrwt>
<rscale>  2 0.18209433E+03</rscale>
<asrwt>0</asrwt>
<pdfrwt beam="1">  1        2 0.10342406E+00 0.18209433E+03</pdfrwt>
<pdfrwt beam="2">  1       -2 0.76250195E-02 0.18209433E+03</pdfrwt>
<totfact> 0.44144471E+03</totfact>
</mgrwt>
</event>
<event>
12    1  0.5759937E-002  0.2284035E+03  0.7546771E-02  0.1127769E+00
         -2   -1    0    0    0  501 -0.00000000000E+00  0.00000000000E+00  0.37486609240E+02  0.37486609240E+02  0.00000000000E+00 0.  1.
          2   -1    0    0  503    0  0.00000000000E+00 -0.00000000000E+00 -0.14057262615E+04  0.14057262615E+04  0.00000000000E+00 0. -1.
          6    2    1    2  503    0 -0.12734003535E+03 -0.55099952635E+02 -0.63344535856E+03  0.67556402308E+03  0.18942607428E+03 0.  0.
         24    2    3    3    0    0 -0.13217724864E+03 -0.31596101245E+02 -0.26992930607E+03  0.31122648716E+03  0.74370406513E+02 0.  0.
         -6    2    1    2    0  501  0.12734003535E+03  0.55099952635E+02 -0.73479429369E+03  0.76764884765E+03  0.17352409018E+03 0.  0.
        -24    2    5    5    0    0  0.51953454634E+02 -0.29703834262E+02 -0.43576086360E+03  0.44777715284E+03  0.83877107411E+02 0.  0.
          2    1    4    4  502    0 -0.48411810760E+02  0.10276413801E+02 -0.15647413350E+03  0.16411417537E+03  0.00000000000E+00 0. -1.
         -1    1    4    4    0  502 -0.83765437876E+02 -0.41872515046E+02 -0.11345517257E+03  0.14711231179E+03  0.00000000000E+00 0.  1.
          5    1    3    3  503    0  0.48372132827E+01 -0.23503851390E+02 -0.36351605249E+03  0.36433753592E+03  0.47000000000E+01 0. -1.
         11    1    6    6    0    0  0.57755843030E+02 -0.24978859448E+02 -0.16021044533E+03  0.17212515103E+03  0.00000000000E+00 0. -1.
        -12    1    6    6    0    0 -0.58023883953E+01 -0.47249748145E+01 -0.27555041827E+03  0.27565200182E+03  0.00000000000E+00 0.  1.
         -5    1    5    5    0  501  0.75386580719E+02  0.84803786897E+02 -0.29903343010E+03  0.31987169481E+03  0.47000000000E+01 0.  1.
<mgrwt>
<rscale>  2 0.22840349E+03</rscale>
<asrwt>0</asrwt>
<pdfrwt beam="2">  1        2 0.21626557E+00 0.22840349E+03</pdfrwt>
<pdfrwt beam="1">  1       -2 0.57671709E-02 0.22840349E+03</pdfrwt>
<totfact> 0.24133603E+03</totfact>
</mgrwt>
</event>
<event>
12    1  0.5759937E-002  0.1778083E+03  0.7546771E-02  0.1169941E+00
         -2   -1    0    0    0  501 -0.00000000000E+00  0.00000000000E+00  0.64310834845E+02  0.64310834845E+02  0.00000000000E+00 0. -1.
          2   -1    0    0  503    0  0.00000000000E+00 -0.00000000000E+00 -0.57700829915E+03  0.57700829915E+03  0.00000000000E+00 0.  1.
          6    2    1    2  503    0  0.12596442888E+02 -0.36446399837E+02 -0.13295599488E+03  0.22200016212E+03  0.17355046808E+03 0.  0.
         24    2    3    3    0    0  0.48981766737E+02  0.15894027312E+02 -0.12351006015E+03  0.15738802867E+03  0.82851813692E+02 0.  0.
         -6    2    1    2    0  501 -0.12596442888E+02  0.36446399837E+02 -0.37974146942E+03  0.41931897188E+03  0.17360243704E+03 0.  0.
        -24    2    5    5    0    0 -0.16087870369E+02  0.79039593394E+02 -0.16952479198E+03  0.20475077368E+03  0.81719932272E+02 0.  0.
          2    1    4    4  502    0  0.33732240388E+02  0.18684733713E+02 -0.61983527299E+01  0.39056406543E+02  0.00000000000E+00 0. -1.
         -1    1    4    4    0  502  0.15249526349E+02 -0.27907064010E+01 -0.11731170742E+03  0.11833162213E+03  0.00000000000E+00 0.  1.
          5    1    3    3  503    0 -0.36385323850E+02 -0.52340427149E+02 -0.94459347305E+01  0.64612133448E+02  0.47000000000E+01 0. -1.
         13    1    6    6    0    0 -0.97746080722E+00  0.37294482219E+02 -0.92445441087E+01  0.38435601067E+02  0.00000000000E+00 0. -1.
        -14    1    6    6    0    0 -0.15110409562E+02  0.41745111175E+02 -0.16028024787E+03  0.16631517261E+03  0.00000000000E+00 0.  1.
         -5    1    5    5    0  501  0.34914274815E+01 -0.42593193557E+02 -0.21021667744E+03  0.21456819820E+03  0.47000000000E+01 0.  1.
<mgrwt>
<rscale>  2 0.17780831E+03</rscale>
<asrwt>0</asrwt>
<pdfrwt beam="2">  1        2 0.88770508E-01 0.17780831E+03</pdfrwt>
<pdfrwt beam="1">  1       -2 0.98939745E-02 0.17780831E+03</pdfrwt>
<totfact> 0.35042914E+03</totfact>
</mgrwt>
</event>
<event>
12    1  0.5759937E-002  0.1768066E+03  0.7546771E-02  0.1170930E+00
         -1   -1    0    0    0  501 -0.00000000000E+00  0.00000000000E+00  0.22286105058E+03  0.22286105058E+03  0.00000000000E+00 0. -1.
          1   -1    0    0  503    0  0.00000000000E+00 -0.00000000000E+00 -0.18194567655E+03  0.18194567655E+03  0.00000000000E+00 0.  1.
          6    2    1    2  503    0 -0.12207902128E+02 -0.40540102281E+02  0.11726304941E+03  0.21158105370E+03  0.17094849154E+03 0.  0.
         24    2    3    3    0    0 -0.70063166246E+01 -0.85202513442E+02  0.11672677790E+03  0.16636861017E+03  0.82126834847E+02 0.  0.
         -6    2    1    2    0  501  0.12207902128E+02  0.40540102281E+02 -0.76347675375E+02  0.19322567343E+03  0.17237940878E+03 0.  0.
        -24    2    5    5    0    0 -0.56914131817E+02  0.18571844108E+02 -0.65518885761E+02  0.11974225606E+03  0.80382533561E+02 0.  0.
          2    1    4    4  502    0 -0.24584263930E+02 -0.24361391624E+02  0.92153917388E+02  0.98438853736E+02  0.00000000000E+00 0. -1.
         -1    1    4    4    0  502  0.17577947305E+02 -0.60841121819E+02  0.24572860509E+02  0.67929756435E+02  0.00000000000E+00 0.  1.
          5    1    3    3  503    0 -0.52015855031E+01  0.44662411162E+02  0.53627150848E+00  0.45212443527E+02  0.47000000000E+01 0. -1.
         13    1    6    6    0    0 -0.49638416839E+01 -0.15660077059E+02  0.12000666577E+02  0.20344378488E+02  0.00000000000E+00 0. -1.
        -14    1    6    6    0    0 -0.51950290133E+02  0.34231921168E+02 -0.77519552338E+02  0.99397877575E+02  0.00000000000E+00 0.  1.
         -5    1    5    5    0  501  0.69122033945E+02  0.21968258173E+02 -0.10828789614E+02  0.73483417370E+02  0.47000000000E+01 0.  1.
<mgrwt>
<rscale>  2 0.17680665E+03</rscale>
<asrwt>0</asrwt>
<pdfrwt beam="2">  1        1 0.27991643E-01 0.17680665E+03</pdfrwt>
<pdfrwt beam="1">  1       -1 0.34286315E-01 0.17680665E+03</pdfrwt>
<totfact> 0.13296504E+03</totfact>
</mgrwt>
</event>
<event>
12    1  0.5759937E-002  0.1822125E+03  0.7546771E-02  0.1165679E+00
         -1   -1    0    0    0  501 -0.00000000000E+00  0.00000000000E+00  0.87442788041E+02  0.87442788041E+02  0.00000000000E+00 0. -1.
          1   -1    0    0  503    0  0.00000000000E+00 -0.00000000000E+00 -0.42317843686E+03  0.42317843686E+03  0.00000000000E+00 0.  1.
          6    2    1    2  503    0 -0.57112438133E+02  0.17173419729E+02 -0.85257730254E+02  0.20032233818E+03  0.17118236379E+03 0.  0.
         24    2    3    3    0    0 -0.86845441157E+02  0.47775259809E+02 -0.29533881721E+02  0.12998201276E+03  0.78730345945E+02 0.  0.
         -6    2    1    2    0  501  0.57112438133E+02 -0.17173419729E+02 -0.25047791857E+03  0.31029888672E+03  0.17317463577E+03 0.  0.
        -24    2    5    5    0    0  0.10290231390E+03 -0.23160099135E+02 -0.21100018074E+03  0.24936338938E+03  0.80843968785E+02 0.  0.
          4    1    4    4  502    0 -0.59526921795E+01  0.28912209067E+02 -0.36132547881E+02  0.46657383057E+02  0.00000000000E+00 0. -1.
         -3    1    4    4    0  502 -0.80892748978E+02  0.18863050742E+02  0.65986661603E+01  0.83324629706E+02  0.00000000000E+00 0.  1.
          5    1    3    3  503    0  0.29733003024E+02 -0.30601840080E+02 -0.55723848533E+02  0.70340325422E+02  0.47000000000E+01 0. -1.
         11    1    6    6    0    0  0.31071935515E+02  0.46568958591E+00 -0.70755277754E+01  0.31870756765E+02  0.00000000000E+00 0. -1.
        -12    1    6    6    0    0  0.71830378384E+02 -0.23625788721E+02 -0.20392465297E+03  0.21749263261E+03  0.00000000000E+00 0.  1.
         -5    1    5    5    0  501 -0.45789875766E+02  0.59866794064E+01 -0.39477737826E+02  0.60935497346E+02  0.47000000000E+01 0.  1.
<mgrwt>
<rscale>  2 0.18221255E+03</rscale>
<asrwt>0</asrwt>
<pdfrwt beam="2">  1        1 0.65104377E-01 0.18221255E+03</pdfrwt>
<pdfrwt beam="1">  1       -1 0.13452736E-01 0.18221255E+03</pdfrwt>
<totfact> 0.21271912E+03</totfact>
</mgrwt>
</event>
<event>
12    1  0.5759937E-002  0.2000153E+03  0.7546771E-02  0.1149726E+00
         -2   -1    0    0    0  501 -0.00000000000E+00  0.00000000000E+00  0.14671245418E+03  0.14671245418E+03  0.00000000000E+00 0. -1.
          2   -1    0    0  503    0  0.00000000000E+00 -0.00000000000E+00 -0.36914210799E+03  0.36914210799E+03  0.00000000000E+00 0.  1.
          6    2    1    2  503    0  0.51448683734E+02 -0.85485668682E+02  0.20418514895E+02  0.20156894970E+03  0.17394930044E+03 0.  0.
         24    2    3    3    0    0  0.12424249557E+02 -0.68732271499E+01  0.65118929481E+02  0.10296347576E+03  0.78481839523E+02 0.  0.
         -6    2    1    2    0  501 -0.51448683734E+02  0.85485668682E+02 -0.24284816870E+03  0.31428561247E+03  0.17275834728E+03 0.  0.
        -24    2    5    5    0    0 -0.93379248934E+02  0.68844294004E+02 -0.12905159915E+03  0.19178313539E+03  0.81653137286E+02 0.  0.
          2    1    4    4  502    0  0.11897137205E+02  0.30983577855E+02  0.54209592207E+02  0.63562597946E+02  0.00000000000E+00 0. -1.
         -1    1    4    4    0  502  0.52711235193E+00 -0.37856805005E+02  0.10909337274E+02  0.39400877812E+02  0.00000000000E+00 0.  1.
          5    1    3    3  503    0  0.39024434177E+02 -0.78612441533E+02 -0.44700414586E+02  0.98605473939E+02  0.47000000000E+01 0. -1.
         11    1    6    6    0    0 -0.96542601692E+01 -0.18404120557E+02 -0.15776281452E+02  0.26092287162E+02  0.00000000000E+00 0. -1.
        -12    1    6    6    0    0 -0.83724988765E+02  0.87248414561E+02 -0.11327531770E+03  0.16569084823E+03  0.00000000000E+00 0.  1.
         -5    1    5    5    0  501  0.41930565200E+02  0.16641374678E+02 -0.11379656955E+03  0.12250247708E+03  0.47000000000E+01 0.  1.
<mgrwt>
<rscale>  2 0.20001534E+03</rscale>
<asrwt>0</asrwt>
<pdfrwt beam="2">  1        2 0.56791093E-01 0.20001534E+03</pdfrwt>
<pdfrwt beam="1">  1       -2 0.22571147E-01 0.20001534E+03</pdfrwt>
<totfact> 0.14754390E+03</totfact>
</mgrwt>
</event>
<event>
12    1  0.5759937E-002  0.2482207E+03  0.7546771E-02  0.1114434E+00
          2   -1    0    0  503    0  0.00000000000E+00  0.00000000000E+00  0.22563522497E+04  0.22563522497E+04  0.00000000000E+00 0.  1.
         -2   -1    0    0    0  501 -0.00000000000E+00 -0.00000000000E+00 -0.37444789061E+02  0.37444789061E+02  0.00000000000E+00 0. -1.
          6    2    1    2  503    0  0.16918173855E+03  0.52277314515E+02  0.17056383932E+04  0.17235796391E+04  0.17369244587E+03 0.  0.
         24    2    3    3    0    0  0.10251839813E+03  0.53441692958E+02  0.15152704752E+04  0.15218189122E+04  0.80759841092E+02 0.  0.
         -6    2    1    2    0  501 -0.16918173855E+03 -0.52277314515E+02  0.51326906736E+03  0.57021739957E+03  0.17420496257E+03 0.  0.
        -24    2    5    5    0    0 -0.32372326871E+02  0.18553530312E+02  0.12955893733E+03  0.15670878104E+03  0.79874418809E+02 0.  0.
          4    1    4    4  502    0 -0.87136783281E+01 -0.97535753997E+01  0.14732924362E+03  0.14790864224E+03  0.00000000000E+00 0. -1.
         -3    1    4    4    0  502  0.11123207646E+03  0.63195268357E+02  0.13679412316E+04  0.13739102700E+04  0.00000000000E+00 0.  1.
          5    1    3    3  503    0  0.66663340423E+02 -0.11643784430E+01  0.19036791799E+03  0.20176072693E+03  0.47000000000E+01 0. -1.
         11    1    6    6    0    0 -0.26150528912E+02  0.39723889110E+02  0.12558432917E+03  0.13428797884E+03  0.00000000000E+00 0. -1.
        -12    1    6    6    0    0 -0.62217979591E+01 -0.21170358798E+02  0.39746081630E+01  0.22420802205E+02  0.00000000000E+00 0.  1.
         -5    1    5    5    0  501 -0.13680941168E+03 -0.70830844827E+02  0.38371013003E+03  0.41350861852E+03  0.47000000000E+01 0.  1.
<mgrwt>
<rscale>  2 0.24822073E+03</rscale>
<asrwt>0</asrwt>
<pdfrwt beam="1">  1        2 0.34713101E+00 0.24822073E+03</pdfrwt>
<pdfrwt beam="2">  1       -2 0.57607386E-02 0.24822073E+03</pdfrwt>
<totfact> 0.85938570E+02</totfact>
</mgrwt>
</event>
<event>
12    1  0.5759937E-002  0.2140521E+03  0.7546771E-02  0.1138397E+00
          1   -1    0    0  503    0  0.00000000000E+00  0.00000000000E+00  0.60502705785E+03  0.60502705785E+03  0.00000000000E+00 0.  1.
         -1   -1    0    0    0  501 -0.00000000000E+00 -0.00000000000E+00 -0.97061692197E+02  0.97061692197E+02  0.00000000000E+00 0. -1.
          6    2    1    2  503    0 -0.12284523595E+03  0.37165347267E+02  0.41815938066E+03  0.46956733568E+03  0.17077470561E+03 0.  0.
         24    2    3    3    0    0 -0.85769316436E+02  0.85480003102E+02  0.34434364290E+03  0.37375615201E+03  0.80361123605E+02 0.  0.
         -6    2    1    2    0  501  0.12284523595E+03 -0.37165347267E+02  0.89805984998E+02  0.23252141437E+03  0.17183968739E+03 0.  0.
        -24    2    5    5    0    0  0.85875675676E+02 -0.55145178489E+02 -0.36619729483E+01  0.13030413657E+03  0.80932907875E+02 0.  0.
          2    1    4    4  502    0 -0.96684025624E+02  0.51598834781E+02  0.26690382899E+03  0.28852711223E+03  0.00000000000E+00 0. -1.
         -1    1    4    4    0  502  0.10914709188E+02  0.33881168321E+02  0.77439813904E+02  0.85229039775E+02  0.00000000000E+00 0.  1.
          5    1    3    3  503    0 -0.37075919519E+02 -0.48314655835E+02  0.73815737760E+02  0.95811183677E+02  0.47000000000E+01 0. -1.
         13    1    6    6    0    0  0.40274697145E+02 -0.70244948669E+02  0.64053315122E+01  0.81224579503E+02  0.00000000000E+00 0. -1.
        -14    1    6    6    0    0  0.45600978531E+02  0.15099770180E+02 -0.10067304461E+02  0.49079557064E+02  0.00000000000E+00 0.  1.
         -5    1    5    5    0  501  0.36969560279E+02  0.17979831221E+02  0.93467957946E+02  0.10221727780E+03  0.47000000000E+01 0.  1.
<mgrwt>
<rscale>  2 0.21405208E+03</rscale>
<asrwt>0</asrwt>
<pdfrwt beam="1">  1        1 0.93081084E-01 0.21405208E+03</pdfrwt>
<pdfrwt beam="2">  1       -1 0.14932568E-01 0.21405208E+03</pdfrwt>
<totfact> 0.11256851E+03</totfact>
</mgrwt>
</event>
<event>
12    1  0.5759937E-002  0.1919229E+03  0.7546771E-02  0.1156738E+00
          2   -1    0    0  503    0  0.00000000000E+00  0.00000000000E+00  0.76285222445E+03  0.76285222445E+03  0.00000000000E+00 0.  1.
         -2   -1    0    0    0  501 -0.00000000000E+00 -0.00000000000E+00 -0.48387523685E+02  0.48387523685E+02  0.00000000000E+00 0. -1.
          6    2    1    2  503    0  0.63151670910E+02 -0.55745584746E+02  0.33871922871E+03  0.38935284165E+03  0.17253757748E+03 0.  0.
         24    2    3    3    0    0  0.70320294723E+02 -0.15522701337E+01  0.10834706040E+03  0.15253702620E+03  0.81124012915E+02 0.  0.
         -6    2    1    2    0  501 -0.63151670910E+02  0.55745584746E+02  0.37574547205E+03  0.42188690649E+03  0.17236066354E+03 0.  0.
        -24    2    5    5    0    0 -0.31183469918E+02  0.66848942236E+02  0.11628224885E+03  0.16018382164E+03  0.81829734469E+02 0.  0.
          2    1    4    4  502    0  0.17517603347E+02 -0.22256901438E+02 -0.20760201562E+01  0.28399752611E+02  0.00000000000E+00 0. -1.
         -1    1    4    4    0  502  0.52802691376E+02  0.20704631304E+02  0.11042308056E+03  0.12413727359E+03  0.00000000000E+00 0.  1.
          5    1    3    3  503    0 -0.71686238128E+01 -0.54193314612E+02  0.23037216831E+03  0.23681581545E+03  0.47000000000E+01 0. -1.
         11    1    6    6    0    0 -0.36061131460E+02 -0.62922524773E+01  0.33637048222E+02  0.49713666697E+02  0.00000000000E+00 0. -1.
        -12    1    6    6    0    0  0.48776615418E+01  0.73141194714E+02  0.82645200626E+02  0.11047015494E+03  0.00000000000E+00 0.  1.
         -5    1    5    5    0  501 -0.31968200993E+02 -0.11103357491E+02  0.25946322321E+03  0.26170308485E+03  0.47000000000E+01 0.  1.
<mgrwt>
<rscale>  2 0.19192290E+03</rscale>
<asrwt>0</asrwt>
<pdfrwt beam="1">  1        2 0.11736187E+00 0.19192290E+03</pdfrwt>
<pdfrwt beam="2">  1       -2 0.74442350E-02 0.19192290E+03</pdfrwt>
<totfact> 0.39381545E+03</totfact>
</mgrwt>
</event>
<event>
12    1  0.5759937E-002  0.2232806E+03  0.7546771E-02  0.1131461E+00
          2   -1    0    0  503    0  0.00000000000E+00  0.00000000000E+00  0.13539710686E+04  0.13539710686E+04  0.00000000000E+00 0. -1.
         -2   -1    0    0    0  501 -0.00000000000E+00 -0.00000000000E+00 -0.45334190952E+02  0.45334190952E+02  0.00000000000E+00 0.  1.
          6    2    1    2  503    0  0.84688215563E+02 -0.11329430120E+03  0.35216631451E+03  0.41721795986E+03  0.17332634079E+03 0.  0.
         24    2    3    3    0    0  0.42053499045E+02 -0.60676442765E+01  0.80606788366E+02  0.12212146505E+03  0.81307347802E+02 0.  0.
         -6    2    1    2    0  501 -0.84688215563E+02  0.11329430120E+03  0.95647056313E+03  0.98208729969E+03  0.17219707759E+03 0.  0.
        -24    2    5    5    0    0  0.12619023258E+02  0.72765710602E+02  0.35039537984E+03  0.36689587973E+03  0.79884766792E+02 0.  0.
          4    1    4    4  502    0  0.53850873120E+02  0.14195707189E+02  0.23606982796E+02  0.60487389390E+02  0.00000000000E+00 0. -1.
         -3    1    4    4    0  502 -0.11797374075E+02 -0.20263351465E+02  0.56999805570E+02  0.61634075662E+02  0.00000000000E+00 0.  1.
          5    1    3    3  503    0  0.42634716518E+02 -0.10722665692E+03  0.27155952615E+03  0.29509649481E+03  0.47000000000E+01 0. -1.
         13    1    6    6    0    0 -0.22534690608E+02  0.10149509621E+02  0.18419614868E+03  0.18584683483E+03  0.00000000000E+00 0. -1.
        -14    1    6    6    0    0  0.35153713866E+02  0.62616200981E+02  0.16619923115E+03  0.18104904490E+03  0.00000000000E+00 0.  1.
         -5    1    5    5    0  501 -0.97307238820E+02  0.40528590599E+02  0.60607518330E+03  0.61519141996E+03  0.47000000000E+01 0.  1.
<mgrwt>
<rscale>  2 0.22328063E+03</rscale>
<asrwt>0</asrwt>
<pdfrwt beam="1">  1        2 0.20830321E+00 0.22328063E+03</pdfrwt>
<pdfrwt beam="2">  1       -2 0.69744919E-02 0.22328063E+03</pdfrwt>
<totfact> 0.19211876E+03</totfact>
</mgrwt>
</event>
<event>
12    1  0.5759937E-002  0.2090554E+03  0.7546771E-02  0.1142316E+00
         -1   -1    0    0    0  501 -0.00000000000E+00  0.00000000000E+00  0.20355459504E+02  0.20355459504E+02  0.00000000000E+00 0. -1.
          1   -1    0    0  503    0  0.00000000000E+00 -0.00000000000E+00 -0.22591710054E+04  0.22591710054E+04  0.00000000000E+00 0.  1.
          6    2    1    2  503    0  0.51476261883E+02 -0.10328201513E+03 -0.13706468338E+04  0.13864195053E+04  0.17369318181E+03 0.  0.
         24    2    3    3    0    0  0.68539223290E+02 -0.34809798226E+01 -0.73698464417E+03  0.74470208158E+03  0.82006598648E+02 0.  0.
         -6    2    1    2    0  501 -0.51476261883E+02  0.10328201513E+03 -0.86816871208E+03  0.89310695961E+03  0.17494613026E+03 0.  0.
        -24    2    5    5    0    0 -0.93704546268E+02  0.79785629626E+02 -0.76622535056E+03  0.78019173880E+03  0.80321683030E+02 0.  0.
          4    1    4    4  502    0 -0.15156747598E+02  0.10200035471E+02 -0.69889557130E+02  0.72237925754E+02  0.00000000000E+00 0. -1.
         -3    1    4    4    0  502  0.83695970889E+02 -0.13681015293E+02 -0.66709508704E+03  0.67246415583E+03  0.00000000000E+00 0.  1.
          5    1    3    3  503    0 -0.17062961407E+02 -0.99801035308E+02 -0.63366218966E+03  0.64171742372E+03  0.47000000000E+01 0. -1.
         11    1    6    6    0    0 -0.31472359774E+02  0.78547410787E+02 -0.42720533497E+03  0.43550499813E+03  0.00000000000E+00 0. -1.
        -12    1    6    6    0    0 -0.62232186494E+02  0.12382188392E+01 -0.33902001559E+03  0.34468674067E+03  0.00000000000E+00 0.  1.
         -5    1    5    5    0  501  0.42228284385E+02  0.23496385505E+02 -0.10194336152E+03  0.11291522081E+03  0.47000000000E+01 0.  1.
<mgrwt>
<rscale>  2 0.20905542E+03</rscale>
<asrwt>0</asrwt>
<pdfrwt beam="2">  1        1 0.34756475E+00 0.20905542E+03</pdfrwt>
<pdfrwt beam="1">  1       -1 0.31316094E-02 0.20905542E+03</pdfrwt>
<totfact> 0.81548177E+02</totfact>
</mgrwt>
</event>
<event>
12    1  0.5759937E-002  0.2872204E+03  0.7546771E-02  0.1091809E+00
         -2   -1    0    0    0  501 -0.00000000000E+00  0.00000000000E+00  0.79451634706E+03  0.79451634706E+03  0.00000000000E+00 0.  1.
          2   -1    0    0  503    0  0.00000000000E+00 -0.00000000000E+00 -0.13208737888E+03  0.13208737888E+03  0.00000000000E+00 0. -1.
          6    2    1    2  503    0  0.39793988727E+02  0.22492300494E+03  0.11742730142E+03  0.31080417074E+03  0.17503183065E+03 0.  0.
         24    2    3    3    0    0  0.22215535982E+02  0.18692461982E+03  0.20397615238E+02  0.20502265405E+03  0.78637665492E+02 0.  0.
         -6    2    1    2    0  501 -0.39793988727E+02 -0.22492300494E+03  0.54500166677E+03  0.61579955521E+03  0.17322919998E+03 0.  0.
        -24    2    5    5    0    0 -0.45227572965E+02 -0.59186295374E+02  0.13058540815E+03  0.16941283257E+03  0.78099987855E+02 0.  0.
          4    1    4    4  502    0  0.74314222308E+01  0.17349074358E+03 -0.37413150436E+01  0.17369013093E+03  0.00000000000E+00 0. -1.
         -3    1    4    4    0  502  0.14784113751E+02  0.13433876243E+02  0.24138930281E+02  0.31332523126E+02  0.00000000000E+00 0.  1.
          5    1    3    3  503    0  0.17578452745E+02  0.37998385117E+02  0.97029686178E+02  0.10578151668E+03  0.47000000000E+01 0. -1.
         13    1    6    6    0    0 -0.25827121950E+02 -0.76384477467E+02  0.86380344023E+02  0.11816595305E+03  0.00000000000E+00 0. -1.
        -14    1    6    6    0    0 -0.19400451015E+02  0.17198182093E+02  0.44205064124E+02  0.51246879525E+02  0.00000000000E+00 0.  1.
         -5    1    5    5    0  501  0.54335842378E+01 -0.16573670956E+03  0.41441625862E+03  0.44638672263E+03  0.47000000000E+01 0.  1.
<mgrwt>
<rscale>  2 0.28722042E+03</rscale>
<asrwt>0</asrwt>
<pdfrwt beam="2">  1        2 0.20321136E-01 0.28722042E+03</pdfrwt>
<pdfrwt beam="1">  1       -2 0.12223328E+00 0.28722042E+03</pdfrwt>
<totfact> 0.14522860E+02</totfact>
</mgrwt>
</event>
<event>
12    1  0.5759937E-002  0.1976529E+03  0.7546771E-02  0.1151735E+00
         -2   -1    0    0    0  501 -0.00000000000E+00  0.00000000000E+00  0.88470158077E+02  0.88470158077E+02  0.00000000000E+00 0. -1.
          2   -1    0    0  503    0  0.00000000000E+00 -0.00000000000E+00 -0.52237126997E+03  0.52237126997E+03  0.00000000000E+00 0.  1.
          6    2    1    2  503    0  0.77755741222E+02  0.61703658903E+02 -0.95927392717E+02  0.21881266089E+03  0.16977520160E+03 0.  0.
         24    2    3    3    0    0 -0.11796782791E+02  0.30887715404E+01 -0.72208698496E+02  0.10908560847E+03  0.80850907497E+02 0.  0.
         -6    2    1    2    0  501 -0.77755741222E+02 -0.61703658903E+02 -0.33797371918E+03  0.39202876716E+03  0.17206691317E+03 0.  0.
        -24    2    5    5    0    0 -0.77313737079E+02  0.69276391500E+01 -0.12897616453E+03  0.17200031833E+03  0.83209689137E+02 0.  0.
          4    1    4    4  502    0 -0.42633522272E+02  0.16729179321E+02 -0.28728741366E+02  0.54063141256E+02  0.00000000000E+00 0. -1.
         -3    1    4    4    0  502  0.30836739481E+02 -0.13640407780E+02 -0.43479957130E+02  0.55022467214E+02  0.00000000000E+00 0.  1.
          5    1    3    3  503    0  0.89552524013E+02  0.58614887363E+02 -0.23718694221E+02  0.10972705242E+03  0.47000000000E+01 0. -1.
         13    1    6    6    0    0 -0.32060297036E+02 -0.38033809281E+02 -0.50787695525E+02  0.71090247652E+02  0.00000000000E+00 0. -1.
        -14    1    6    6    0    0 -0.45253440042E+02  0.44961448430E+02 -0.78188469001E+02  0.10091007068E+03  0.00000000000E+00 0.  1.
         -5    1    5    5    0  501 -0.44200414384E+00 -0.68631298053E+02 -0.20899755465E+03  0.22002844882E+03  0.47000000000E+01 0.  1.
<mgrwt>
<rscale>  2 0.19765286E+03</rscale>
<asrwt>0</asrwt>
<pdfrwt beam="2">  1        2 0.80364812E-01 0.19765286E+03</pdfrwt>
<pdfrwt beam="1">  1       -2 0.13610793E-01 0.19765286E+03</pdfrwt>
<totfact> 0.23584205E+03</totfact>
</mgrwt>
</event>
<event>
12    1  0.5759937E-002  0.1897815E+03  0.7546771E-02  0.1158659E+00
          2   -1    0    0  503    0  0.00000000000E+00  0.00000000000E+00  0.56085134348E+03  0.56085134348E+03  0.00000000000E+00 0.  1.
         -2   -1    0    0    0  501 -0.00000000000E+00 -0.00000000000E+00 -0.66026538121E+02  0.66026538121E+02  0.00000000000E+00 0. -1.
          6    2    1    2  503    0 -0.77275060570E+02  0.19139415866E+02  0.19342758949E+03  0.26977793487E+03  0.17037649352E+03 0.  0.
         24    2    3    3    0    0 -0.37652544006E+02 -0.83059589014E+01  0.20210492197E+03  0.22057855973E+03  0.79509738430E+02 0.  0.
         -6    2    1    2    0  501  0.77275060570E+02 -0.19139415866E+02  0.30139721588E+03  0.35709994673E+03  0.17419052211E+03 0.  0.
        -24    2    5    5    0    0  0.58134610392E+02 -0.76184149957E+02  0.24339882036E+03  0.27339593009E+03  0.79490195648E+02 0.  0.
          2    1    4    4  502    0 -0.27313028255E+02  0.28196284687E+02  0.15603886210E+03  0.16090108287E+03  0.00000000000E+00 0. -1.
         -1    1    4    4    0  502 -0.10339515751E+02 -0.36502243588E+02  0.46066059876E+02  0.59677476869E+02  0.00000000000E+00 0.  1.
          5    1    3    3  503    0 -0.39622516564E+02  0.27445374768E+02 -0.86773324862E+01  0.49199375140E+02  0.47000000000E+01 0. -1.
         11    1    6    6    0    0  0.39808267303E+02 -0.49109012129E+02  0.60174527664E+02  0.87277528594E+02  0.00000000000E+00 0. -1.
        -12    1    6    6    0    0  0.18326343089E+02 -0.27075137829E+02  0.18322429270E+03  0.18611840149E+03  0.00000000000E+00 0.  1.
         -5    1    5    5    0  501  0.19140450178E+02  0.57044734091E+02  0.57998395515E+02  0.83704016647E+02  0.47000000000E+01 0.  1.
<mgrwt>
<rscale>  2 0.18978146E+03</rscale>
<asrwt>0</asrwt>
<pdfrwt beam="1">  1        2 0.86284819E-01 0.18978146E+03</pdfrwt>
<pdfrwt beam="2">  1       -2 0.10157929E-01 0.18978146E+03</pdfrwt>
<totfact> 0.34796472E+03</totfact>
</mgrwt>
</event>
<event>
12    1  0.5759937E-002  0.1812594E+03  0.7546771E-02  0.1166590E+00
          2   -1    0    0  503    0  0.00000000000E+00  0.00000000000E+00  0.11743000325E+04  0.11743000325E+04  0.00000000000E+00 0. -1.
         -2   -1    0    0    0  501 -0.00000000000E+00 -0.00000000000E+00 -0.31015780352E+02  0.31015780352E+02  0.00000000000E+00 0.  1.
          6    2    1    2  503    0  0.40584215592E+02  0.34929528689E+02  0.75916617731E+03  0.78041813086E+03  0.17277738184E+03 0.  0.
         24    2    3    3    0    0 -0.11825244795E+02  0.74061444150E+02  0.36846867631E+03  0.38425568232E+03  0.79109607827E+02 0.  0.
         -6    2    1    2    0  501 -0.40584215592E+02 -0.34929528689E+02  0.38411807481E+03  0.42489768197E+03  0.17356322828E+03 0.  0.
        -24    2    5    5    0    0  0.37225929837E+02 -0.50623477902E+02  0.21568432819E+03  0.23863782108E+03  0.80497042547E+02 0.  0.
          2    1    4    4  502    0  0.63888763836E+01  0.66622121174E+02  0.35283306208E+03  0.35912462247E+03  0.00000000000E+00 0. -1.
         -1    1    4    4    0  502 -0.18214121179E+02  0.74393229757E+01  0.15635614231E+02  0.25131059847E+02  0.00000000000E+00 0.  1.
          5    1    3    3  503    0  0.52409460387E+02 -0.39131915460E+02  0.39069750100E+03  0.39616244854E+03  0.47000000000E+01 0. -1.
         13    1    6    6    0    0  0.38430152303E+02  0.10658245547E+02  0.10127040330E+03  0.10884010928E+03  0.00000000000E+00 0. -1.
        -14    1    6    6    0    0 -0.12042224666E+01 -0.61281723449E+02  0.11441392489E+03  0.12979771180E+03  0.00000000000E+00 0.  1.
         -5    1    5    5    0  501 -0.77810145428E+02  0.15693949213E+02  0.16843374663E+03  0.18625986088E+03  0.47000000000E+01 0.  1.
<mgrwt>
<rscale>  2 0.18125942E+03</rscale>
<asrwt>0</asrwt>
<pdfrwt beam="1">  1        2 0.18066151E+00 0.18125942E+03</pdfrwt>
<pdfrwt beam="2">  1       -2 0.47716594E-02 0.18125942E+03</pdfrwt>
<totfact> 0.43045538E+03</totfact>
</mgrwt>
</event>
<event>
12    1  0.5759937E-002  0.1840746E+03  0.7546771E-02  0.1163917E+00
         -1   -1    0    0    0  501 -0.00000000000E+00  0.00000000000E+00  0.16071409420E+03  0.16071409420E+03  0.00000000000E+00 0.  1.
          1   -1    0    0  503    0  0.00000000000E+00 -0.00000000000E+00 -0.23170183792E+03  0.23170183792E+03  0.00000000000E+00 0. -1.
          6    2    1    2  503    0 -0.45982981336E+02 -0.43434971790E+02 -0.94361859742E+02  0.20675251831E+03  0.17274666974E+03 0.  0.
         24    2    3    3    0    0 -0.27728375408E+02 -0.81036810769E+02 -0.14784086120E+02  0.11674229118E+03  0.77938218135E+02 0.  0.
         -6    2    1    2    0  501  0.45982981336E+02  0.43434971790E+02  0.23374116022E+02  0.18566341380E+03  0.17298416858E+03 0.  0.
        -24    2    5    5    0    0  0.58101377003E+02 -0.33789509265E+02 -0.33178949747E+00  0.10384326993E+03  0.79156892805E+02 0.  0.
          2    1    4    4  502    0 -0.42504935875E+02 -0.29842332870E+02  0.17062977677E+02  0.54666073684E+02  0.00000000000E+00 0. -1.
         -1    1    4    4    0  502  0.14776560467E+02 -0.51194477899E+02 -0.31847063797E+02  0.62076217499E+02  0.00000000000E+00 0.  1.
          5    1    3    3  503    0 -0.18254605928E+02  0.37601838978E+02 -0.79577773622E+02  0.90010227123E+02  0.47000000000E+01 0. -1.
         11    1    6    6    0    0  0.21622346997E+02  0.20072274233E+02 -0.20280249384E+02  0.35800985986E+02  0.00000000000E+00 0. -1.
        -12    1    6    6    0    0  0.36479030007E+02 -0.53861783498E+02  0.19948459886E+02  0.68042283939E+02  0.00000000000E+00 0.  1.
         -5    1    5    5    0  501 -0.12118395667E+02  0.77224481055E+02  0.23705905519E+02  0.81820143878E+02  0.47000000000E+01 0.  1.
<mgrwt>
<rscale>  2 0.18407464E+03</rscale>
<asrwt>0</asrwt>
<pdfrwt beam="2">  1        1 0.35646436E-01 0.18407464E+03</pdfrwt>
<pdfrwt beam="1">  1       -1 0.24725245E-01 0.18407464E+03</pdfrwt>
<totfact> 0.17062881E+03</totfact>
</mgrwt>
</event>
<event>
12    1  0.5759937E-002  0.2685359E+03  0.7546771E-02  0.1102120E+00
          2   -1    0    0  503    0  0.00000000000E+00  0.00000000000E+00  0.31810148615E+03  0.31810148615E+03  0.00000000000E+00 0.  1.
         -2   -1    0    0    0  501 -0.00000000000E+00 -0.00000000000E+00 -0.30869080064E+03  0.30869080064E+03  0.00000000000E+00 0. -1.
          6    2    1    2  503    0  0.63826701055E+02  0.19578907048E+03 -0.15681903145E+03  0.31080385196E+03  0.17204539483E+03 0.  0.
         24    2    3    3    0    0  0.97423604204E+02  0.91211200915E+02 -0.11266135742E+03  0.19232485433E+03  0.80532144577E+02 0.  0.
         -6    2    1    2    0  501 -0.63826701055E+02 -0.19578907048E+03  0.16622971695E+03  0.31598843483E+03  0.17265330654E+03 0.  0.
        -24    2    5    5    0    0  0.16848790873E+02 -0.10964389201E+03  0.13845194325E+03  0.19464915230E+03  0.80085498651E+02 0.  0.
          2    1    4    4  502    0  0.73380556928E+02  0.35732966788E+02 -0.10247881771E+03  0.13100938566E+03  0.00000000000E+00 0. -1.
         -1    1    4    4    0  502  0.24043047277E+02  0.55478234127E+02 -0.10182539707E+02  0.61315468677E+02  0.00000000000E+00 0.  1.
          5    1    3    3  503    0 -0.33596903149E+02  0.10457786956E+03 -0.44157674036E+02  0.11847899763E+03  0.47000000000E+01 0. -1.
         11    1    6    6    0    0  0.20331342480E+02  0.40931794762E+01  0.35929565032E+02  0.41485554699E+02  0.00000000000E+00 0. -1.
        -12    1    6    6    0    0 -0.34825516077E+01 -0.11373707149E+03  0.10252237822E+03  0.15316359760E+03  0.00000000000E+00 0.  1.
         -5    1    5    5    0  501 -0.80675491927E+02 -0.86145178468E+02  0.27777773707E+02  0.12133928252E+03  0.47000000000E+01 0.  1.
<mgrwt>
<rscale>  2 0.26853589E+03</rscale>
<asrwt>0</asrwt>
<pdfrwt beam="1">  1        2 0.48938690E-01 0.26853589E+03</pdfrwt>
<pdfrwt beam="2">  1       -2 0.47490892E-01 0.26853589E+03</pdfrwt>
<totfact> 0.43893302E+02</totfact>
</mgrwt>
</event>
<event>
12    1  0.5759937E-002  0.1807426E+03  0.7546771E-02  0.1167086E+00
          2   -1    0    0  503    0  0.00000000000E+00  0.00000000000E+00  0.15940619566E+04  0.15940619566E+04  0.00000000000E+00 0. -1.
         -2   -1    0    0    0  501 -0.00000000000E+00 -0.00000000000E+00 -0.21410126391E+02  0.21410126391E+02  0.00000000000E+00 0.  1.
          6    2    1    2  503    0 -0.34552267195E+02 -0.19317928775E+02  0.63377130306E+03  0.65997257297E+03  0.17980737180E+03 0.  0.
         24    2    3    3    0    0 -0.58100683030E+02 -0.56472876316E+02  0.26773995529E+03  0.29127750172E+03  0.81197439755E+02 0.  0.
         -6    2    1    2    0  501  0.34552267195E+02  0.19317928775E+02  0.93888052712E+03  0.95549950999E+03  0.17296134783E+03 0.  0.
        -24    2    5    5    0    0 -0.42202432418E+02  0.11626119941E+02  0.36990092337E+03  0.38129542840E+03  0.81506433106E+02 0.  0.
          4    1    4    4  502    0  0.15088200159E+02 -0.28351684243E+02  0.11748912889E+03  0.12179970111E+03  0.00000000000E+00 0. -1.
         -3    1    4    4    0  502 -0.73188883189E+02 -0.28121192073E+02  0.15025082640E+03  0.16947780061E+03  0.00000000000E+00 0.  1.
          5    1    3    3  503    0  0.23548415835E+02  0.37154947541E+02  0.36603134777E+03  0.36869507125E+03  0.47000000000E+01 0. -1.
         11    1    6    6    0    0  0.46628643305E+01  0.34753283461E+02  0.21437257089E+03  0.21722138975E+03  0.00000000000E+00 0. -1.
        -12    1    6    6    0    0 -0.46865296748E+02 -0.23127163520E+02  0.15552835248E+03  0.16407403864E+03  0.00000000000E+00 0.  1.
         -5    1    5    5    0  501  0.76754699613E+02  0.76918088336E+01  0.56897960375E+03  0.57420408160E+03  0.47000000000E+01 0.  1.
<mgrwt>
<rscale>  2 0.18074261E+03</rscale>
<asrwt>0</asrwt>
<pdfrwt beam="1">  1        2 0.24524021E+00 0.18074261E+03</pdfrwt>
<pdfrwt beam="2">  1       -2 0.32938669E-02 0.18074261E+03</pdfrwt>
<totfact> 0.44514182E+03</totfact>
</mgrwt>
</event>
<event>
12    1  0.5759937E-002  0.7550077E+03  0.7546771E-02  0.9627527E-01
         -2   -1    0    0    0  501 -0.00000000000E+00  0.00000000000E+00  0.48642813413E+03  0.48642813413E+03  0.00000000000E+00 0. -1.
          2   -1    0    0  503    0  0.00000000000E+00 -0.00000000000E+00 -0.16713237847E+04  0.16713237847E+04  0.00000000000E+00 0.  1.
          6    2    1    2  503    0  0.45288350092E+03 -0.57851179901E+03 -0.27106649970E+01  0.75507398711E+03  0.17421254632E+03 0.  0.
         24    2    3    3    0    0  0.25545650611E+03 -0.38887397332E+03 -0.58931746903E+02  0.47556938381E+03  0.78818109495E+02 0.  0.
         -6    2    1    2    0  501 -0.45288350092E+03  0.57851179901E+03 -0.11821849856E+04  0.14026779317E+04  0.17367980028E+03 0.  0.
        -24    2    5    5    0    0 -0.99387659732E+02  0.14636832978E+03 -0.34278566310E+03  0.39455065786E+03  0.82865046441E+02 0.  0.
          2    1    4    4  502    0  0.17598194234E+03 -0.31323727148E+03 -0.22603194728E+02  0.35999741206E+03  0.00000000000E+00 0. -1.
         -1    1    4    4    0  502  0.79474563776E+02 -0.75636701833E+02 -0.36328552174E+02  0.11557197175E+03  0.00000000000E+00 0.  1.
          5    1    3    3  503    0  0.19742699481E+03 -0.18963782569E+03  0.56221081906E+02  0.27950460330E+03  0.47000000000E+01 0. -1.
         13    1    6    6    0    0 -0.41504799990E+02  0.10442526613E+03 -0.13990482906E+03  0.17944538395E+03  0.00000000000E+00 0. -1.
        -14    1    6    6    0    0 -0.57882859742E+02  0.41943063649E+02 -0.20288083404E+03  0.21510527391E+03  0.00000000000E+00 0.  1.
         -5    1    5    5    0  501 -0.35349584119E+03  0.43214346923E+03 -0.83939932246E+03  0.10081272738E+04  0.47000000000E+01 0.  1.
<mgrwt>
<rscale>  2 0.75500775E+03</rscale>
<asrwt>0</asrwt>
<pdfrwt beam="2">  1        2 0.25712674E+00 0.75500775E+03</pdfrwt>
<pdfrwt beam="1">  1       -2 0.74835097E-01 0.75500775E+03</pdfrwt>
<totfact> 0.16763327E+01</totfact>
</mgrwt>
</event>
<event>
12    1  0.5759937E-002  0.3087444E+03  0.7546771E-02  0.1080949E+00
          1   -1    0    0  503    0  0.00000000000E+00  0.00000000000E+00  0.23333155487E+03  0.23333155487E+03  0.00000000000E+00 0. -1.
         -1   -1    0    0    0  501 -0.00000000000E+00 -0.00000000000E+00 -0.43291575071E+03  0.43291575071E+03  0.00000000000E+00 0.  1.
          6    2    1    2  503    0 -0.17738074867E+03 -0.18522311893E+03 -0.20434341263E+02  0.30842935614E+03  0.17011634736E+03 0.  0.
         24    2    3    3    0    0 -0.23905410502E+02 -0.81955574973E+02 -0.37395013964E+02  0.12261057485E+03  0.79666687356E+02 0.  0.
         -6    2    1    2    0  501  0.17738074867E+03  0.18522311893E+03 -0.17914985457E+03  0.35781794944E+03  0.17368788318E+03 0.  0.
        -24    2    5    5    0    0  0.20278409404E+03  0.18348154148E+03 -0.16154952104E+03  0.32650940766E+03  0.75652367344E+02 0.  0.
          2    1    4    4  502    0  0.97664770497E+01  0.12848440516E+02 -0.60284038726E+01  0.17228120933E+02  0.00000000000E+00 0. -1.
         -1    1    4    4    0  502 -0.33671887551E+02 -0.94804015489E+02 -0.31366610091E+02  0.10538245391E+03  0.00000000000E+00 0.  1.
          5    1    3    3  503    0 -0.15347533817E+03 -0.10326754396E+03  0.16960672701E+02  0.18581878129E+03  0.47000000000E+01 0. -1.
         13    1    6    6    0    0 -0.12577305952E+01  0.23520138992E+02 -0.65783180498E+01  0.24455124060E+02  0.00000000000E+00 0. -1.
        -14    1    6    6    0    0  0.20404182464E+03  0.15996140249E+03 -0.15497120299E+03  0.30205428360E+03  0.00000000000E+00 0.  1.
         -5    1    5    5    0  501 -0.25403345370E+02  0.17415774556E+01 -0.17600333536E+02  0.31308541783E+02  0.47000000000E+01 0.  1.
<mgrwt>
<rscale>  2 0.30874436E+03</rscale>
<asrwt>0</asrwt>
<pdfrwt beam="1">  1        1 0.35897163E-01 0.30874436E+03</pdfrwt>
<pdfrwt beam="2">  1       -1 0.66602422E-01 0.30874436E+03</pdfrwt>
<totfact> 0.28653341E+02</totfact>
</mgrwt>
</event>
<event>
12    1  0.5759937E-002  0.2001121E+03  0.7546771E-02  0.1149644E+00
         -1   -1    0    0    0  501 -0.00000000000E+00  0.00000000000E+00  0.14884636021E+04  0.14884636021E+04  0.00000000000E+00 0. -1.
          1   -1    0    0  503    0  0.00000000000E+00 -0.00000000000E+00 -0.44377539656E+02  0.44377539656E+02  0.00000000000E+00 0.  1.
          6    2    1    2  503    0 -0.55482464227E+02  0.95421108966E+02  0.11938531242E+04  0.12098485912E+04  0.16206430735E+03 0.  0.
         24    2    3    3    0    0 -0.40770706605E+02  0.28392971001E+02  0.32431558676E+03  0.33759471416E+03  0.79505848156E+02 0.  0.
         -6    2    1    2    0  501  0.55482464227E+02 -0.95421108966E+02  0.25023293827E+03  0.32299255053E+03  0.17182599463E+03 0.  0.
        -24    2    5    5    0    0  0.30453949701E+02 -0.11090615030E+03  0.25614320564E+03  0.29260777960E+03  0.82355046339E+02 0.  0.
          2    1    4    4  502    0 -0.37150241821E+02 -0.13830205185E+02  0.76285150925E+02  0.85969990662E+02  0.00000000000E+00 0. -1.
         -1    1    4    4    0  502 -0.36204647838E+01  0.42223176186E+02  0.24803043584E+03  0.25162472349E+03  0.00000000000E+00 0.  1.
          5    1    3    3  503    0 -0.14711757622E+02  0.67028137966E+02  0.86953753740E+03  0.87225387706E+03  0.47000000000E+01 0. -1.
         13    1    6    6    0    0 -0.15539480479E+02 -0.35705599599E+02  0.14826988434E+03  0.15329815360E+03  0.00000000000E+00 0. -1.
        -14    1    6    6    0    0  0.45993430179E+02 -0.75200550706E+02  0.10787332130E+03  0.13930962599E+03  0.00000000000E+00 0.  1.
         -5    1    5    5    0  501  0.25028514527E+02  0.15485041338E+02 -0.59102673652E+01  0.30384770938E+02  0.47000000000E+01 0.  1.
<mgrwt>
<rscale>  2 0.20011210E+03</rscale>
<asrwt>0</asrwt>
<pdfrwt beam="2">  1        1 0.68273149E-02 0.20011210E+03</pdfrwt>
<pdfrwt beam="1">  1       -1 0.22899436E+00 0.20011210E+03</pdfrwt>
<totfact> 0.11777909E+02</totfact>
</mgrwt>
</event>
<event>
12    1  0.5759937E-002  0.2372058E+03  0.7546771E-02  0.1121668E+00
          1   -1    0    0  503    0  0.00000000000E+00  0.00000000000E+00  0.62182941870E+02  0.62182941870E+02  0.00000000000E+00 0.  1.
         -1   -1    0    0    0  501 -0.00000000000E+00 -0.00000000000E+00 -0.91979239708E+03  0.91979239708E+03  0.00000000000E+00 0. -1.
          6    2    1    2  503    0 -0.64423666507E+02 -0.15570506710E+03 -0.37929325650E+03  0.45089491373E+03  0.17620548253E+03 0.  0.
         24    2    3    3    0    0 -0.63366671683E+02 -0.21812346855E+02 -0.12083596378E+03  0.15977528208E+03  0.80222796420E+02 0.  0.
         -6    2    1    2    0  501  0.64423666507E+02  0.15570506710E+03 -0.47831619871E+03  0.53108042522E+03  0.15768815865E+03 0.  0.
        -24    2    5    5    0    0  0.46452287388E+02  0.16898041572E+03 -0.34007393614E+03  0.39096540636E+03  0.80569665703E+02 0.  0.
          4    1    4    4  502    0 -0.76435599262E+02 -0.36594783040E+02 -0.95926106566E+02  0.12799764412E+03  0.00000000000E+00 0. -1.
         -3    1    4    4    0  502  0.13068927579E+02  0.14782436185E+02 -0.24909857218E+02  0.31777637959E+02  0.00000000000E+00 0.  1.
          5    1    3    3  503    0 -0.10569948243E+01 -0.13389272024E+03 -0.25845729272E+03  0.29111963165E+03  0.47000000000E+01 0. -1.
         11    1    6    6    0    0  0.27146669174E+02  0.48564865515E+01 -0.51795336357E+02  0.58679502190E+02  0.00000000000E+00 0. -1.
        -12    1    6    6    0    0  0.19305618213E+02  0.16412392917E+03 -0.28827859978E+03  0.33228590417E+03  0.00000000000E+00 0.  1.
         -5    1    5    5    0  501  0.17971379119E+02 -0.13275348626E+02 -0.13824226257E+03  0.14011501886E+03  0.47000000000E+01 0.  1.
<mgrwt>
<rscale>  2 0.23720578E+03</rscale>
<asrwt>0</asrwt>
<pdfrwt beam="1">  1        1 0.95666068E-02 0.23720578E+03</pdfrwt>
<pdfrwt beam="2">  1       -1 0.14150652E+00 0.23720578E+03</pdfrwt>
<totfact> 0.30045998E+02</totfact>
</mgrwt>
</event>
<event>
12    1  0.5759937E-002  0.2136728E+03  0.7546771E-02  0.1138690E+00
          2   -1    0    0  503    0  0.00000000000E+00  0.00000000000E+00  0.25439615052E+03  0.25439615052E+03  0.00000000000E+00 0. -1.
         -2   -1    0    0    0  501 -0.00000000000E+00 -0.00000000000E+00 -0.23467299323E+03  0.23467299323E+03  0.00000000000E+00 0.  1.
          6    2    1    2  503    0 -0.83679629730E+02 -0.93756428187E+02  0.12844604520E+03  0.24888360067E+03  0.17219788586E+03 0.  0.
         24    2    3    3    0    0 -0.40559117901E+02 -0.12602322630E+03  0.11478602288E+03  0.19312330108E+03  0.81202726297E+02 0.  0.
         -6    2    1    2    0  501  0.83679629730E+02  0.93756428187E+02 -0.10872288791E+03  0.24018554309E+03  0.17342399053E+03 0.  0.
        -24    2    5    5    0    0  0.87828940892E+02  0.85732758789E+02 -0.14271915019E+03  0.20469706745E+03  0.80424528622E+02 0.  0.
          2    1    4    4  502    0 -0.35417819377E+02 -0.22514124084E+02  0.51925051599E+01  0.42287939445E+02  0.00000000000E+00 0. -1.
         -1    1    4    4    0  502 -0.51412985245E+01 -0.10350910221E+03  0.10959351772E+03  0.15083536163E+03  0.00000000000E+00 0.  1.
          5    1    3    3  503    0 -0.43120511829E+02  0.32266798110E+02  0.13660022314E+02  0.55760299589E+02  0.47000000000E+01 0. -1.
         13    1    6    6    0    0  0.16573269305E+02 -0.70340434083E+01 -0.56726673743E+02  0.59515263051E+02  0.00000000000E+00 0. -1.
        -14    1    6    6    0    0  0.71255671586E+02  0.92766802198E+02 -0.85992476451E+02  0.14518180440E+03  0.00000000000E+00 0.  1.
         -5    1    5    5    0  501 -0.41493111616E+01  0.80236693978E+01  0.33996262280E+02  0.35488475633E+02  0.47000000000E+01 0.  1.
<mgrwt>
<rscale>  2 0.21367277E+03</rscale>
<asrwt>0</asrwt>
<pdfrwt beam="1">  1        2 0.39137870E-01 0.21367277E+03</pdfrwt>
<pdfrwt beam="2">  1       -2 0.36103537E-01 0.21367277E+03</pdfrwt>
<totfact> 0.94615179E+02</totfact>
</mgrwt>
</event>
<event>
12    1  0.5759937E-002  0.2113776E+03  0.7546771E-02  0.1140480E+00
          2   -1    0    0  503    0  0.00000000000E+00  0.00000000000E+00  0.42883275015E+04  0.42883275015E+04  0.00000000000E+00 0. -1.
         -2   -1    0    0    0  501 -0.00000000000E+00 -0.00000000000E+00 -0.14684937100E+02  0.14684937100E+02  0.00000000000E+00 0.  1.
          6    2    1    2  503    0  0.59406632754E+02  0.11166199845E+03  0.33178727299E+04  0.33247954843E+04  0.17317046538E+03 0.  0.
         24    2    3    3    0    0  0.95142532030E+02  0.76597793816E+02  0.17754728280E+04  0.17815760895E+04  0.82403131928E+02 0.  0.
         -6    2    1    2    0  501 -0.59406632754E+02 -0.11166199845E+03  0.95576983441E+03  0.97821695430E+03  0.16557440443E+03 0.  0.
        -24    2    5    5    0    0 -0.33431942920E+01 -0.43015455049E+02  0.23452301337E+03  0.25152959104E+03  0.80028651437E+02 0.  0.
          2    1    4    4  502    0  0.10087049789E+03  0.86570015865E+02  0.17047341340E+04  0.17099086796E+04  0.00000000000E+00 0. -1.
         -1    1    4    4    0  502 -0.57279658573E+01 -0.99722220497E+01  0.70738694055E+02  0.71667409902E+02  0.00000000000E+00 0.  1.
          5    1    3    3  503    0 -0.35735899276E+02  0.35064204637E+02  0.15423999019E+04  0.15432193948E+04  0.47000000000E+01 0. -1.
         11    1    6    6    0    0  0.12555903157E+01 -0.59976217646E+02  0.10589338410E+03  0.12170510255E+03  0.00000000000E+00 0. -1.
        -12    1    6    6    0    0 -0.45987846077E+01  0.16960762597E+02  0.12862962926E+03  0.12982448849E+03  0.00000000000E+00 0.  1.
         -5    1    5    5    0  501 -0.56063438462E+02 -0.68646543404E+02  0.72124682104E+03  0.72668736326E+03  0.47000000000E+01 0.  1.
<mgrwt>
<rscale>  2 0.21137757E+03</rscale>
<asrwt>0</asrwt>
<pdfrwt beam="1">  1        2 0.65974169E+00 0.21137757E+03</pdfrwt>
<pdfrwt beam="2">  1       -2 0.22592245E-02 0.21137757E+03</pdfrwt>
<totfact> 0.17369798E+02</totfact>
</mgrwt>
</event>
<event>
12    1  0.5759937E-002  0.1786343E+03  0.7546771E-02  0.1169131E+00
          1   -1    0    0  503    0  0.00000000000E+00  0.00000000000E+00  0.68900836766E+03  0.68900836766E+03  0.00000000000E+00 0.  1.
         -1   -1    0    0    0  501 -0.00000000000E+00 -0.00000000000E+00 -0.46314640019E+02  0.46314640019E+02  0.00000000000E+00 0. -1.
          6    2    1    2  503    0  0.32774782386E+02  0.31265168446E+02  0.31915381748E+03  0.36569614366E+03  0.17269282891E+03 0.  0.
         24    2    3    3    0    0  0.24116864835E+02 -0.26213995681E+02  0.13418790963E+03  0.17175468107E+03  0.10111616408E+03 0.  0.
         -6    2    1    2    0  501 -0.32774782386E+02 -0.31265168446E+02  0.32353991016E+03  0.36962686402E+03  0.17289953158E+03 0.  0.
        -24    2    5    5    0    0 -0.35587194883E+02  0.47557511590E+02  0.18166080588E+03  0.20723014366E+03  0.80096933154E+02 0.  0.
          4    1    4    4  502    0  0.52345289424E+02 -0.46693119413E+02  0.72418501591E+02  0.10082021671E+03  0.00000000000E+00 0. -1.
         -3    1    4    4    0  502 -0.28228424589E+02  0.20479123732E+02  0.61769408041E+02  0.70934464355E+02  0.00000000000E+00 0.  1.
          5    1    3    3  503    0  0.86579175508E+01  0.57479164127E+02  0.18496590785E+03  0.19394146259E+03  0.47000000000E+01 0. -1.
         13    1    6    6    0    0 -0.56110971637E+02  0.42377299572E+02  0.96025536307E+02  0.11901756291E+03  0.00000000000E+00 0. -1.
        -14    1    6    6    0    0  0.20523776754E+02  0.51802120189E+01  0.85635269568E+02  0.88212580751E+02  0.00000000000E+00 0.  1.
         -5    1    5    5    0  501  0.28124124976E+01 -0.78822680037E+02  0.14187910428E+03  0.16239672036E+03  0.47000000000E+01 0.  1.
<mgrwt>
<rscale>  2 0.17863428E+03</rscale>
<asrwt>0</asrwt>
<pdfrwt beam="1">  1        1 0.10600128E+00 0.17863428E+03</pdfrwt>
<pdfrwt beam="2">  1       -1 0.71253298E-02 0.17863428E+03</pdfrwt>
<totfact> 0.29290178E+03</totfact>
</mgrwt>
</event>
<event>
12    1  0.5759937E-002  0.1739156E+03  0.7546771E-02  0.1173825E+00
         -1   -1    0    0    0  501 -0.00000000000E+00  0.00000000000E+00  0.14049080863E+02  0.14049080863E+02  0.00000000000E+00 0.  1.
          1   -1    0    0  503    0  0.00000000000E+00 -0.00000000000E+00 -0.21762437887E+04  0.21762437887E+04  0.00000000000E+00 0. -1.
          6    2    1    2  503    0 -0.26277744496E+02  0.26218780908E+01 -0.95977061172E+03  0.97516215597E+03  0.17054093121E+03 0.  0.
         24    2    3    3    0    0  0.11103506387E+02  0.52669409857E+02 -0.38625370220E+03  0.39823421519E+03  0.80630100413E+02 0.  0.
         -6    2    1    2    0  501  0.26277744496E+02 -0.26218780908E+01 -0.12024240961E+04  0.12151307136E+04  0.17326727934E+03 0.  0.
        -24    2    5    5    0    0 -0.25754451018E+02 -0.54065174076E+02 -0.58297091352E+03  0.59135343162E+03  0.79104110420E+02 0.  0.
          2    1    4    4  502    0  0.39985801534E+02  0.37863114311E+01 -0.16170344152E+03  0.16661693634E+03  0.00000000000E+00 0. -1.
         -1    1    4    4    0  502 -0.28882295148E+02  0.48883098426E+02 -0.22455026068E+03  0.23161727884E+03  0.00000000000E+00 0.  1.
          5    1    3    3  503    0 -0.37381250883E+02 -0.50047531767E+02 -0.57351690952E+03  0.57692794078E+03  0.47000000000E+01 0. -1.
         13    1    6    6    0    0  0.24630208418E+02 -0.39769179215E+02 -0.28564135685E+03  0.28944640181E+03  0.00000000000E+00 0. -1.
        -14    1    6    6    0    0 -0.50384659436E+02 -0.14295994861E+02 -0.29732955668E+03  0.30190702981E+03  0.00000000000E+00 0.  1.
         -5    1    5    5    0  501  0.52032195514E+02  0.51443295985E+02 -0.61945318256E+03  0.62377728193E+03  0.47000000000E+01 0.  1.
<mgrwt>
<rscale>  2 0.17391562E+03</rscale>
<asrwt>0</asrwt>
<pdfrwt beam="2">  1        1 0.33480667E+00 0.17391562E+03</pdfrwt>
<pdfrwt beam="1">  1       -1 0.21613975E-02 0.17391562E+03</pdfrwt>
<totfact> 0.15937858E+03</totfact>
</mgrwt>
</event>
<event>
12    1  0.5759937E-002  0.2152125E+03  0.7546771E-02  0.1137504E+00
         -1   -1    0    0    0  501 -0.00000000000E+00  0.00000000000E+00  0.58205236411E+02  0.58205236411E+02  0.00000000000E+00 0. -1.
          1   -1    0    0  503    0  0.00000000000E+00 -0.00000000000E+00 -0.95556682932E+03  0.95556682932E+03  0.00000000000E+00 0.  1.
          6    2    1    2  503    0 -0.11322100357E+03 -0.67678124723E+02 -0.23833586685E+03  0.31994027446E+03  0.16780485565E+03 0.  0.
         24    2    3    3    0    0 -0.91760246514E+02 -0.98026414650E+02 -0.23586593636E+03  0.28239332583E+03  0.78000831582E+02 0.  0.
         -6    2    1    2    0  501  0.11322100357E+03  0.67678124723E+02 -0.65902572606E+03  0.69383179127E+03  0.17230299693E+03 0.  0.
        -24    2    5    5    0    0  0.24574584468E+02 -0.15364291016E+02 -0.37956380230E+03  0.38907732082E+03  0.80451910569E+02 0.  0.
          4    1    4    4  502    0 -0.21922471769E+02 -0.51044193879E+02 -0.37824189394E+02  0.67206947562E+02  0.00000000000E+00 0. -1.
         -3    1    4    4    0  502 -0.69837774745E+02 -0.46982220771E+02 -0.19804174697E+03  0.21518637827E+03  0.00000000000E+00 0.  1.
          5    1    3    3  503    0 -0.21460757061E+02  0.30348289928E+02 -0.24699304915E+01  0.37546948635E+02  0.47000000000E+01 0. -1.
         13    1    6    6    0    0  0.19806524405E+02  0.19212690105E+02 -0.45632772429E+02  0.53327064326E+02  0.00000000000E+00 0. -1.
        -14    1    6    6    0    0  0.47680600626E+01 -0.34576981121E+02 -0.33393102988E+03  0.33575025649E+03  0.00000000000E+00 0.  1.
         -5    1    5    5    0  501  0.88646419107E+02  0.83042415739E+02 -0.27946192376E+03  0.30475447045E+03  0.47000000000E+01 0.  1.
<mgrwt>
<rscale>  2 0.21521246E+03</rscale>
<asrwt>0</asrwt>
<pdfrwt beam="2">  1        1 0.14701027E+00 0.21521246E+03</pdfrwt>
<pdfrwt beam="1">  1       -1 0.89546524E-02 0.21521246E+03</pdfrwt>
<totfact> 0.12521652E+03</totfact>
</mgrwt>
</event>
<event>
12    1  0.5759937E-002  0.2173078E+03  0.7546771E-02  0.1135906E+00
         -2   -1    0    0    0  501 -0.00000000000E+00  0.00000000000E+00  0.28196505567E+02  0.28196505567E+02  0.00000000000E+00 0.  1.
          2   -1    0    0  503    0  0.00000000000E+00 -0.00000000000E+00 -0.18141277543E+04  0.18141277543E+04  0.00000000000E+00 0. -1.
          6    2    1    2  503    0 -0.75565340502E+02  0.10827726523E+03 -0.63768881957E+03  0.67370127444E+03  0.17260443135E+03 0.  0.
         24    2    3    3    0    0 -0.20881386727E+02 -0.47705529809E+01 -0.19970871539E+03  0.21804920799E+03  0.84871052857E+02 0.  0.
         -6    2    1    2    0  501  0.75565340502E+02 -0.10827726523E+03 -0.11482424292E+04  0.11686229855E+04  0.17258307883E+03 0.  0.
        -24    2    5    5    0    0  0.69169732568E+02 -0.97150414675E+02 -0.11458109422E+04  0.11547408843E+04  0.79505595150E+02 0.  0.
          4    1    4    4  502    0 -0.44350919776E+02  0.13282982726E+01 -0.18372320445E+03  0.18900524944E+03  0.00000000000E+00 0. -1.
         -3    1    4    4    0  502  0.23469533048E+02 -0.60988512535E+01 -0.15985510938E+02  0.29043958547E+02  0.00000000000E+00 0.  1.
          5    1    3    3  503    0 -0.54683953774E+02  0.11304781821E+03 -0.43798010418E+03  0.45565206645E+03  0.47000000000E+01 0. -1.
         11    1    6    6    0    0 -0.92733656049E+01 -0.35452707224E+02 -0.49132402059E+03  0.49268872828E+03  0.00000000000E+00 0. -1.
        -12    1    6    6    0    0  0.78443098173E+02 -0.61697707451E+02 -0.65448692157E+03  0.66205215599E+03  0.00000000000E+00 0.  1.
         -5    1    5    5    0  501  0.63956079339E+01 -0.11126850556E+02 -0.24314870281E+01  0.13882101185E+02  0.47000000000E+01 0.  1.
<mgrwt>
<rscale>  2 0.21730783E+03</rscale>
<asrwt>0</asrwt>
<pdfrwt beam="2">  1        2 0.27909676E+00 0.21730783E+03</pdfrwt>
<pdfrwt beam="1">  1       -2 0.43379211E-02 0.21730783E+03</pdfrwt>
<totfact> 0.22654987E+03</totfact>
</mgrwt>
</event>
<event>
12    1  0.5759937E-002  0.1754090E+03  0.7546771E-02  0.1172322E+00
         -1   -1    0    0    0  501 -0.00000000000E+00  0.00000000000E+00  0.17225487600E+03  0.17225487600E+03  0.00000000000E+00 0. -1.
          1   -1    0    0  503    0  0.00000000000E+00 -0.00000000000E+00 -0.17964180607E+03  0.17964180607E+03  0.00000000000E+00 0.  1.
          6    2    1    2  503    0 -0.29710091519E+02  0.62303177374E+01 -0.16952473065E+02  0.17602770460E+03  0.17255972893E+03 0.  0.
         24    2    3    3    0    0 -0.92566380634E+01  0.32897372968E+02 -0.72316953755E+02  0.11109087903E+03  0.77094222269E+02 0.  0.
         -6    2    1    2    0  501  0.29710091519E+02 -0.62303177374E+01  0.95655429913E+01  0.17586897747E+03  0.17296500001E+03 0.  0.
        -24    2    5    5    0    0  0.54431120446E+02  0.53186944065E+02  0.80699784996E+01  0.11132544964E+03  0.80849448320E+02 0.  0.
          4    1    4    4  502    0 -0.25535613938E+02  0.50893394243E+02 -0.35844187860E+02  0.67283065924E+02  0.00000000000E+00 0. -1.
         -3    1    4    4    0  502  0.16278975875E+02 -0.17996021275E+02 -0.36472765895E+02  0.43807813108E+02  0.00000000000E+00 0.  1.
          5    1    3    3  503    0 -0.20453453456E+02 -0.26667055231E+02  0.55364480690E+02  0.64936825569E+02  0.47000000000E+01 0. -1.
         13    1    6    6    0    0  0.74859791646E+02  0.45215335139E+02  0.14095313250E+02  0.88583817893E+02  0.00000000000E+00 0. -1.
        -14    1    6    6    0    0 -0.20428671200E+02  0.79716089253E+01 -0.60253347501E+01  0.22741631751E+02  0.00000000000E+00 0.  1.
         -5    1    5    5    0  501 -0.24721028926E+02 -0.59417261802E+02  0.14955644917E+01  0.64543527827E+02  0.47000000000E+01 0.  1.
<mgrwt>
<rscale>  2 0.17540896E+03</rscale>
<asrwt>0</asrwt>
<pdfrwt beam="2">  1        1 0.27637201E-01 0.17540896E+03</pdfrwt>
<pdfrwt beam="1">  1       -1 0.26500750E-01 0.17540896E+03</pdfrwt>
<totfact> 0.20887970E+03</totfact>
</mgrwt>
</event>
<event>
12    1  0.5759937E-002  0.2073836E+03  0.7546771E-02  0.1143655E+00
         -1   -1    0    0    0  501 -0.00000000000E+00  0.00000000000E+00  0.77737484336E+03  0.77737484336E+03  0.00000000000E+00 0. -1.
          1   -1    0    0  503    0  0.00000000000E+00 -0.00000000000E+00 -0.71563976839E+02  0.71563976839E+02  0.00000000000E+00 0.  1.
          6    2    1    2  503    0 -0.72473912764E+02  0.88019945398E+02  0.15081809868E+03  0.25649557908E+03  0.17333177544E+03 0.  0.
         24    2    3    3    0    0 -0.26295238344E+00  0.62009870149E+02  0.14827094819E+03  0.17955713103E+03  0.80069944958E+02 0.  0.
         -6    2    1    2    0  501  0.72473912764E+02 -0.88019945398E+02  0.55499276783E+03  0.59244324112E+03  0.17312435639E+03 0.  0.
        -24    2    5    5    0    0  0.46921269135E+02 -0.36074269814E+02  0.13346780896E+03  0.16693569504E+03  0.80937703278E+02 0.  0.
          4    1    4    4  502    0 -0.11849162151E+02  0.10853313538E+02  0.11781153853E+03  0.11890229463E+03  0.00000000000E+00 0. -1.
         -3    1    4    4    0  502  0.11586209768E+02  0.51156556611E+02  0.30459409660E+02  0.60654836393E+02  0.00000000000E+00 0.  1.
          5    1    3    3  503    0 -0.72210960381E+02  0.26010075249E+02  0.25471504960E+01  0.76938448056E+02  0.47000000000E+01 0. -1.
         11    1    6    6    0    0  0.29148731196E+02 -0.36082371868E+02  0.14039627062E+03  0.14786040340E+03  0.00000000000E+00 0. -1.
        -12    1    6    6    0    0  0.17772537939E+02  0.81020541131E-02 -0.69284616584E+01  0.19075291647E+02  0.00000000000E+00 0.  1.
         -5    1    5    5    0  501  0.25552643629E+02 -0.51945675585E+02  0.42152495888E+03  0.42550754607E+03  0.47000000000E+01 0.  1.
<mgrwt>
<rscale>  2 0.20738355E+03</rscale>
<asrwt>0</asrwt>
<pdfrwt beam="2">  1        1 0.11009843E-01 0.20738355E+03</pdfrwt>
<pdfrwt beam="1">  1       -1 0.11959612E+00 0.20738355E+03</pdfrwt>
<totfact> 0.37663854E+02</totfact>
</mgrwt>
</event>
<event>
12    1  0.5759937E-002  0.2341954E+03  0.7546771E-02  0.1123721E+00
         -2   -1    0    0    0  501 -0.00000000000E+00  0.00000000000E+00  0.16445606447E+04  0.16445606447E+04  0.00000000000E+00 0.  1.
          2   -1    0    0  503    0  0.00000000000E+00 -0.00000000000E+00 -0.41258393148E+02  0.41258393148E+02  0.00000000000E+00 0. -1.
          6    2    1    2  503    0 -0.85599431596E+02 -0.13241855513E+03  0.11707494894E+04  0.11939496579E+04  0.17320358581E+03 0.  0.
         24    2    3    3    0    0 -0.10933813928E+03 -0.45773248716E+02  0.75956168157E+03  0.77303584403E+03  0.81243147648E+02 0.  0.
         -6    2    1    2    0  501  0.85599431596E+02  0.13241855513E+03  0.43255276215E+03  0.49186937999E+03  0.17312324654E+03 0.  0.
        -24    2    5    5    0    0  0.45258210142E+01  0.35298186104E+02  0.27332792752E+03  0.28844879505E+03  0.85018271015E+02 0.  0.
          4    1    4    4  502    0 -0.78947199380E+02  0.48406296200E+01  0.32520955631E+03  0.33468992740E+03  0.00000000000E+00 0. -1.
         -3    1    4    4    0  502 -0.30390939904E+02 -0.50613878336E+02  0.43435212526E+03  0.43834591663E+03  0.00000000000E+00 0.  1.
          5    1    3    3  503    0  0.23738707688E+02 -0.86645306418E+02  0.41118780783E+03  0.42091381383E+03  0.47000000000E+01 0. -1.
         13    1    6    6    0    0  0.17223528869E+02 -0.14763752368E+02  0.21078818412E+02  0.30966674286E+02  0.00000000000E+00 0. -1.
        -14    1    6    6    0    0 -0.12697707855E+02  0.50061938473E+02  0.25224910910E+03  0.25748212076E+03  0.00000000000E+00 0.  1.
         -5    1    5    5    0  501  0.81073610582E+02  0.97120369029E+02  0.15922483464E+03  0.20342058494E+03  0.47000000000E+01 0.  1.
<mgrwt>
<rscale>  2 0.23419544E+03</rscale>
<asrwt>0</asrwt>
<pdfrwt beam="2">  1        2 0.63474464E-02 0.23419544E+03</pdfrwt>
<pdfrwt beam="1">  1       -2 0.25300928E+00 0.23419544E+03</pdfrwt>
<totfact> 0.79156837E+01</totfact>
</mgrwt>
</event>
<event>
12    1  0.5759937E-002  0.1735783E+03  0.7546771E-02  0.1174167E+00
         -2   -1    0    0    0  501 -0.00000000000E+00  0.00000000000E+00  0.20958637315E+03  0.20958637315E+03  0.00000000000E+00 0. -1.
          2   -1    0    0  503    0  0.00000000000E+00 -0.00000000000E+00 -0.21202435978E+03  0.21202435978E+03  0.00000000000E+00 0.  1.
          6    2    1    2  503    0 -0.12362566288E+02  0.15073844305E+01 -0.12083767775E+03  0.21163091859E+03  0.17329395860E+03 0.  0.
         24    2    3    3    0    0  0.21987718025E+02 -0.31332219569E+02 -0.34411201746E+01  0.84893302417E+02  0.75695863560E+02 0.  0.
         -6    2    1    2    0  501  0.12362566288E+02 -0.15073844305E+01  0.11839969112E+03  0.20997981435E+03  0.17296800376E+03 0.  0.
        -24    2    5    5    0    0 -0.30185328545E+02 -0.44304678575E+02  0.11368927570E+03  0.14926564998E+03  0.80504187798E+02 0.  0.
          4    1    4    4  502    0  0.33650378438E+02 -0.13540345340E+02  0.28766071807E+02  0.46294446840E+02  0.00000000000E+00 0. -1.
         -3    1    4    4    0  502 -0.11662660413E+02 -0.17791874229E+02 -0.32207191982E+02  0.38598855577E+02  0.00000000000E+00 0.  1.
          5    1    3    3  503    0 -0.34350284313E+02  0.32839604000E+02 -0.11739655757E+03  0.12673761617E+03  0.47000000000E+01 0. -1.
         13    1    6    6    0    0 -0.93356463207E+01 -0.19774715077E+02 -0.80799129175E+01  0.23312628366E+02  0.00000000000E+00 0. -1.
        -14    1    6    6    0    0 -0.20849682225E+02 -0.24529963498E+02  0.12176918862E+03  0.12595302162E+03  0.00000000000E+00 0.  1.
         -5    1    5    5    0  501  0.42547894834E+02  0.42797294145E+02  0.47104154180E+01  0.60714164363E+02  0.47000000000E+01 0.  1.
<mgrwt>
<rscale>  2 0.17357827E+03</rscale>
<asrwt>0</asrwt>
<pdfrwt beam="2">  1        2 0.32619132E-01 0.17357827E+03</pdfrwt>
<pdfrwt beam="1">  1       -2 0.32244058E-01 0.17357827E+03</pdfrwt>
<totfact> 0.14141245E+03</totfact>
</mgrwt>
</event>
<event>
12    1  0.5759937E-002  0.1790435E+03  0.7546771E-02  0.1168732E+00
          1   -1    0    0  503    0  0.00000000000E+00  0.00000000000E+00  0.95515137424E+03  0.95515137424E+03  0.00000000000E+00 0. -1.
         -1   -1    0    0    0  501 -0.00000000000E+00 -0.00000000000E+00 -0.33770529855E+02  0.33770529855E+02  0.00000000000E+00 0.  1.
          6    2    1    2  503    0 -0.96577870763E+01 -0.89922921261E+01  0.51030513538E+03  0.54261623078E+03  0.18397529329E+03 0.  0.
         24    2    3    3    0    0  0.67767294856E+02 -0.16424539651E+01  0.33291629829E+03  0.34887012642E+03  0.79259065912E+02 0.  0.
         -6    2    1    2    0  501  0.96577870763E+01  0.89922921261E+01  0.41107570901E+03  0.44630567332E+03  0.17329564718E+03 0.  0.
        -24    2    5    5    0    0  0.21493248409E+02 -0.59264722339E+02  0.27806983229E+03  0.29626650707E+03  0.80478223991E+02 0.  0.
          4    1    4    4  502    0  0.18761799172E+02  0.37110541760E+02  0.12176718742E+03  0.12867185143E+03  0.00000000000E+00 0. -1.
         -3    1    4    4    0  502  0.49005495685E+02 -0.38752995725E+02  0.21114911087E+03  0.22019827498E+03  0.00000000000E+00 0.  1.
          5    1    3    3  503    0 -0.77425081933E+02 -0.73498381610E+01  0.17738883708E+03  0.19374610436E+03  0.47000000000E+01 0. -1.
         11    1    6    6    0    0  0.73825774248E+01 -0.25967327886E+02  0.24734219422E+03  0.24881110427E+03  0.00000000000E+00 0. -1.
        -12    1    6    6    0    0  0.14110670984E+02 -0.33297394453E+02  0.30727638074E+02  0.47455402797E+02  0.00000000000E+00 0.  1.
         -5    1    5    5    0  501 -0.11835461333E+02  0.68257014465E+02  0.13300587672E+03  0.15003916626E+03  0.47000000000E+01 0.  1.
<mgrwt>
<rscale>  2 0.17904346E+03</rscale>
<asrwt>0</asrwt>
<pdfrwt beam="1">  1        1 0.14694634E+00 0.17904346E+03</pdfrwt>
<pdfrwt beam="2">  1       -1 0.51954669E-02 0.17904346E+03</pdfrwt>
<totfact> 0.28484798E+03</totfact>
</mgrwt>
</event>
<event>
12    1  0.5759937E-002  0.1764685E+03  0.7546771E-02  0.1171265E+00
          2   -1    0    0  503    0  0.00000000000E+00  0.00000000000E+00  0.10429268176E+04  0.10429268176E+04  0.00000000000E+00 0. -1.
         -2   -1    0    0    0  501 -0.00000000000E+00 -0.00000000000E+00 -0.39370873656E+02  0.39370873656E+02  0.00000000000E+00 0.  1.
          6    2    1    2  503    0  0.28285326687E+02 -0.27625846566E+02  0.76956132636E+03  0.78972387228E+03  0.17284649927E+03 0.  0.
         24    2    3    3    0    0  0.40975611219E+02 -0.63214616863E+02  0.30656606873E+03  0.32516569241E+03  0.77941545561E+02 0.  0.
         -6    2    1    2    0  501 -0.28285326687E+02  0.27625846566E+02  0.23399461760E+03  0.29257381899E+03  0.17112191967E+03 0.  0.
        -24    2    5    5    0    0  0.88820367030E+01 -0.43122316860E+02  0.15223276767E+03  0.17814565099E+03  0.81379559013E+02 0.  0.
          4    1    4    4  502    0  0.21033854592E+02  0.11720628415E+02  0.33188603243E+02  0.41003409061E+02  0.00000000000E+00 0. -1.
         -3    1    4    4    0  502  0.19941756627E+02 -0.74935245279E+02  0.27337746549E+03  0.28416228335E+03  0.00000000000E+00 0.  1.
          5    1    3    3  503    0 -0.12690284532E+02  0.35588770298E+02  0.46299525763E+03  0.46455817987E+03  0.47000000000E+01 0. -1.
         11    1    6    6    0    0 -0.31979942231E+02 -0.21268087042E+02  0.10576017105E+03  0.11251782975E+03  0.00000000000E+00 0. -1.
        -12    1    6    6    0    0  0.40861978934E+02 -0.21854229818E+02  0.46472596623E+02  0.65627821236E+02  0.00000000000E+00 0.  1.
         -5    1    5    5    0  501 -0.37167363390E+02  0.70748163425E+02  0.81761849921E+02  0.11442816800E+03  0.47000000000E+01 0.  1.
<mgrwt>
<rscale>  2 0.17646854E+03</rscale>
<asrwt>0</asrwt>
<pdfrwt beam="1">  1        2 0.16045026E+00 0.17646854E+03</pdfrwt>
<pdfrwt beam="2">  1       -2 0.60570583E-02 0.17646854E+03</pdfrwt>
<totfact> 0.35676091E+03</totfact>
</mgrwt>
</event>
<event>
12    1  0.5759937E-002  0.2645417E+03  0.7546771E-02  0.1104445E+00
         -2   -1    0    0    0  501 -0.00000000000E+00  0.00000000000E+00  0.11582532057E+03  0.11582532057E+03  0.00000000000E+00 0.  1.
          2   -1    0    0  503    0  0.00000000000E+00 -0.00000000000E+00 -0.60770759580E+03  0.60770759580E+03  0.00000000000E+00 0. -1.
          6    2    1    2  503    0  0.99001767983E+02  0.17332785977E+03 -0.27372388702E+03  0.38091025541E+03  0.17413775958E+03 0.  0.
         24    2    3    3    0    0  0.29849080891E+02  0.18378202637E+02 -0.46152499009E+02  0.97004783429E+02  0.77789130867E+02 0.  0.
         -6    2    1    2    0  501 -0.99001767983E+02 -0.17332785977E+03 -0.21815838821E+03  0.34262266097E+03  0.17307024130E+03 0.  0.
        -24    2    5    5    0    0 -0.57945676151E+02 -0.14562785532E+03 -0.78141640894E+02  0.19403035816E+03  0.83525386668E+02 0.  0.
          2    1    4    4  502    0  0.12295434969E+02 -0.26655386627E+02 -0.37953081490E+02  0.47980451769E+02  0.00000000000E+00 0. -1.
         -1    1    4    4    0  502  0.17553645922E+02  0.45033589263E+02 -0.81994175188E+01  0.49024331660E+02  0.00000000000E+00 0.  1.
          5    1    3    3  503    0  0.69152687092E+02  0.15494965713E+03 -0.22757138801E+03  0.28390547198E+03  0.47000000000E+01 0. -1.
         13    1    6    6    0    0  0.10780742947E+02 -0.64596774540E+02 -0.54451414218E+02  0.85169972465E+02  0.00000000000E+00 0. -1.
        -14    1    6    6    0    0 -0.68726419098E+02 -0.81031080779E+02 -0.23690226676E+02  0.10886038570E+03  0.00000000000E+00 0.  1.
         -5    1    5    5    0  501 -0.41056091831E+02 -0.27700004453E+02 -0.14001674732E+03  0.14859230281E+03  0.47000000000E+01 0.  1.
<mgrwt>
<rscale>  2 0.26454165E+03</rscale>
<asrwt>0</asrwt>
<pdfrwt beam="2">  1        2 0.93493476E-01 0.26454165E+03</pdfrwt>
<pdfrwt beam="1">  1       -2 0.17819280E-01 0.26454165E+03</pdfrwt>
<totfact> 0.12739586E+03</totfact>
</mgrwt>
</event>
<event>
12    1  0.5759937E-002  0.2387486E+03  0.7546771E-02  0.1120629E+00
          2   -1    0    0  503    0  0.00000000000E+00  0.00000000000E+00  0.21664943458E+03  0.21664943458E+03  0.00000000000E+00 0. -1.
         -2   -1    0    0    0  501 -0.00000000000E+00 -0.00000000000E+00 -0.26941240684E+03  0.26941240684E+03  0.00000000000E+00 0.  1.
          6    2    1    2  503    0  0.14621276819E+02  0.16332958098E+03  0.10845398312E+02  0.23868271670E+03  0.17309385554E+03 0.  0.
         24    2    3    3    0    0 -0.35908765371E+02  0.12463903381E+03 -0.40224482427E+02  0.15694859700E+03  0.78679889008E+02 0.  0.
         -6    2    1    2    0  501 -0.14621276819E+02 -0.16332958098E+03 -0.63608370579E+02  0.24737912472E+03  0.17395422611E+03 0.  0.
        -24    2    5    5    0    0 -0.57152597539E+02 -0.66208680304E+02  0.79752945757E+01  0.11936469699E+03  0.80835121154E+02 0.  0.
          2    1    4    4  502    0  0.77998488603E+01 -0.36882695484E+01 -0.17471487682E+02  0.19485734688E+02  0.00000000000E+00 0. -1.
         -1    1    4    4    0  502 -0.43708614231E+02  0.12832730336E+03 -0.22752994746E+02  0.13746286231E+03  0.00000000000E+00 0.  1.
          5    1    3    3  503    0  0.50530042190E+02  0.38690547167E+02  0.51069880740E+02  0.81734119697E+02  0.47000000000E+01 0. -1.
         13    1    6    6    0    0 -0.20940805232E+02 -0.67894135775E+02  0.29804883598E+02  0.77048439846E+02  0.00000000000E+00 0. -1.
        -14    1    6    6    0    0 -0.36211792307E+02  0.16854554709E+01 -0.21829589022E+02  0.42316257149E+02  0.00000000000E+00 0.  1.
         -5    1    5    5    0  501  0.42531320720E+02 -0.97120900674E+02 -0.71583665155E+02  0.12801442773E+03  0.47000000000E+01 0.  1.
<mgrwt>
<rscale>  2 0.23874865E+03</rscale>
<asrwt>0</asrwt>
<pdfrwt beam="1">  1        2 0.33330682E-01 0.23874865E+03</pdfrwt>
<pdfrwt beam="2">  1       -2 0.41448062E-01 0.23874865E+03</pdfrwt>
<totfact> 0.86803015E+02</totfact>
</mgrwt>
</event>
<event>
12    1  0.5759937E-002  0.2019640E+03  0.7546771E-02  0.1148092E+00
          1   -1    0    0  503    0  0.00000000000E+00  0.00000000000E+00  0.49554725165E+03  0.49554725165E+03  0.00000000000E+00 0. -1.
         -1   -1    0    0    0  501 -0.00000000000E+00 -0.00000000000E+00 -0.99157533641E+02  0.99157533641E+02  0.00000000000E+00 0.  1.
          6    2    1    2  503    0  0.96245804659E+02  0.42655696486E+02  0.32078376092E+03  0.37908529130E+03  0.17239684874E+03 0.  0.
         24    2    3    3    0    0  0.76234765380E+02  0.75048448787E+02  0.13535522823E+03  0.18972963961E+03  0.78944849216E+02 0.  0.
         -6    2    1    2    0  501 -0.96245804659E+02 -0.42655696486E+02  0.75605957086E+02  0.21561949398E+03  0.17231582075E+03 0.  0.
        -24    2    5    5    0    0 -0.16984726030E+02  0.32772469538E+02  0.84201076389E+01  0.87136984742E+02  0.78482101268E+02 0.  0.
          4    1    4    4  502    0  0.47537762272E+02  0.18441508991E+02  0.14154265855E+02  0.52917590058E+02  0.00000000000E+00 0. -1.
         -3    1    4    4    0  502  0.28697003108E+02  0.56606939796E+02  0.12120096238E+03  0.13681204955E+03  0.00000000000E+00 0.  1.
          5    1    3    3  503    0  0.20011039279E+02 -0.32392752301E+02  0.18542853269E+03  0.18935565170E+03  0.47000000000E+01 0. -1.
         13    1    6    6    0    0  0.15843454327E+02 -0.16134666374E+02  0.16066584115E+02  0.27739459784E+02  0.00000000000E+00 0. -1.
        -14    1    6    6    0    0 -0.32828180357E+02  0.48907135912E+02 -0.76464764764E+01  0.59397524958E+02  0.00000000000E+00 0.  1.
         -5    1    5    5    0  501 -0.79261078629E+02 -0.75428166024E+02  0.67185849448E+02  0.12848250924E+03  0.47000000000E+01 0.  1.
<mgrwt>
<rscale>  2 0.20196403E+03</rscale>
<asrwt>0</asrwt>
<pdfrwt beam="1">  1        1 0.76238037E-01 0.20196403E+03</pdfrwt>
<pdfrwt beam="2">  1       -1 0.15255005E-01 0.20196403E+03</pdfrwt>
<totfact> 0.14243200E+03</totfact>
</mgrwt>
</event>
<event>
12    1  0.5759937E-002  0.1964071E+03  0.7546771E-02  0.1152806E+00
          3   -1    0    0  503    0  0.00000000000E+00  0.00000000000E+00  0.10893707768E+04  0.10893707768E+04  0.00000000000E+00 0.  1.
         -3   -1    0    0    0  501 -0.00000000000E+00 -0.00000000000E+00 -0.37675649096E+02  0.37675649096E+02  0.00000000000E+00 0. -1.
          6    2    1    2  503    0 -0.36979782992E+02  0.86856950772E+02  0.38861863754E+03  0.43559722571E+03  0.17265243512E+03 0.  0.
         24    2    3    3    0    0  0.45202415077E+02  0.59502704021E+02  0.21335551183E+03  0.24004308557E+03  0.80723468604E+02 0.  0.
         -6    2    1    2    0  501  0.36979782992E+02 -0.86856950772E+02  0.66307649017E+03  0.69144920020E+03  0.17181365017E+03 0.  0.
        -24    2    5    5    0    0  0.39799333673E+02  0.12352554084E+02  0.40788446982E+03  0.41759607721E+03  0.79247526302E+02 0.  0.
          4    1    4    4  502    0  0.36546505780E+02 -0.32605306270E+01  0.34760012500E+02  0.50542423900E+02  0.00000000000E+00 0. -1.
         -3    1    4    4    0  502  0.86559092964E+01  0.62763234648E+02  0.17859549933E+03  0.18950066167E+03  0.00000000000E+00 0.  1.
          5    1    3    3  503    0 -0.82182198068E+02  0.27354246751E+02  0.17526312570E+03  0.19555414014E+03  0.47000000000E+01 0. -1.
         11    1    6    6    0    0  0.19100633206E+02 -0.75487351664E+00  0.15948044715E+02  0.24894661137E+02  0.00000000000E+00 0. -1.
        -12    1    6    6    0    0  0.20698700467E+02  0.13107427601E+02  0.39193642511E+03  0.39270141607E+03  0.00000000000E+00 0.  1.
         -5    1    5    5    0  501 -0.28195506809E+01 -0.99209504856E+02  0.25519202035E+03  0.27385312299E+03  0.47000000000E+01 0.  1.
<mgrwt>
<rscale>  2 0.19640713E+03</rscale>
<asrwt>0</asrwt>
<pdfrwt beam="1">  1        3 0.16759548E+00 0.19640713E+03</pdfrwt>
<pdfrwt beam="2">  1       -3 0.57962545E-02 0.19640713E+03</pdfrwt>
<totfact> 0.11371449E+02</totfact>
</mgrwt>
</event>
<event>
12    1  0.5759937E-002  0.1757866E+03  0.7546771E-02  0.1171944E+00
          1   -1    0    0  503    0  0.00000000000E+00  0.00000000000E+00  0.97316149156E+02  0.97316149156E+02  0.00000000000E+00 0.  1.
         -1   -1    0    0    0  501 -0.00000000000E+00 -0.00000000000E+00 -0.46995470521E+03  0.46995470521E+03  0.00000000000E+00 0. -1.
          6    2    1    2  503    0  0.11752133274E+01  0.35380759260E+02 -0.34774404034E+03  0.38958228646E+03  0.17203273259E+03 0.  0.
         24    2    3    3    0    0  0.58531005352E+02  0.55053783264E+02 -0.24758980869E+03  0.27240859117E+03  0.80305227318E+02 0.  0.
         -6    2    1    2    0  501 -0.11752133274E+01 -0.35380759260E+02 -0.24894515719E+02  0.17768856791E+03  0.17233778170E+03 0.  0.
        -24    2    5    5    0    0 -0.23709714062E+02 -0.85565244585E+02 -0.27034344651E+02  0.12243501455E+03  0.79849329208E+02 0.  0.
          2    1    4    4  502    0  0.50760875105E+02  0.79422448168E+01 -0.19374816821E+03  0.20044475144E+03  0.00000000000E+00 0. -1.
         -1    1    4    4    0  502  0.77701302463E+01  0.47111538447E+02 -0.53841640483E+02  0.71963839731E+02  0.00000000000E+00 0.  1.
          5    1    3    3  503    0 -0.57355792024E+02 -0.19673024004E+02 -0.10015423164E+03  0.11717369529E+03  0.47000000000E+01 0. -1.
         13    1    6    6    0    0  0.18046411012E+01 -0.35315435264E+02 -0.50282682634E+02  0.61471821758E+02  0.00000000000E+00 0. -1.
        -14    1    6    6    0    0 -0.25514355164E+02 -0.50249809322E+02  0.23248337983E+02  0.60963192791E+02  0.00000000000E+00 0.  1.
         -5    1    5    5    0  501  0.22534500735E+02  0.50184485326E+02  0.21398289324E+01  0.55253553358E+02  0.47000000000E+01 0.  1.
<mgrwt>
<rscale>  2 0.17578658E+03</rscale>
<asrwt>0</asrwt>
<pdfrwt beam="1">  1        1 0.14971715E-01 0.17578658E+03</pdfrwt>
<pdfrwt beam="2">  1       -1 0.72300723E-01 0.17578658E+03</pdfrwt>
<totfact> 0.74772158E+02</totfact>
</mgrwt>
</event>
<event>
12    1  0.5759937E-002  0.2097091E+03  0.7546771E-02  0.1141797E+00
          1   -1    0    0  503    0  0.00000000000E+00  0.00000000000E+00  0.96986146180E+03  0.96986146180E+03  0.00000000000E+00 0.  1.
         -1   -1    0    0    0  501 -0.00000000000E+00 -0.00000000000E+00 -0.46046581976E+02  0.46046581976E+02  0.00000000000E+00 0. -1.
          6    2    1    2  503    0 -0.36333613972E+02 -0.10989692859E+03  0.39632459531E+03  0.44775499481E+03  0.17324515610E+03 0.  0.
         24    2    3    3    0    0 -0.44381350561E+02 -0.62070607655E+02  0.38115127280E+03  0.39672125348E+03  0.79303187789E+02 0.  0.
         -6    2    1    2    0  501  0.36333613972E+02  0.10989692859E+03  0.52749028451E+03  0.56815304896E+03  0.17650614826E+03 0.  0.
        -24    2    5    5    0    0  0.46203290508E+02  0.55947409554E+02  0.48826263023E+03  0.50055970624E+03  0.83034732172E+02 0.  0.
          4    1    4    4  502    0  0.21439299442E+02 -0.11868897754E+02  0.12969013717E+03  0.13198502178E+03  0.00000000000E+00 0. -1.
         -3    1    4    4    0  502 -0.65820650003E+02 -0.50201709901E+02  0.25146113563E+03  0.26473623170E+03  0.00000000000E+00 0.  1.
          5    1    3    3  503    0  0.80477365886E+01 -0.47826320936E+02  0.15173322512E+02  0.51033741333E+02  0.47000000000E+01 0. -1.
         11    1    6    6    0    0  0.41462833612E+01 -0.17814832679E+01 -0.21319741405E+01  0.49910582125E+01  0.00000000000E+00 0. -1.
        -12    1    6    6    0    0  0.42057007147E+02  0.57728892822E+02  0.49039460437E+03  0.49556864803E+03  0.00000000000E+00 0.  1.
         -5    1    5    5    0  501 -0.98696765362E+01  0.53949519036E+02  0.39227654282E+02  0.67593342717E+02  0.47000000000E+01 0.  1.
<mgrwt>
<rscale>  2 0.20970914E+03</rscale>
<asrwt>0</asrwt>
<pdfrwt beam="1">  1        1 0.14920944E+00 0.20970914E+03</pdfrwt>
<pdfrwt beam="2">  1       -1 0.70840903E-02 0.20970914E+03</pdfrwt>
<totfact> 0.17458361E+03</totfact>
</mgrwt>
</event>
<event>
12    1  0.5759937E-002  0.2832182E+03  0.7546771E-02  0.1093944E+00
          1   -1    0    0  503    0  0.00000000000E+00  0.00000000000E+00  0.12409332626E+04  0.12409332626E+04  0.00000000000E+00 0.  1.
         -1   -1    0    0    0  501 -0.00000000000E+00 -0.00000000000E+00 -0.67582351013E+02  0.67582351013E+02  0.00000000000E+00 0. -1.
          6    2    1    2  503    0  0.35035773861E+02 -0.21877677049E+03  0.44623608427E+03  0.52745619489E+03  0.17318375751E+03 0.  0.
         24    2    3    3    0    0 -0.71620742327E+00 -0.51527580934E+02  0.83526071675E+02  0.12641861709E+03  0.79683483524E+02 0.  0.
         -6    2    1    2    0  501 -0.35035773861E+02  0.21877677049E+03  0.72711482727E+03  0.78105941868E+03  0.17963035019E+03 0.  0.
        -24    2    5    5    0    0 -0.43740169842E+02  0.60695284004E+02  0.17470434081E+03  0.20638998463E+03  0.80486639252E+02 0.  0.
          4    1    4    4  502    0  0.37327561066E+02 -0.36588113335E+02  0.34676198717E+02  0.62725398444E+02  0.00000000000E+00 0. -1.
         -3    1    4    4    0  502 -0.38043768489E+02 -0.14939467599E+02  0.48849872958E+02  0.63693218642E+02  0.00000000000E+00 0.  1.
          5    1    3    3  503    0  0.35751981285E+02 -0.16724918956E+03  0.36271001260E+03  0.40103757780E+03  0.47000000000E+01 0. -1.
         13    1    6    6    0    0 -0.28917279069E+02  0.31103479836E+01  0.12662421655E+03  0.12992142052E+03  0.00000000000E+00 0. -1.
        -14    1    6    6    0    0 -0.14822890772E+02  0.57584936020E+02  0.48080124258E+02  0.76468564103E+02  0.00000000000E+00 0.  1.
         -5    1    5    5    0  501  0.87043959805E+01  0.15808148649E+03  0.55241048646E+03  0.57466943405E+03  0.47000000000E+01 0.  1.
<mgrwt>
<rscale>  2 0.28321822E+03</rscale>
<asrwt>0</asrwt>
<pdfrwt beam="1">  1        1 0.19091279E+00 0.28321822E+03</pdfrwt>
<pdfrwt beam="2">  1       -1 0.10397286E-01 0.28321822E+03</pdfrwt>
<totfact> 0.61589579E+02</totfact>
</mgrwt>
</event>
<event>
12    1  0.5759937E-002  0.1999006E+03  0.7546771E-02  0.1149823E+00
          1   -1    0    0  503    0  0.00000000000E+00  0.00000000000E+00  0.16452621786E+03  0.16452621786E+03  0.00000000000E+00 0.  1.
         -1   -1    0    0    0  501 -0.00000000000E+00 -0.00000000000E+00 -0.31119435657E+03  0.31119435657E+03  0.00000000000E+00 0. -1.
          6    2    1    2  503    0  0.28722114745E+02  0.10106699956E+03 -0.18528958690E+03  0.27393741744E+03  0.17224975874E+03 0.  0.
         24    2    3    3    0    0  0.16655399240E+02  0.11868533405E+03 -0.11196557095E+03  0.19742263032E+03  0.10988992238E+03 0.  0.
         -6    2    1    2    0  501 -0.28722114745E+02 -0.10106699956E+03  0.38621448185E+02  0.20178315699E+03  0.16788486504E+03 0.  0.
        -24    2    5    5    0    0 -0.71325815643E+02 -0.62146823844E+02 -0.98845959612E+01  0.12625315152E+03  0.83021402901E+02 0.  0.
          2    1    4    4  502    0 -0.46766857609E+02  0.60563283410E+02 -0.55324020492E+02  0.94423500843E+02  0.00000000000E+00 0. -1.
         -1    1    4    4    0  502  0.63422256849E+02  0.58122050643E+02 -0.56641550455E+02  0.10299912948E+03  0.00000000000E+00 0.  1.
          5    1    3    3  503    0  0.12066715505E+02 -0.17618334493E+02 -0.73324015950E+02  0.76514787122E+02  0.47000000000E+01 0. -1.
         11    1    6    6    0    0  0.14219285610E+02 -0.17540331386E+02 -0.18777896681E+02  0.29367681422E+02  0.00000000000E+00 0. -1.
        -12    1    6    6    0    0 -0.85545101252E+02 -0.44606492459E+02  0.88933007196E+01  0.96885470094E+02  0.00000000000E+00 0.  1.
         -5    1    5    5    0  501  0.42603700898E+02 -0.38920175715E+02  0.48506044147E+02  0.75530005472E+02  0.47000000000E+01 0.  1.
<mgrwt>
<rscale>  2 0.19990062E+03</rscale>
<asrwt>0</asrwt>
<pdfrwt beam="1">  1        1 0.25311726E-01 0.19990062E+03</pdfrwt>
<pdfrwt beam="2">  1       -1 0.47876054E-01 0.19990062E+03</pdfrwt>
<totfact> 0.83735611E+02</totfact>
</mgrwt>
</event>
<event>
12    1  0.5759937E-002  0.1849447E+03  0.7546771E-02  0.1163102E+00
          2   -1    0    0  503    0  0.00000000000E+00  0.00000000000E+00  0.15641539064E+04  0.15641539064E+04  0.00000000000E+00 0.  1.
         -2   -1    0    0    0  501 -0.00000000000E+00 -0.00000000000E+00 -0.22397295399E+02  0.22397295399E+02  0.00000000000E+00 0. -1.
          6    2    1    2  503    0  0.62567424332E+02 -0.93323620222E+00  0.89114815363E+03  0.91005278291E+03  0.17359574430E+03 0.  0.
         24    2    3    3    0    0  0.88833565310E+02  0.34786055336E+02  0.78576541329E+03  0.79562643143E+03  0.80577054433E+02 0.  0.
         -6    2    1    2    0  501 -0.62567424332E+02  0.93323620222E+00  0.65060845741E+03  0.67649841893E+03  0.17447977661E+03 0.  0.
        -24    2    5    5    0    0  0.66171949796E+01  0.21847945350E+02  0.16221304790E+03  0.18276154302E+03  0.81040660854E+02 0.  0.
          4    1    4    4  502    0  0.10425866673E+03  0.27889775593E+02  0.68725644342E+03  0.69567889733E+03  0.00000000000E+00 0. -1.
         -3    1    4    4    0  502 -0.15425101419E+02  0.68962797429E+01  0.98508969871E+02  0.99947534102E+02  0.00000000000E+00 0.  1.
          5    1    3    3  503    0 -0.26266140978E+02 -0.35719291538E+02  0.10538274034E+03  0.11442635147E+03  0.47000000000E+01 0. -1.
         11    1    6    6    0    0  0.11879429951E+01 -0.30793532634E+02  0.69106405831E+02  0.75666030605E+02  0.00000000000E+00 0. -1.
        -12    1    6    6    0    0  0.54292519845E+01  0.52641477984E+02  0.93106642070E+02  0.10709551241E+03  0.00000000000E+00 0.  1.
         -5    1    5    5    0  501 -0.69184619311E+02 -0.20914709147E+02  0.48839540951E+03  0.49373687591E+03  0.47000000000E+01 0.  1.
<mgrwt>
<rscale>  2 0.18494471E+03</rscale>
<asrwt>0</asrwt>
<pdfrwt beam="1">  1        2 0.24063898E+00 0.18494471E+03</pdfrwt>
<pdfrwt beam="2">  1       -2 0.34457390E-02 0.18494471E+03</pdfrwt>
<totfact> 0.43170734E+03</totfact>
</mgrwt>
</event>
<event>
12    1  0.5759937E-002  0.2399355E+03  0.7546771E-02  0.1119836E+00
          2   -1    0    0  503    0  0.00000000000E+00  0.00000000000E+00  0.20456906822E+04  0.20456906822E+04  0.00000000000E+00 0. -1.
         -2   -1    0    0    0  501 -0.00000000000E+00 -0.00000000000E+00 -0.28328901041E+02  0.28328901041E+02  0.00000000000E+00 0.  1.
          6    2    1    2  503    0 -0.11973967124E+03  0.11322462731E+03  0.10960241784E+04  0.11221381101E+04  0.17540676600E+03 0.  0.
         24    2    3    3    0    0 -0.97318414969E+02  0.11595568574E+03  0.10813770090E+04  0.10948104505E+04  0.79480135237E+02 0.  0.
         -6    2    1    2    0  501  0.11973967124E+03 -0.11322462731E+03  0.92133760277E+03  0.95188147308E+03  0.17337230292E+03 0.  0.
        -24    2    5    5    0    0  0.97621730331E+01 -0.62675425010E+02  0.59244405342E+03  0.60139134659E+03  0.81597097964E+02 0.  0.
          4    1    4    4  502    0 -0.17743378719E+02  0.38032561984E+02  0.56513369920E+03  0.56668986336E+03  0.00000000000E+00 0. -1.
         -3    1    4    4    0  502 -0.79575036250E+02  0.77923123759E+02  0.51624330979E+03  0.52812058709E+03  0.00000000000E+00 0.  1.
          5    1    3    3  503    0 -0.22421256268E+02 -0.27310584278E+01  0.14647169362E+02  0.27327659671E+02  0.47000000000E+01 0. -1.
         11    1    6    6    0    0 -0.32714130452E+02 -0.47824163305E+02  0.30658836697E+03  0.31201569141E+03  0.00000000000E+00 0. -1.
        -12    1    6    6    0    0  0.42476303485E+02 -0.14851261705E+02  0.28585568646E+03  0.28937565518E+03  0.00000000000E+00 0.  1.
         -5    1    5    5    0  501  0.10997749820E+03 -0.50549202305E+02  0.32889354934E+03  0.35049012649E+03  0.47000000000E+01 0.  1.
<mgrwt>
<rscale>  2 0.23993553E+03</rscale>
<asrwt>0</asrwt>
<pdfrwt beam="1">  1        2 0.31472153E+00 0.23993553E+03</pdfrwt>
<pdfrwt beam="2">  1       -2 0.43582941E-02 0.23993553E+03</pdfrwt>
<totfact> 0.17001803E+03</totfact>
</mgrwt>
</event>
<event>
12    1  0.5759937E-002  0.1807938E+03  0.7546771E-02  0.1167037E+00
          2   -1    0    0  503    0  0.00000000000E+00  0.00000000000E+00  0.11402235794E+03  0.11402235794E+03  0.00000000000E+00 0. -1.
         -2   -1    0    0    0  501 -0.00000000000E+00 -0.00000000000E+00 -0.29156518863E+03  0.29156518863E+03  0.00000000000E+00 0.  1.
          6    2    1    2  503    0 -0.50351272732E+02 -0.18603178078E+02 -0.11483505617E+03  0.21380159194E+03  0.17217055988E+03 0.  0.
         24    2    3    3    0    0  0.10819185328E+02  0.47669236644E+01 -0.12481304773E+03  0.14739649492E+03  0.77509041401E+02 0.  0.
         -6    2    1    2    0  501  0.50351272732E+02  0.18603178078E+02 -0.62707774528E+02  0.19178595463E+03  0.17311342671E+03 0.  0.
        -24    2    5    5    0    0  0.68592124524E+02 -0.30877596246E+02 -0.27978705347E+01  0.11183370452E+03  0.82708185145E+02 0.  0.
          2    1    4    4  502    0  0.38950483324E+02 -0.12645478112E+02 -0.92456848300E+02  0.10112030986E+03  0.00000000000E+00 0. -1.
         -1    1    4    4    0  502 -0.28131297995E+02  0.17412401776E+02 -0.32356199427E+02  0.46276185062E+02  0.00000000000E+00 0.  1.
          5    1    3    3  503    0 -0.61170458060E+02 -0.23370101742E+02  0.99779915602E+01  0.66405097020E+02  0.47000000000E+01 0. -1.
         11    1    6    6    0    0  0.42466691910E+02  0.20838900118E+02  0.17504451791E+02  0.50438928541E+02  0.00000000000E+00 0. -1.
        -12    1    6    6    0    0  0.26125432615E+02 -0.51716496364E+02 -0.20302322325E+02  0.61394775977E+02  0.00000000000E+00 0.  1.
         -5    1    5    5    0  501 -0.18240851793E+02  0.49480774324E+02 -0.59909903993E+02  0.79952250114E+02  0.47000000000E+01 0.  1.
<mgrwt>
<rscale>  2 0.18079382E+03</rscale>
<asrwt>0</asrwt>
<pdfrwt beam="1">  1        2 0.17541901E-01 0.18079382E+03</pdfrwt>
<pdfrwt beam="2">  1       -2 0.44856183E-01 0.18079382E+03</pdfrwt>
<totfact> 0.15202359E+03</totfact>
</mgrwt>
</event>
<event>
12    1  0.5759937E-002  0.2451206E+03  0.7546771E-02  0.1116428E+00
         -1   -1    0    0    0  501 -0.00000000000E+00  0.00000000000E+00  0.50824461015E+02  0.50824461015E+02  0.00000000000E+00 0.  1.
          1   -1    0    0  503    0  0.00000000000E+00 -0.00000000000E+00 -0.12367268756E+04  0.12367268756E+04  0.00000000000E+00 0. -1.
          6    2    1    2  503    0  0.17228689142E+03 -0.16509136521E+02 -0.72760686579E+03  0.76771263151E+03  0.17325013391E+03 0.  0.
         24    2    3    3    0    0  0.19261864023E+03 -0.15396095227E+02 -0.71023538347E+03  0.74053769327E+03  0.81380556010E+02 0.  0.
         -6    2    1    2    0  501 -0.17228689142E+03  0.16509136521E+02 -0.45829554877E+03  0.51983870507E+03  0.17390268753E+03 0.  0.
        -24    2    5    5    0    0 -0.83431893582E+02 -0.57496458888E+01 -0.38525238177E+03  0.40258659089E+03  0.81624911719E+02 0.  0.
          4    1    4    4  502    0  0.95433589764E+02  0.19993079174E+02 -0.45123732345E+03  0.46165183346E+03  0.00000000000E+00 0. -1.
         -3    1    4    4    0  502  0.97185050468E+02 -0.35389174401E+02 -0.25899806003E+03  0.27888585980E+03  0.00000000000E+00 0.  1.
          5    1    3    3  503    0 -0.20331748816E+02 -0.11130412933E+01 -0.17371482311E+02  0.27174938243E+02  0.47000000000E+01 0. -1.
         11    1    6    6    0    0 -0.75764794823E+01 -0.34073496157E+02 -0.14130067104E+03  0.14554822506E+03  0.00000000000E+00 0. -1.
        -12    1    6    6    0    0 -0.75855414100E+02  0.28323850268E+02 -0.24395171073E+03  0.25703836583E+03  0.00000000000E+00 0.  1.
         -5    1    5    5    0  501 -0.88854997834E+02  0.22258782409E+02 -0.73043166998E+02  0.11725211418E+03  0.47000000000E+01 0.  1.
<mgrwt>
<rscale>  2 0.24512057E+03</rscale>
<asrwt>0</asrwt>
<pdfrwt beam="2">  1        1 0.19026568E+00 0.24512057E+03</pdfrwt>
<pdfrwt beam="1">  1       -1 0.78191475E-02 0.24512057E+03</pdfrwt>
<totfact> 0.96501630E+02</totfact>
</mgrwt>
</event>
<event>
12    1  0.5759937E-002  0.2344336E+03  0.7546771E-02  0.1123558E+00
          2   -1    0    0  503    0  0.00000000000E+00  0.00000000000E+00  0.30716317025E+03  0.30716317025E+03  0.00000000000E+00 0. -1.
         -2   -1    0    0    0  501 -0.00000000000E+00 -0.00000000000E+00 -0.32710701802E+03  0.32710701802E+03  0.00000000000E+00 0.  1.
          6    2    1    2  503    0 -0.25136658768E+02  0.15688058206E+03  0.20346439815E+03  0.31084306966E+03  0.17315393151E+03 0.  0.
         24    2    3    3    0    0 -0.47219266644E+02  0.34243325278E+02  0.13901563266E+03  0.17047472674E+03  0.79586568360E+02 0.  0.
         -6    2    1    2    0  501  0.25136658768E+02 -0.15688058206E+03 -0.22340824592E+03  0.32342711861E+03  0.17161144503E+03 0.  0.
        -24    2    5    5    0    0 -0.18820545802E+02 -0.13058293175E+03 -0.86770544609E+02  0.17742796222E+03  0.80903889630E+02 0.  0.
          2    1    4    4  502    0 -0.48852824721E+02  0.14140911159E+02  0.28835997264E+02  0.58464336050E+02  0.00000000000E+00 0. -1.
         -1    1    4    4    0  502  0.16335580764E+01  0.20102414118E+02  0.11017963540E+03  0.11201039069E+03  0.00000000000E+00 0.  1.
          5    1    3    3  503    0  0.22082607876E+02  0.12263725678E+03  0.64448765489E+02  0.14036834292E+03  0.47000000000E+01 0. -1.
         11    1    6    6    0    0 -0.71771257518E+01 -0.46502988082E+02  0.10621348970E+02  0.48237455245E+02  0.00000000000E+00 0. -1.
        -12    1    6    6    0    0 -0.11643420050E+02 -0.84079943671E+02 -0.97391893579E+02  0.12919050698E+03  0.00000000000E+00 0.  1.
         -5    1    5    5    0  501  0.43957204569E+02 -0.26297650303E+02 -0.13663770131E+03  0.14599915639E+03  0.47000000000E+01 0.  1.
<mgrwt>
<rscale>  2 0.23443360E+03</rscale>
<asrwt>0</asrwt>
<pdfrwt beam="1">  1        2 0.47255872E-01 0.23443360E+03</pdfrwt>
<pdfrwt beam="2">  1       -2 0.50324157E-01 0.23443360E+03</pdfrwt>
<totfact> 0.40640776E+02</totfact>
</mgrwt>
</event>
<event>
12    1  0.5759937E-002  0.2895213E+03  0.7546771E-02  0.1090599E+00
          4   -1    0    0  503    0  0.00000000000E+00  0.00000000000E+00  0.12306242795E+03  0.12306242795E+03  0.00000000000E+00 0. -1.
         -4   -1    0    0    0  501 -0.00000000000E+00 -0.00000000000E+00 -0.77297379300E+03  0.77297379300E+03  0.00000000000E+00 0.  1.
          6    2    1    2  503    0  0.20158758338E+03 -0.11656498722E+03 -0.47907167249E+03  0.55959972681E+03  0.17151453830E+03 0.  0.
         24    2    3    3    0    0  0.20913497089E+03 -0.97098685198E+02 -0.33956407235E+03  0.41846021969E+03  0.81483774583E+02 0.  0.
         -6    2    1    2    0  501 -0.20158758338E+03  0.11656498722E+03 -0.17083969255E+03  0.33643649413E+03  0.17256408668E+03 0.  0.
        -24    2    5    5    0    0 -0.57793107050E+02 -0.19095442253E+02 -0.43532428621E+02  0.10125606766E+03  0.68213193431E+02 0.  0.
          4    1    4    4  502    0  0.15696115552E+03 -0.56010454936E+02 -0.17831056510E+03  0.24406686180E+03  0.00000000000E+00 0. -1.
         -3    1    4    4    0  502  0.52173815367E+02 -0.41088230261E+02 -0.16125350725E+03  0.17439335789E+03  0.00000000000E+00 0.  1.
          5    1    3    3  503    0 -0.75473875066E+01 -0.19466302019E+02 -0.13950760014E+03  0.14113950712E+03  0.47000000000E+01 0. -1.
         13    1    6    6    0    0 -0.72072394001E+02 -0.21173795316E+02 -0.43543652613E+02  0.86826316679E+02  0.00000000000E+00 0. -1.
        -14    1    6    6    0    0  0.14279286951E+02  0.20783530630E+01  0.11223991393E-01  0.14429750977E+02  0.00000000000E+00 0.  1.
         -5    1    5    5    0  501 -0.14379447633E+03  0.13566042947E+03 -0.12730726393E+03  0.23518042647E+03  0.47000000000E+01 0.  1.
<mgrwt>
<rscale>  2 0.28952125E+03</rscale>
<asrwt>0</asrwt>
<pdfrwt beam="1">  1        4 0.18932681E-01 0.28952125E+03</pdfrwt>
<pdfrwt beam="2">  1       -4 0.11891905E+00 0.28952125E+03</pdfrwt>
<totfact> 0.25957937E+01</totfact>
</mgrwt>
</event>
<event>
12    1  0.5759937E-002  0.1778710E+03  0.7546771E-02  0.1169880E+00
         -2   -1    0    0    0  501 -0.00000000000E+00  0.00000000000E+00  0.27075109604E+02  0.27075109604E+02  0.00000000000E+00 0.  1.
          2   -1    0    0  503    0  0.00000000000E+00 -0.00000000000E+00 -0.12072453302E+04  0.12072453302E+04  0.00000000000E+00 0. -1.
          6    2    1    2  503    0  0.50079761291E+01 -0.41762072485E+02 -0.70103803036E+03  0.72328451882E+03  0.17296538566E+03 0.  0.
         24    2    3    3    0    0 -0.28931228547E+02  0.31384081192E+02 -0.27650963945E+03  0.29114024419E+03  0.80517603908E+02 0.  0.
         -6    2    1    2    0  501 -0.50079761291E+01  0.41762072485E+02 -0.47913219023E+03  0.51103592097E+03  0.17268730784E+03 0.  0.
        -24    2    5    5    0    0 -0.58539017664E+02  0.66161625953E+02 -0.33382997546E+03  0.35420564891E+03  0.78835346577E+02 0.  0.
          4    1    4    4  502    0 -0.30951525195E+02  0.30078363130E+02 -0.28192775341E+03  0.28521213681E+03  0.00000000000E+00 0. -1.
         -3    1    4    4    0  502  0.20202966481E+01  0.13057180624E+01  0.54181139598E+01  0.59281073781E+01  0.00000000000E+00 0.  1.
          5    1    3    3  503    0  0.33939204676E+02 -0.73146153677E+02 -0.42452839091E+03  0.43214427463E+03  0.47000000000E+01 0. -1.
         11    1    6    6    0    0 -0.19268997043E+02  0.74066977008E+02 -0.24691462978E+03  0.25850347334E+03  0.00000000000E+00 0. -1.
        -12    1    6    6    0    0 -0.39270020622E+02 -0.79053510547E+01 -0.86915345682E+02  0.95702175576E+02  0.00000000000E+00 0.  1.
         -5    1    5    5    0  501  0.53531041535E+02 -0.24399553469E+02 -0.14530221477E+03  0.15683027206E+03  0.47000000000E+01 0.  1.
<mgrwt>
<rscale>  2 0.17787096E+03</rscale>
<asrwt>0</asrwt>
<pdfrwt beam="2">  1        2 0.18573005E+00 0.17787096E+03</pdfrwt>
<pdfrwt beam="1">  1       -2 0.41654015E-02 0.17787096E+03</pdfrwt>
<totfact> 0.50575528E+03</totfact>
</mgrwt>
</event>
<event>
12    1  0.5759937E-002  0.2078668E+03  0.7546771E-02  0.1143266E+00
          1   -1    0    0  503    0  0.00000000000E+00  0.00000000000E+00  0.43508562638E+03  0.43508562638E+03  0.00000000000E+00 0. -1.
         -1   -1    0    0    0  501 -0.00000000000E+00 -0.00000000000E+00 -0.10124801759E+03  0.10124801759E+03  0.00000000000E+00 0.  1.
          6    2    1    2  503    0 -0.98237170884E+02 -0.62319811424E+02  0.13046902301E+03  0.24610029331E+03  0.17323073562E+03 0.  0.
         24    2    3    3    0    0 -0.76456065741E+02 -0.93752542000E+02  0.43915037793E+02  0.15135792977E+03  0.79659420275E+02 0.  0.
         -6    2    1    2    0  501  0.98237170884E+02  0.62319811424E+02  0.20336858578E+03  0.29023335066E+03  0.17129598803E+03 0.  0.
        -24    2    5    5    0    0  0.56708066293E+02  0.10954915132E+03  0.15231439050E+03  0.20909212852E+03  0.72821860161E+02 0.  0.
          4    1    4    4  502    0 -0.37729061428E+02 -0.71817589841E+02  0.63214550076E+02  0.10284613570E+03  0.00000000000E+00 0. -1.
         -3    1    4    4    0  502 -0.38727004312E+02 -0.21934952158E+02 -0.19299512283E+02  0.48511794066E+02  0.00000000000E+00 0.  1.
          5    1    3    3  503    0 -0.21781105143E+02  0.31432730575E+02  0.86553985217E+02  0.94742363543E+02  0.47000000000E+01 0. -1.
         11    1    6    6    0    0  0.11125139614E+02  0.66613320148E+02  0.34894353386E+02  0.76017886387E+02  0.00000000000E+00 0. -1.
        -12    1    6    6    0    0  0.45582926679E+02  0.42935831175E+02  0.11742003711E+03  0.13307424213E+03  0.00000000000E+00 0.  1.
         -5    1    5    5    0  501  0.41529104591E+02 -0.47229339898E+02  0.51054195282E+02  0.81141222146E+02  0.47000000000E+01 0.  1.
<mgrwt>
<rscale>  2 0.20786682E+03</rscale>
<asrwt>0</asrwt>
<pdfrwt beam="1">  1        1 0.66936249E-01 0.20786682E+03</pdfrwt>
<pdfrwt beam="2">  1       -1 0.15576618E-01 0.20786682E+03</pdfrwt>
<totfact> 0.16337936E+03</totfact>
</mgrwt>
</event>
<event>
12    1  0.5759937E-002  0.1871440E+03  0.7546771E-02  0.1161063E+00
         -2   -1    0    0    0  501 -0.00000000000E+00  0.00000000000E+00  0.90414547588E+02  0.90414547588E+02  0.00000000000E+00 0. -1.
          2   -1    0    0  503    0  0.00000000000E+00 -0.00000000000E+00 -0.62002557206E+03  0.62002557206E+03  0.00000000000E+00 0.  1.
          6    2    1    2  503    0 -0.67058977090E+02 -0.38629563684E+02 -0.48150024344E+03  0.51622387634E+03  0.16927922636E+03 0.  0.
         24    2    3    3    0    0 -0.32745347972E+02 -0.41985013762E+01 -0.44873957941E+03  0.45741678236E+03  0.82298344015E+02 0.  0.
         -6    2    1    2    0  501  0.67058977090E+02  0.38629563684E+02 -0.48110781033E+02  0.19421624330E+03  0.17151137663E+03 0.  0.
        -24    2    5    5    0    0 -0.20703130623E+02 -0.15846510334E+02  0.12421197069E+01  0.79640377599E+02  0.75241713001E+02 0.  0.
          4    1    4    4  502    0  0.45477016734E+01 -0.37927051589E+02 -0.20873030125E+03  0.21219679897E+03  0.00000000000E+00 0. -1.
         -3    1    4    4    0  502 -0.37293049646E+02  0.33728550212E+02 -0.24000927816E+03  0.24521998339E+03  0.00000000000E+00 0.  1.
          5    1    3    3  503    0 -0.34313629118E+02 -0.34431062308E+02 -0.32760664023E+02  0.58807093978E+02  0.47000000000E+01 0. -1.
         13    1    6    6    0    0 -0.38820361492E+02 -0.35709011341E+02  0.68966957122E+00  0.52750636028E+02  0.00000000000E+00 0. -1.
        -14    1    6    6    0    0  0.18117230869E+02  0.19862501006E+02  0.55245013567E+00  0.26889741571E+02  0.00000000000E+00 0.  1.
         -5    1    5    5    0  501  0.87762107713E+02  0.54476074019E+02 -0.49352900740E+02  0.11457586571E+03  0.47000000000E+01 0.  1.
<mgrwt>
<rscale>  2 0.18714403E+03</rscale>
<asrwt>0</asrwt>
<pdfrwt beam="2">  1        2 0.95388552E-01 0.18714403E+03</pdfrwt>
<pdfrwt beam="1">  1       -2 0.13909930E-01 0.18714403E+03</pdfrwt>
<totfact> 0.18698544E+03</totfact>
</mgrwt>
</event>
<event>
12    1  0.5759937E-002  0.2098401E+03  0.7546771E-02  0.1141693E+00
         -1   -1    0    0    0  501 -0.00000000000E+00  0.00000000000E+00  0.51951590674E+02  0.51951590674E+02  0.00000000000E+00 0.  1.
          1   -1    0    0  503    0  0.00000000000E+00 -0.00000000000E+00 -0.85416533604E+03  0.85416533604E+03  0.00000000000E+00 0. -1.
          6    2    1    2  503    0  0.10219211564E+03  0.57611991236E+02 -0.36025118921E+03  0.41662401648E+03  0.17329824508E+03 0.  0.
         24    2    3    3    0    0  0.10305533224E+03  0.99855987079E+02 -0.26024466528E+03  0.30795619624E+03  0.80734833477E+02 0.  0.
         -6    2    1    2    0  501 -0.10219211564E+03 -0.57611991236E+02 -0.44196255616E+03  0.48949291024E+03  0.17467122858E+03 0.  0.
        -24    2    5    5    0    0 -0.44412739404E+02  0.30488543204E+02 -0.15945844411E+03  0.18794552787E+03  0.83633027931E+02 0.  0.
          4    1    4    4  502    0  0.11325596983E+03  0.91365597424E+02 -0.25517391362E+03  0.29374872474E+03  0.00000000000E+00 0. -1.
         -3    1    4    4    0  502 -0.10200637598E+02  0.84903896548E+01 -0.50707516620E+01  0.14207471496E+02  0.00000000000E+00 0.  1.
          5    1    3    3  503    0 -0.86321659209E+00 -0.42243995843E+02 -0.10000652393E+03  0.10866782024E+03  0.47000000000E+01 0. -1.
         13    1    6    6    0    0  0.22884987758E+02  0.10375210857E+02 -0.21229536430E+02  0.32894693828E+02  0.00000000000E+00 0. -1.
        -14    1    6    6    0    0 -0.67297727162E+02  0.20113332347E+02 -0.13822890768E+03  0.15505083404E+03  0.00000000000E+00 0.  1.
         -5    1    5    5    0  501 -0.57779376239E+02 -0.88100534440E+02 -0.28250411205E+03  0.30154738236E+03  0.47000000000E+01 0.  1.
<mgrwt>
<rscale>  2 0.20984013E+03</rscale>
<asrwt>0</asrwt>
<pdfrwt beam="2">  1        1 0.13141004E+00 0.20984013E+03</pdfrwt>
<pdfrwt beam="1">  1       -1 0.79925530E-02 0.20984013E+03</pdfrwt>
<totfact> 0.17872593E+03</totfact>
</mgrwt>
</event>
<event>
12    1  0.5759937E-002  0.1927141E+03  0.7546771E-02  0.1156036E+00
          1   -1    0    0  503    0  0.00000000000E+00  0.00000000000E+00  0.49334724259E+03  0.49334724259E+03  0.00000000000E+00 0. -1.
         -1   -1    0    0    0  501 -0.00000000000E+00 -0.00000000000E+00 -0.76825843367E+02  0.76825843367E+02  0.00000000000E+00 0.  1.
          6    2    1    2  503    0 -0.28580459245E+02 -0.79933179176E+02  0.24899441668E+03  0.31502449964E+03  0.17330914591E+03 0.  0.
         24    2    3    3    0    0 -0.47711330799E+02  0.21230455964E+02  0.12115585086E+03  0.15081469412E+03  0.73070024066E+02 0.  0.
         -6    2    1    2    0  501  0.28580459245E+02  0.79933179176E+02  0.16752698254E+03  0.25514858631E+03  0.17271176981E+03 0.  0.
        -24    2    5    5    0    0  0.59894632884E+02  0.10714681221E+01  0.12532170625E+03  0.16026380203E+03  0.79940234498E+02 0.  0.
          4    1    4    4  502    0 -0.26178565088E+02  0.47191387685E+02  0.89766472192E+02  0.10473950483E+03  0.00000000000E+00 0. -1.
         -3    1    4    4    0  502 -0.21532765711E+02 -0.25960931720E+02  0.31389378671E+02  0.46075189292E+02  0.00000000000E+00 0.  1.
          5    1    3    3  503    0  0.19130871554E+02 -0.10116363514E+03  0.12783856581E+03  0.16420980553E+03  0.47000000000E+01 0. -1.
         11    1    6    6    0    0  0.21716683195E+02 -0.38171644342E+02  0.43498210203E+02  0.61812482975E+02  0.00000000000E+00 0. -1.
        -12    1    6    6    0    0  0.38177949689E+02  0.39243112464E+02  0.81823496047E+02  0.98451319055E+02  0.00000000000E+00 0.  1.
         -5    1    5    5    0  501 -0.31314173639E+02  0.78861711054E+02  0.42205276293E+02  0.94884784280E+02  0.47000000000E+01 0.  1.
<mgrwt>
<rscale>  2 0.19271409E+03</rscale>
<asrwt>0</asrwt>
<pdfrwt beam="1">  1        1 0.75899574E-01 0.19271409E+03</pdfrwt>
<pdfrwt beam="2">  1       -1 0.11819361E-01 0.19271409E+03</pdfrwt>
<totfact> 0.21363640E+03</totfact>
</mgrwt>
</event>
<event>
12    1  0.5759937E-002  0.1781495E+03  0.7546771E-02  0.1169606E+00
         -1   -1    0    0    0  501 -0.00000000000E+00  0.00000000000E+00  0.13714298865E+03  0.13714298865E+03  0.00000000000E+00 0. -1.
          1   -1    0    0  503    0  0.00000000000E+00 -0.00000000000E+00 -0.23324855098E+03  0.23324855098E+03  0.00000000000E+00 0.  1.
          6    2    1    2  503    0  0.12220534215E+02  0.41010210240E+02 -0.64523276647E+02  0.18969261957E+03  0.17317291327E+03 0.  0.
         24    2    3    3    0    0  0.65160610956E+02  0.14515105755E+02 -0.43973048578E+01  0.10518306525E+03  0.81163707474E+02 0.  0.
         -6    2    1    2    0  501 -0.12220534215E+02 -0.41010210240E+02 -0.31582285691E+02  0.18069892006E+03  0.17269476003E+03 0.  0.
        -24    2    5    5    0    0 -0.16989625479E+02 -0.22826602147E+02  0.48454496958E+02  0.98349879923E+02  0.80716537747E+02 0.  0.
          2    1    4    4  502    0  0.73630598441E+02  0.35002322671E+02  0.36243232414E+01  0.81607373062E+02  0.00000000000E+00 0. -1.
         -1    1    4    4    0  502 -0.84699874850E+01 -0.20487216916E+02 -0.80216280992E+01  0.23575692192E+02  0.00000000000E+00 0.  1.
          5    1    3    3  503    0 -0.52940076741E+02  0.26495104485E+02 -0.60125971789E+02  0.84509554315E+02  0.47000000000E+01 0. -1.
         13    1    6    6    0    0 -0.30693533635E+02  0.19259178911E+02  0.54597772588E+01  0.36644483173E+02  0.00000000000E+00 0. -1.
        -14    1    6    6    0    0  0.13703908156E+02 -0.42085781058E+02  0.42994719699E+02  0.61705396749E+02  0.00000000000E+00 0.  1.
         -5    1    5    5    0  501  0.47690912637E+01 -0.18183608092E+02 -0.80036782649E+02  0.82349040138E+02  0.47000000000E+01 0.  1.
<mgrwt>
<rscale>  2 0.17814949E+03</rscale>
<asrwt>0</asrwt>
<pdfrwt beam="2">  1        1 0.35884393E-01 0.17814949E+03</pdfrwt>
<pdfrwt beam="1">  1       -1 0.21098921E-01 0.17814949E+03</pdfrwt>
<totfact> 0.21921984E+03</totfact>
</mgrwt>
</event>
<event>
12    1  0.5759937E-002  0.2953732E+03  0.7546771E-02  0.1087577E+00
          2   -1    0    0  503    0  0.00000000000E+00  0.00000000000E+00  0.37911044496E+03  0.37911044496E+03  0.00000000000E+00 0.  1.
         -2   -1    0    0    0  501 -0.00000000000E+00 -0.00000000000E+00 -0.24670058410E+03  0.24670058410E+03  0.00000000000E+00 0. -1.
          6    2    1    2  503    0  0.12272964928E+03 -0.20554485264E+03 -0.14826793916E+02  0.29602778541E+03  0.17349744279E+03 0.  0.
         24    2    3    3    0    0  0.12510703377E+03 -0.10130714678E+03 -0.49225429000E+02  0.18613462194E+03  0.79423212843E+02 0.  0.
         -6    2    1    2    0  501 -0.12272964928E+03  0.20554485264E+03  0.14723665477E+03  0.32978324365E+03  0.17253145228E+03 0.  0.
        -24    2    5    5    0    0 -0.89760551461E+01  0.11462235684E+03  0.31550562433E+02  0.14373985521E+03  0.80292301828E+02 0.  0.
          4    1    4    4  502    0  0.10172406664E+02 -0.44837501690E+01 -0.33186535766E+02  0.34998971829E+02  0.00000000000E+00 0. -1.
         -3    1    4    4    0  502  0.11493462711E+03 -0.96823396607E+02 -0.16038893234E+02  0.15113565011E+03  0.00000000000E+00 0.  1.
          5    1    3    3  503    0 -0.23773844877E+01 -0.10423770587E+03  0.34398635084E+02  0.10989316347E+03  0.47000000000E+01 0. -1.
         13    1    6    6    0    0 -0.42116765502E+02  0.53943403487E+02  0.17726723324E+01  0.68460609721E+02  0.00000000000E+00 0. -1.
        -14    1    6    6    0    0  0.33140710356E+02  0.60678953351E+02  0.29777890100E+02  0.75279245490E+02  0.00000000000E+00 0.  1.
         -5    1    5    5    0  501 -0.11375359414E+03  0.90922495804E+02  0.11568609234E+03  0.18604338844E+03  0.47000000000E+01 0.  1.
<mgrwt>
<rscale>  2 0.29537320E+03</rscale>
<asrwt>0</asrwt>
<pdfrwt beam="1">  1        2 0.58324684E-01 0.29537320E+03</pdfrwt>
<pdfrwt beam="2">  1       -2 0.37953936E-01 0.29537320E+03</pdfrwt>
<totfact> 0.56018934E+02</totfact>
</mgrwt>
</event>
<event>
12    1  0.5759937E-002  0.1750654E+03  0.7546771E-02  0.1172666E+00
         -1   -1    0    0    0  501 -0.00000000000E+00  0.00000000000E+00  0.58619724961E+02  0.58619724961E+02  0.00000000000E+00 0. -1.
          1   -1    0    0  503    0  0.00000000000E+00 -0.00000000000E+00 -0.59405010794E+03  0.59405010794E+03  0.00000000000E+00 0.  1.
          6    2    1    2  503    0  0.75435144317E+01 -0.22270086192E+02 -0.38050557768E+03  0.41878246447E+03  0.17332454110E+03 0.  0.
         24    2    3    3    0    0 -0.57154002095E+01 -0.15109062664E+02 -0.39156083292E+03  0.39951104149E+03  0.77641720900E+02 0.  0.
         -6    2    1    2    0  501 -0.75435144317E+01  0.22270086192E+02 -0.15492480530E+03  0.23388736843E+03  0.17363393812E+03 0.  0.
        -24    2    5    5    0    0  0.40505508206E+02 -0.36556736432E+02 -0.66048633439E+02  0.11688152430E+03  0.79509606785E+02 0.  0.
          2    1    4    4  502    0 -0.37257088093E+02 -0.25792369761E+02 -0.19920947745E+03  0.20429819592E+03  0.00000000000E+00 0. -1.
         -1    1    4    4    0  502  0.31541687884E+02  0.10683307097E+02 -0.19235135547E+03  0.19521284557E+03  0.00000000000E+00 0.  1.
          5    1    3    3  503    0  0.13258914641E+02 -0.71610235280E+01  0.11055255231E+02  0.19271422980E+02  0.47000000000E+01 0. -1.
         13    1    6    6    0    0  0.56954631223E+02 -0.12237616060E+02 -0.18724546995E+02  0.61189851485E+02  0.00000000000E+00 0. -1.
        -14    1    6    6    0    0 -0.16449123017E+02 -0.24319120372E+02 -0.47324086444E+02  0.55691672820E+02  0.00000000000E+00 0.  1.
         -5    1    5    5    0  501 -0.48049022637E+02  0.58826822624E+02 -0.88876171858E+02  0.11700584413E+03  0.47000000000E+01 0.  1.
<mgrwt>
<rscale>  2 0.17506537E+03</rscale>
<asrwt>0</asrwt>
<pdfrwt beam="2">  1        1 0.91392325E-01 0.17506537E+03</pdfrwt>
<pdfrwt beam="1">  1       -1 0.90184192E-02 0.17506537E+03</pdfrwt>
<totfact> 0.25195580E+03</totfact>
</mgrwt>
</event>
<event>
12    1  0.5759937E-002  0.2019807E+03  0.7546771E-02  0.1148079E+00
         -2   -1    0    0    0  501 -0.00000000000E+00  0.00000000000E+00  0.80481078144E+02  0.80481078144E+02  0.00000000000E+00 0.  1.
          2   -1    0    0  503    0  0.00000000000E+00 -0.00000000000E+00 -0.97560889922E+03  0.97560889922E+03  0.00000000000E+00 0. -1.
          6    2    1    2  503    0 -0.10107796198E+03 -0.27723361713E+02 -0.80882285225E+02  0.21702364363E+03  0.17196505066E+03 0.  0.
         24    2    3    3    0    0 -0.60111031152E+02 -0.40237826387E+02 -0.11724072997E+03  0.16064166289E+03  0.82631327904E+02 0.  0.
         -6    2    1    2    0  501  0.10107796198E+03  0.27723361713E+02 -0.81424553585E+03  0.83906633374E+03  0.17335276339E+03 0.  0.
        -24    2    5    5    0    0  0.20305740729E+02  0.24393743903E+02 -0.65033695922E+03  0.65624579448E+03  0.81932926210E+02 0.  0.
          2    1    4    4  502    0 -0.34649856152E+02  0.65656532157E+01 -0.97734348345E+02  0.10390246956E+03  0.00000000000E+00 0. -1.
         -1    1    4    4    0  502 -0.25461175000E+02 -0.46803479603E+02 -0.19506381629E+02  0.56739193329E+02  0.00000000000E+00 0.  1.
          5    1    3    3  503    0 -0.40966930830E+02  0.12514464675E+02  0.36358444750E+02  0.56381980742E+02  0.47000000000E+01 0. -1.
         13    1    6    6    0    0  0.45372675987E+02 -0.48304853511E+01 -0.44475613917E+03  0.44709063583E+03  0.00000000000E+00 0. -1.
        -14    1    6    6    0    0 -0.25066935258E+02  0.29224229254E+02 -0.20558082005E+03  0.20915515865E+03  0.00000000000E+00 0.  1.
         -5    1    5    5    0  501  0.80772221253E+02  0.33296178095E+01 -0.16390857664E+03  0.18282053926E+03  0.47000000000E+01 0.  1.
<mgrwt>
<rscale>  2 0.20198073E+03</rscale>
<asrwt>0</asrwt>
<pdfrwt beam="2">  1        2 0.15009367E+00 0.20198073E+03</pdfrwt>
<pdfrwt beam="1">  1       -2 0.12381705E-01 0.20198073E+03</pdfrwt>
<totfact> 0.12790350E+03</totfact>
</mgrwt>
</event>
<event>
12    1  0.5759937E-002  0.2099240E+03  0.7546771E-02  0.1141626E+00
          1   -1    0    0  503    0  0.00000000000E+00  0.00000000000E+00  0.71529265186E+03  0.71529265186E+03  0.00000000000E+00 0.  1.
         -1   -1    0    0    0  501 -0.00000000000E+00 -0.00000000000E+00 -0.62537089429E+02  0.62537089429E+02  0.00000000000E+00 0. -1.
          6    2    1    2  503    0  0.84011453068E+01 -0.11944881173E+03  0.37424597730E+03  0.42925486490E+03  0.17280361584E+03 0.  0.
         24    2    3    3    0    0 -0.49870993295E+01 -0.14631024815E+03  0.24791195699E+03  0.29931966355E+03  0.81855743214E+02 0.  0.
         -6    2    1    2    0  501 -0.84011453068E+01  0.11944881173E+03  0.27850958513E+03  0.34857487639E+03  0.17204144145E+03 0.  0.
        -24    2    5    5    0    0  0.42381764332E+02  0.19870004373E+02  0.15990360508E+03  0.18552791602E+03  0.81611357547E+02 0.  0.
          4    1    4    4  502    0 -0.17848179769E+02 -0.41563204925E+02  0.22705097020E+02  0.50612043581E+02  0.00000000000E+00 0. -1.
         -3    1    4    4    0  502  0.12861080440E+02 -0.10474704322E+03  0.22520685997E+03  0.24870761997E+03  0.00000000000E+00 0.  1.
          5    1    3    3  503    0  0.13388244636E+02  0.26861436420E+02  0.12633402031E+03  0.12993520135E+03  0.47000000000E+01 0. -1.
         13    1    6    6    0    0 -0.36593358181E+01  0.40196907181E+02  0.47248606807E+02  0.62141877431E+02  0.00000000000E+00 0. -1.
        -14    1    6    6    0    0  0.46041100150E+02 -0.20326902807E+02  0.11265499828E+03  0.12338603859E+03  0.00000000000E+00 0.  1.
         -5    1    5    5    0  501 -0.50782909639E+02  0.99578807354E+02  0.11860598005E+03  0.16304696038E+03  0.47000000000E+01 0.  1.
<mgrwt>
<rscale>  2 0.20992398E+03</rscale>
<asrwt>0</asrwt>
<pdfrwt beam="1">  1        1 0.11004502E+00 0.20992398E+03</pdfrwt>
<pdfrwt beam="2">  1       -1 0.96210912E-02 0.20992398E+03</pdfrwt>
<totfact> 0.17609665E+03</totfact>
</mgrwt>
</event>
<event>
12    1  0.5759937E-002  0.2197195E+03  0.7546771E-02  0.1134092E+00
          1   -1    0    0  503    0  0.00000000000E+00  0.00000000000E+00  0.21221467230E+04  0.21221467230E+04  0.00000000000E+00 0.  1.
         -1   -1    0    0    0  501 -0.00000000000E+00 -0.00000000000E+00 -0.24808781041E+02  0.24808781041E+02  0.00000000000E+00 0. -1.
          6    2    1    2  503    0  0.19561446106E+02  0.13345071355E+03  0.13545983181E+04  0.13721794767E+04  0.17247657728E+03 0.  0.
         24    2    3    3    0    0 -0.10167476164E+02  0.50141095595E+02  0.10680158640E+04  0.10722196556E+04  0.79872379945E+02 0.  0.
         -6    2    1    2    0  501 -0.19561446106E+02 -0.13345071355E+03  0.74273962383E+03  0.77477602733E+03  0.17442477059E+03 0.  0.
        -24    2    5    5    0    0 -0.18024385841E+02 -0.16469920082E+03  0.56172362605E+03  0.59101609709E+03  0.79472572078E+02 0.  0.
          2    1    4    4  502    0 -0.34271630220E+02  0.65975718319E+01  0.22062227436E+03  0.22336575507E+03  0.00000000000E+00 0. -1.
         -1    1    4    4    0  502  0.24104154057E+02  0.43543523763E+02  0.84739358961E+03  0.84885390051E+03  0.00000000000E+00 0.  1.
          5    1    3    3  503    0  0.29728922270E+02  0.83309617954E+02  0.28658245417E+03  0.29995982115E+03  0.47000000000E+01 0. -1.
         11    1    6    6    0    0  0.17924880529E+02 -0.60758991541E+02  0.11871202441E+03  0.13455668372E+03  0.00000000000E+00 0. -1.
        -12    1    6    6    0    0 -0.35949266369E+02 -0.10394020928E+03  0.44301160164E+03  0.45645941336E+03  0.00000000000E+00 0.  1.
         -5    1    5    5    0  501 -0.15370602657E+01  0.31248487276E+02  0.18101599778E+03  0.18375993024E+03  0.47000000000E+01 0.  1.
<mgrwt>
<rscale>  2 0.21971947E+03</rscale>
<asrwt>0</asrwt>
<pdfrwt beam="1">  1        1 0.32648397E+00 0.21971947E+03</pdfrwt>
<pdfrwt beam="2">  1       -1 0.38167372E-02 0.21971947E+03</pdfrwt>
<totfact> 0.74574473E+02</totfact>
</mgrwt>
</event>
<event>
12    1  0.5759937E-002  0.3174370E+03  0.7546771E-02  0.1076835E+00
         -2   -1    0    0    0  501 -0.00000000000E+00  0.00000000000E+00  0.10291489726E+03  0.10291489726E+03  0.00000000000E+00 0. -1.
          2   -1    0    0  503    0  0.00000000000E+00 -0.00000000000E+00 -0.10238571136E+04  0.10238571136E+04  0.00000000000E+00 0.  1.
          6    2    1    2  503    0  0.21967981244E+03  0.15137848546E+03 -0.57869423003E+03  0.66020048631E+03  0.17263546680E+03 0.  0.
         24    2    3    3    0    0  0.15761121867E+03  0.16531505655E+03 -0.36944154059E+03  0.44144144904E+03  0.78823453668E+02 0.  0.
         -6    2    1    2    0  501 -0.21967981244E+03 -0.15137848546E+03 -0.34224798632E+03  0.46657152457E+03  0.17140781062E+03 0.  0.
        -24    2    5    5    0    0 -0.23234938923E+03 -0.10389352695E+03 -0.30061043963E+03  0.40198735657E+03  0.80293803069E+02 0.  0.
          4    1    4    4  502    0  0.16925667381E+02  0.51109152046E+02 -0.46520735295E+02  0.71153372734E+02  0.00000000000E+00 0. -1.
         -3    1    4    4    0  502  0.14068555129E+03  0.11420590451E+03 -0.32292080529E+03  0.37028807631E+03  0.00000000000E+00 0.  1.
          5    1    3    3  503    0  0.62068593770E+02 -0.13936571089E+02 -0.20925268945E+03  0.21875903727E+03  0.47000000000E+01 0. -1.
         11    1    6    6    0    0 -0.18554175147E+03 -0.74090907553E+02 -0.27735751913E+03  0.34182217239E+03  0.00000000000E+00 0. -1.
        -12    1    6    6    0    0 -0.46807637760E+02 -0.29802619395E+02 -0.23252920498E+02  0.60165184178E+02  0.00000000000E+00 0.  1.
         -5    1    5    5    0  501  0.12669576791E+02 -0.47484958516E+02 -0.41637546685E+02  0.64584167993E+02  0.47000000000E+01 0.  1.
<mgrwt>
<rscale>  2 0.31743703E+03</rscale>
<asrwt>0</asrwt>
<pdfrwt beam="2">  1        2 0.15751648E+00 0.31743703E+03</pdfrwt>
<pdfrwt beam="1">  1       -2 0.15833061E-01 0.31743703E+03</pdfrwt>
<totfact> 0.79420131E+02</totfact>
</mgrwt>
</event>
<event>
12    1  0.5759937E-002  0.1843093E+03  0.7546771E-02  0.1163696E+00
         -2   -1    0    0    0  501 -0.00000000000E+00  0.00000000000E+00  0.14540823182E+03  0.14540823182E+03  0.00000000000E+00 0. -1.
          2   -1    0    0  503    0  0.00000000000E+00 -0.00000000000E+00 -0.25254116415E+03  0.25254116415E+03  0.00000000000E+00 0.  1.
          6    2    1    2  503    0  0.48411995489E+02  0.51517936783E+02  0.10999671894E+01  0.18354881473E+03  0.16938458709E+03 0.  0.
         24    2    3    3    0    0 -0.31363399743E+02 -0.62164279699E+01  0.10308410143E+02  0.84532371752E+02  0.77570301882E+02 0.  0.
         -6    2    1    2    0  501 -0.48411995489E+02 -0.51517936783E+02 -0.10823289952E+03  0.21440058124E+03  0.17104218655E+03 0.  0.
        -24    2    5    5    0    0  0.37509844226E+02 -0.35420166258E+02 -0.24070927401E+02  0.92963238105E+02  0.73492703730E+02 0.  0.
          4    1    4    4  502    0 -0.45042967496E+02 -0.65932264878E+01 -0.21172486635E+02  0.50205714283E+02  0.00000000000E+00 0. -1.
         -3    1    4    4    0  502  0.13679567753E+02  0.37679851789E+00  0.31480896778E+02  0.34326657469E+02  0.00000000000E+00 0.  1.
          5    1    3    3  503    0  0.79775395233E+02  0.57734364753E+02 -0.92084429536E+01  0.99016442976E+02  0.47000000000E+01 0. -1.
         13    1    6    6    0    0  0.33889116253E+02  0.81244902930E+01  0.11417718910E+02  0.36672112675E+02  0.00000000000E+00 0. -1.
        -14    1    6    6    0    0  0.36207279723E+01 -0.43544656551E+02 -0.35488646311E+02  0.56291125430E+02  0.00000000000E+00 0.  1.
         -5    1    5    5    0  501 -0.85921839715E+02 -0.16097770525E+02 -0.84161972123E+02  0.12143734313E+03  0.47000000000E+01 0.  1.
<mgrwt>
<rscale>  2 0.18430934E+03</rscale>
<asrwt>0</asrwt>
<pdfrwt beam="2">  1        2 0.38852487E-01 0.18430934E+03</pdfrwt>
<pdfrwt beam="1">  1       -2 0.22370497E-01 0.18430934E+03</pdfrwt>
<totfact> 0.22467280E+03</totfact>
</mgrwt>
</event>
<event>
12    1  0.5759937E-002  0.2496099E+03  0.7546771E-02  0.1113552E+00
          2   -1    0    0  503    0  0.00000000000E+00  0.00000000000E+00  0.13334551608E+04  0.13334551608E+04  0.00000000000E+00 0. -1.
         -2   -1    0    0    0  501 -0.00000000000E+00 -0.00000000000E+00 -0.47823678242E+02  0.47823678242E+02  0.00000000000E+00 0.  1.
          6    2    1    2  503    0 -0.62523594601E+02  0.17185844158E+03  0.75328205751E+03  0.79431418673E+03  0.17336852439E+03 0.  0.
         24    2    3    3    0    0 -0.83419125479E+02  0.14152412420E+03  0.41119720086E+03  0.45021982006E+03  0.81405897564E+02 0.  0.
         -6    2    1    2    0  501  0.62523594601E+02 -0.17185844158E+03  0.53234942504E+03  0.58696465230E+03  0.16639431747E+03 0.  0.
        -24    2    5    5    0    0  0.47021715391E+02 -0.19741946750E+03  0.46452544831E+03  0.51269584239E+03  0.76731002974E+02 0.  0.
          2    1    4    4  502    0 -0.34714793549E+02  0.21806589988E+02  0.40457046176E+02  0.57597021133E+02  0.00000000000E+00 0. -1.
         -1    1    4    4    0  502 -0.48704331930E+02  0.11971753421E+03  0.37074015468E+03  0.39262279893E+03  0.00000000000E+00 0.  1.
          5    1    3    3  503    0  0.20895530878E+02  0.30334317382E+02  0.34208485665E+03  0.34409436666E+03  0.47000000000E+01 0. -1.
         11    1    6    6    0    0  0.47295347726E+02 -0.19289872498E+03  0.46703926410E+03  0.50751595268E+03  0.00000000000E+00 0. -1.
        -12    1    6    6    0    0 -0.27363233483E+00 -0.45207425238E+01 -0.25138157921E+01  0.51798897148E+01  0.00000000000E+00 0.  1.
         -5    1    5    5    0  501  0.15501879210E+02  0.25561025919E+02  0.67823976734E+02  0.74268809907E+02  0.47000000000E+01 0.  1.
<mgrwt>
<rscale>  2 0.24960993E+03</rscale>
<asrwt>0</asrwt>
<pdfrwt beam="1">  1        2 0.20514692E+00 0.24960993E+03</pdfrwt>
<pdfrwt beam="2">  1       -2 0.73574900E-02 0.24960993E+03</pdfrwt>
<totfact> 0.18137603E+03</totfact>
</mgrwt>
</event>
<event>
12    1  0.5759937E-002  0.1826282E+03  0.7546771E-02  0.1165283E+00
          1   -1    0    0  503    0  0.00000000000E+00  0.00000000000E+00  0.67018663273E+03  0.67018663273E+03  0.00000000000E+00 0.  1.
         -1   -1    0    0    0  501 -0.00000000000E+00 -0.00000000000E+00 -0.58356023207E+02  0.58356023207E+02  0.00000000000E+00 0. -1.
          6    2    1    2  503    0  0.12888977012E+02 -0.17356510125E+02  0.15473427110E+03  0.23292450853E+03  0.17275345973E+03 0.  0.
         24    2    3    3    0    0 -0.19959619939E+02 -0.71983810173E+02  0.79131557106E+02  0.13392434390E+03  0.78063251306E+02 0.  0.
         -6    2    1    2    0  501 -0.12888977012E+02  0.17356510125E+02  0.45709633842E+03  0.49561814741E+03  0.19034944516E+03 0.  0.
        -24    2    5    5    0    0 -0.78767203146E+02  0.40791460627E+02  0.31009700345E+03  0.33276842507E+03  0.81892964440E+02 0.  0.
          2    1    4    4  502    0 -0.45598341115E+02 -0.49348437522E+02  0.72935193640E+02  0.99166624777E+02  0.00000000000E+00 0. -1.
         -1    1    4    4    0  502  0.25638721176E+02 -0.22635372651E+02  0.61963634650E+01  0.34757719125E+02  0.00000000000E+00 0.  1.
          5    1    3    3  503    0  0.32848596952E+02  0.54627300048E+02  0.75602713995E+02  0.99000164624E+02  0.47000000000E+01 0. -1.
         13    1    6    6    0    0 -0.42731241215E+02  0.64583600586E+02  0.19239977016E+03  0.20739978784E+03  0.00000000000E+00 0. -1.
        -14    1    6    6    0    0 -0.36035961932E+02 -0.23792139959E+02  0.11769723329E+03  0.12536863723E+03  0.00000000000E+00 0.  1.
         -5    1    5    5    0  501  0.65878226134E+02 -0.23434950502E+02  0.14699933498E+03  0.16284972234E+03  0.47000000000E+01 0.  1.
<mgrwt>
<rscale>  2 0.18262823E+03</rscale>
<asrwt>0</asrwt>
<pdfrwt beam="1">  1        1 0.10310563E+00 0.18262823E+03</pdfrwt>
<pdfrwt beam="2">  1       -1 0.89778502E-02 0.18262823E+03</pdfrwt>
<totfact> 0.21461481E+03</totfact>
</mgrwt>
</event>
<event>
12    1  0.5759937E-002  0.1854040E+03  0.7546771E-02  0.1162673E+00
         -2   -1    0    0    0  501 -0.00000000000E+00  0.00000000000E+00  0.66329448180E+03  0.66329448180E+03  0.00000000000E+00 0.  1.
          2   -1    0    0  503    0  0.00000000000E+00 -0.00000000000E+00 -0.21559349853E+03  0.21559349853E+03  0.00000000000E+00 0. -1.
          6    2    1    2  503    0  0.60784802134E+02  0.19626647479E+02  0.60699532079E+03  0.63482340399E+03  0.17457788330E+03 0.  0.
         24    2    3    3    0    0  0.76199672764E+02 -0.44977845002E+02  0.40716627187E+03  0.42419316524E+03  0.79536606780E+02 0.  0.
         -6    2    1    2    0  501 -0.60784802134E+02 -0.19626647479E+02 -0.15929433752E+03  0.24406457634E+03  0.17353049876E+03 0.  0.
        -24    2    5    5    0    0 -0.85538502176E+02  0.32608724444E+02 -0.79693563657E+02  0.14557776025E+03  0.80384425891E+02 0.  0.
          2    1    4    4  502    0  0.32163995586E+02 -0.20761743456E+02  0.47376778423E+02  0.60910850733E+02  0.00000000000E+00 0. -1.
         -1    1    4    4    0  502  0.44035677178E+02 -0.24216101546E+02  0.35978949345E+03  0.36328231451E+03  0.00000000000E+00 0.  1.
          5    1    3    3  503    0 -0.15414870629E+02  0.64604492481E+02  0.19982904892E+03  0.21063023875E+03  0.47000000000E+01 0. -1.
         13    1    6    6    0    0 -0.14740825077E+02  0.18384955287E+02 -0.68579470447E+02  0.72515117538E+02  0.00000000000E+00 0. -1.
        -14    1    6    6    0    0 -0.70797677099E+02  0.14223769157E+02 -0.11114093211E+02  0.73062642708E+02  0.00000000000E+00 0.  1.
         -5    1    5    5    0  501  0.24753700041E+02 -0.52235371923E+02 -0.79600773859E+02  0.98486816096E+02  0.47000000000E+01 0.  1.
<mgrwt>
<rscale>  2 0.18540402E+03</rscale>
<asrwt>0</asrwt>
<pdfrwt beam="2">  1        2 0.33168231E-01 0.18540402E+03</pdfrwt>
<pdfrwt beam="1">  1       -2 0.10204530E+00 0.18540402E+03</pdfrwt>
<totfact> 0.13012111E+02</totfact>
</mgrwt>
</event>
<event>
12    1  0.5759937E-002  0.1820215E+03  0.7546771E-02  0.1165861E+00
          1   -1    0    0  503    0  0.00000000000E+00  0.00000000000E+00  0.35974105261E+03  0.35974105261E+03  0.00000000000E+00 0. -1.
         -1   -1    0    0    0  501 -0.00000000000E+00 -0.00000000000E+00 -0.11694607310E+03  0.11694607310E+03  0.00000000000E+00 0.  1.
          6    2    1    2  503    0 -0.57025913854E+02  0.37550810922E+00  0.22978115542E+03  0.29147751490E+03  0.17002254688E+03 0.  0.
         24    2    3    3    0    0 -0.84453945421E+02 -0.28512001089E+02  0.10278626428E+03  0.15829877230E+03  0.80920220492E+02 0.  0.
         -6    2    1    2    0  501  0.57025913854E+02 -0.37550810922E+00  0.13013824088E+02  0.18520961081E+03  0.17573031742E+03 0.  0.
        -24    2    5    5    0    0  0.19931267378E+02  0.66336870705E+02  0.90727313863E+01  0.10863169953E+03  0.83190719755E+02 0.  0.
          2    1    4    4  502    0 -0.69913340746E+02 -0.16147776157E+02  0.11506435712E+03  0.13560395337E+03  0.00000000000E+00 0. -1.
         -1    1    4    4    0  502 -0.14540604675E+02 -0.12364224932E+02 -0.12278092845E+02  0.22694818933E+02  0.00000000000E+00 0.  1.
          5    1    3    3  503    0  0.27428031567E+02  0.28887509198E+02  0.12699489114E+03  0.13317874260E+03  0.47000000000E+01 0. -1.
         13    1    6    6    0    0  0.34627421794E+02  0.31140107243E+02  0.38527137279E+02  0.60440920957E+02  0.00000000000E+00 0. -1.
        -14    1    6    6    0    0 -0.14696154416E+02  0.35196763462E+02 -0.29454405893E+02  0.48190778571E+02  0.00000000000E+00 0.  1.
         -5    1    5    5    0  501  0.37094646476E+02 -0.66712378815E+02  0.39410927021E+01  0.76577911280E+02  0.47000000000E+01 0.  1.
<mgrwt>
<rscale>  2 0.18202146E+03</rscale>
<asrwt>0</asrwt>
<pdfrwt beam="1">  1        1 0.55344777E-01 0.18202146E+03</pdfrwt>
<pdfrwt beam="2">  1       -1 0.17991704E-01 0.18202146E+03</pdfrwt>
<totfact> 0.16500798E+03</totfact>
</mgrwt>
</event>
<event>
12    1  0.5759937E-002  0.2431163E+03  0.7546771E-02  0.1117734E+00
         -1   -1    0    0    0  501 -0.00000000000E+00  0.00000000000E+00  0.13552617680E+04  0.13552617680E+04  0.00000000000E+00 0.  1.
          1   -1    0    0  503    0  0.00000000000E+00 -0.00000000000E+00 -0.44171488008E+02  0.44171488008E+02  0.00000000000E+00 0. -1.
          6    2    1    2  503    0  0.16571523258E+03 -0.47760343654E+02  0.73273348524E+03  0.77182995996E+03  0.17053016732E+03 0.  0.
         24    2    3    3    0    0  0.10586846685E+03 -0.88609862626E+02  0.58571657667E+03  0.60785929194E+03  0.85843873246E+02 0.  0.
         -6    2    1    2    0  501 -0.16571523258E+03  0.47760343654E+02  0.57835679478E+03  0.62760329607E+03  0.17218224775E+03 0.  0.
        -24    2    5    5    0    0 -0.12087725345E+03  0.50220183268E+02  0.55544324152E+03  0.57697113133E+03  0.85118239130E+02 0.  0.
          4    1    4    4  502    0  0.69155740103E+02 -0.10126336363E+03  0.47319898583E+03  0.48882928042E+03  0.00000000000E+00 0. -1.
         -3    1    4    4    0  502  0.36712726748E+02  0.12653501001E+02  0.11251759084E+03  0.11903001152E+03  0.00000000000E+00 0.  1.
          5    1    3    3  503    0  0.59846765729E+02  0.40849518972E+02  0.14701690856E+03  0.16397066802E+03  0.47000000000E+01 0. -1.
         11    1    6    6    0    0 -0.16748518166E+02  0.22482695162E+02  0.31969298355E+02  0.42520824072E+02  0.00000000000E+00 0. -1.
        -12    1    6    6    0    0 -0.10412873529E+03  0.27737488107E+02  0.52347394316E+03  0.53445030726E+03  0.00000000000E+00 0.  1.
         -5    1    5    5    0  501 -0.44837979127E+02 -0.24598396147E+01  0.22913553258E+02  0.50632164738E+02  0.47000000000E+01 0.  1.
<mgrwt>
<rscale>  2 0.24311632E+03</rscale>
<asrwt>0</asrwt>
<pdfrwt beam="2">  1        1 0.67956146E-02 0.24311632E+03</pdfrwt>
<pdfrwt beam="1">  1       -1 0.20850178E+00 0.24311632E+03</pdfrwt>
<totfact> 0.16002719E+02</totfact>
</mgrwt>
</event>
<event>
12    1  0.5759937E-002  0.1961701E+03  0.7546771E-02  0.1153011E+00
          2   -1    0    0  503    0  0.00000000000E+00  0.00000000000E+00  0.66722158485E+03  0.66722158485E+03  0.00000000000E+00 0. -1.
         -2   -1    0    0    0  501 -0.00000000000E+00 -0.00000000000E+00 -0.74078778142E+02  0.74078778142E+02  0.00000000000E+00 0.  1.
          6    2    1    2  503    0 -0.16647137162E+02  0.90064971800E+02  0.12284477662E+03  0.23195143839E+03  0.17413157183E+03 0.  0.
         24    2    3    3    0    0  0.36945904745E+02  0.10057925698E+03  0.59278857497E+02  0.14801407837E+03  0.83144438396E+02 0.  0.
         -6    2    1    2    0  501  0.16647137162E+02 -0.90064971800E+02  0.47029803009E+03  0.50934892460E+03  0.17282147889E+03 0.  0.
        -24    2    5    5    0    0  0.26615834509E+02 -0.12158825390E+03  0.28206515405E+03  0.31817675648E+03  0.78635813122E+02 0.  0.
          2    1    4    4  502    0  0.11879396429E+02  0.91717301520E+02  0.11313240436E+02  0.93172811843E+02  0.00000000000E+00 0. -1.
         -1    1    4    4    0  502  0.25066508316E+02  0.88619554595E+01  0.47965617061E+02  0.54841266522E+02  0.00000000000E+00 0.  1.
          5    1    3    3  503    0 -0.53593041908E+02 -0.10514285179E+02  0.63565919119E+02  0.83937360020E+02  0.47000000000E+01 0. -1.
         13    1    6    6    0    0  0.19017363742E+02 -0.31986872382E+02  0.17233785764E+03  0.17630983326E+03  0.00000000000E+00 0. -1.
        -14    1    6    6    0    0  0.75984707677E+01 -0.89601381516E+02  0.10972729641E+03  0.14186692322E+03  0.00000000000E+00 0.  1.
         -5    1    5    5    0  501 -0.99686973469E+01  0.31523282097E+02  0.18823287604E+03  0.19117216812E+03  0.47000000000E+01 0.  1.
<mgrwt>
<rscale>  2 0.19617005E+03</rscale>
<asrwt>0</asrwt>
<pdfrwt beam="1">  1        2 0.10264947E+00 0.19617005E+03</pdfrwt>
<pdfrwt beam="2">  1       -2 0.11396736E-01 0.19617005E+03</pdfrwt>
<totfact> 0.23702424E+03</totfact>
</mgrwt>
</event>
<event>
12    1  0.5759937E-002  0.1919326E+03  0.7546771E-02  0.1156730E+00
         -1   -1    0    0    0  501 -0.00000000000E+00  0.00000000000E+00  0.29354509203E+02  0.29354509203E+02  0.00000000000E+00 0. -1.
          1   -1    0    0  503    0  0.00000000000E+00 -0.00000000000E+00 -0.14551729628E+04  0.14551729628E+04  0.00000000000E+00 0.  1.
          6    2    1    2  503    0 -0.27510664471E+02 -0.77819622030E+02 -0.98148527789E+03  0.99968157685E+03  0.17098881293E+03 0.  0.
         24    2    3    3    0    0 -0.82675189509E+02 -0.64076976396E+02 -0.62270207484E+03  0.63639180006E+03  0.79344837924E+02 0.  0.
         -6    2    1    2    0  501  0.27510664471E+02  0.77819622030E+02 -0.44433317575E+03  0.48484589520E+03  0.17558713160E+03 0.  0.
        -24    2    5    5    0    0 -0.52753958853E+02  0.28132530123E+02 -0.24835619266E+03  0.26726766844E+03  0.78592548832E+02 0.  0.
          4    1    4    4  502    0 -0.94550161572E+02 -0.42343713852E+02 -0.44074150626E+03  0.45275357370E+03  0.00000000000E+00 0. -1.
         -3    1    4    4    0  502  0.11874972063E+02 -0.21733262544E+02 -0.18196056857E+03  0.18363822635E+03  0.00000000000E+00 0.  1.
          5    1    3    3  503    0  0.55164525038E+02 -0.13742645633E+02 -0.35878320305E+03  0.36328977679E+03  0.47000000000E+01 0. -1.
         13    1    6    6    0    0 -0.35144528871E+02 -0.17621904963E+02 -0.17267772481E+03  0.17709677041E+03  0.00000000000E+00 0. -1.
        -14    1    6    6    0    0 -0.17609429982E+02  0.45754435086E+02 -0.75678467850E+02  0.90170898024E+02  0.00000000000E+00 0.  1.
         -5    1    5    5    0  501  0.80264623324E+02  0.49687091906E+02 -0.19597698309E+03  0.21757822676E+03  0.47000000000E+01 0.  1.
<mgrwt>
<rscale>  2 0.19193259E+03</rscale>
<asrwt>0</asrwt>
<pdfrwt beam="2">  1        1 0.22387274E+00 0.19193259E+03</pdfrwt>
<pdfrwt beam="1">  1       -1 0.45160787E-02 0.19193259E+03</pdfrwt>
<totfact> 0.15751246E+03</totfact>
</mgrwt>
</event>
<event>
12    1  0.5759937E-002  0.1900284E+03  0.7546771E-02  0.1158436E+00
          1   -1    0    0  503    0  0.00000000000E+00  0.00000000000E+00  0.20089377134E+03  0.20089377134E+03  0.00000000000E+00 0. -1.
         -1   -1    0    0    0  501 -0.00000000000E+00 -0.00000000000E+00 -0.20003647524E+03  0.20003647524E+03  0.00000000000E+00 0.  1.
          6    2    1    2  503    0 -0.74530507014E+02 -0.20870290004E+02 -0.63407035847E+02  0.20073439845E+03  0.17402149593E+03 0.  0.
         24    2    3    3    0    0 -0.71485398238E+02  0.49332241715E+02 -0.42171782875E+02  0.12717697791E+03  0.82774949150E+02 0.  0.
         -6    2    1    2    0  501  0.74530507014E+02  0.20870290004E+02  0.64264331949E+02  0.20019584812E+03  0.17308410604E+03 0.  0.
        -24    2    5    5    0    0  0.10014135003E+02 -0.17333028431E+02  0.89007290142E+02  0.12109995836E+03  0.79637839265E+02 0.  0.
          2    1    4    4  502    0 -0.19123237722E+02  0.63021556782E+02 -0.23284363680E+02  0.69853965043E+02  0.00000000000E+00 0. -1.
         -1    1    4    4    0  502 -0.52362160516E+02 -0.13689315067E+02 -0.18887419195E+02  0.57323012872E+02  0.00000000000E+00 0.  1.
          5    1    3    3  503    0 -0.30451087760E+01 -0.70202531720E+02 -0.21235252972E+02  0.73557420537E+02  0.47000000000E+01 0. -1.
         13    1    6    6    0    0 -0.34238889476E+02 -0.44349460582E+01  0.26957570123E+02  0.43802749754E+02  0.00000000000E+00 0. -1.
        -14    1    6    6    0    0  0.44253024479E+02 -0.12898082373E+02  0.62049720019E+02  0.77297208609E+02  0.00000000000E+00 0.  1.
         -5    1    5    5    0  501  0.64516372011E+02  0.38203318436E+02 -0.24742958192E+02  0.79095889761E+02  0.47000000000E+01 0.  1.
<mgrwt>
<rscale>  2 0.19002840E+03</rscale>
<asrwt>0</asrwt>
<pdfrwt beam="1">  1        1 0.30906734E-01 0.19002840E+03</pdfrwt>
<pdfrwt beam="2">  1       -1 0.30774842E-01 0.19002840E+03</pdfrwt>
<totfact> 0.14148241E+03</totfact>
</mgrwt>
</event>
<event>
12    1  0.5759937E-002  0.1882165E+03  0.7546771E-02  0.1160080E+00
         -2   -1    0    0    0  501 -0.00000000000E+00  0.00000000000E+00  0.55245021742E+02  0.55245021742E+02  0.00000000000E+00 0.  1.
          2   -1    0    0  503    0  0.00000000000E+00 -0.00000000000E+00 -0.64270379637E+03  0.64270379637E+03  0.00000000000E+00 0. -1.
          6    2    1    2  503    0 -0.41949051665E+02 -0.60204863120E+02 -0.27722556938E+03  0.33513029817E+03  0.17341843026E+03 0.  0.
         24    2    3    3    0    0 -0.69489160272E+02 -0.91172714014E+02 -0.24164116579E+03  0.28030507450E+03  0.83900385060E+02 0.  0.
         -6    2    1    2    0  501  0.41949051665E+02  0.60204863120E+02 -0.31023320525E+03  0.36281851995E+03  0.17322900535E+03 0.  0.
        -24    2    5    5    0    0  0.22698480711E+01  0.99553273561E+02 -0.18282191988E+03  0.22361197469E+03  0.81623858943E+02 0.  0.
          4    1    4    4  502    0  0.85580558215E+01 -0.54026357039E+02 -0.78466384425E+02  0.95650724299E+02  0.00000000000E+00 0. -1.
         -3    1    4    4    0  502 -0.78047216094E+02 -0.37146356976E+02 -0.16317478136E+03  0.18465435020E+03  0.00000000000E+00 0.  1.
          5    1    3    3  503    0  0.27540108608E+02  0.30967850894E+02 -0.35584403592E+02  0.54825223667E+02  0.47000000000E+01 0. -1.
         13    1    6    6    0    0  0.18641174877E+02  0.40666423100E+02 -0.18714275536E+02  0.48492014574E+02  0.00000000000E+00 0. -1.
        -14    1    6    6    0    0 -0.16371326806E+02  0.58886850461E+02 -0.16410764435E+03  0.17511996012E+03  0.00000000000E+00 0.  1.
         -5    1    5    5    0  501  0.39679203594E+02 -0.39348410442E+02 -0.12741128537E+03  0.13920654526E+03  0.47000000000E+01 0.  1.
<mgrwt>
<rscale>  2 0.18821651E+03</rscale>
<asrwt>0</asrwt>
<pdfrwt beam="2">  1        2 0.98877498E-01 0.18821651E+03</pdfrwt>
<pdfrwt beam="1">  1       -2 0.84992349E-02 0.18821651E+03</pdfrwt>
<totfact> 0.39361400E+03</totfact>
</mgrwt>
</event>
<event>
12    1  0.5759937E-002  0.2157377E+03  0.7546771E-02  0.1137101E+00
          1   -1    0    0  503    0  0.00000000000E+00  0.00000000000E+00  0.56656246701E+03  0.56656246701E+03  0.00000000000E+00 0.  1.
         -1   -1    0    0    0  501 -0.00000000000E+00 -0.00000000000E+00 -0.15310977095E+03  0.15310977095E+03  0.00000000000E+00 0. -1.
          6    2    1    2  503    0 -0.96805586293E+02  0.87436524176E+02 -0.38861943491E+02  0.21801556652E+03  0.17030581111E+03 0.  0.
         24    2    3    3    0    0 -0.93016002279E+02  0.32540425127E+01  0.36470732874E+01  0.12351605502E+03  0.81119351775E+02 0.  0.
         -6    2    1    2    0  501  0.96805586293E+02 -0.87436524176E+02  0.45231463955E+03  0.50165667143E+03  0.17336209373E+03 0.  0.
        -24    2    5    5    0    0  0.12155432031E+03 -0.86333340702E+02  0.27008931998E+03  0.31769506146E+03  0.75848617718E+02 0.  0.
          4    1    4    4  502    0 -0.74225579138E+02  0.38323584058E+02 -0.28672085162E+00  0.83535716327E+02  0.00000000000E+00 0. -1.
         -3    1    4    4    0  502 -0.18790423141E+02 -0.35069541545E+02  0.39337941390E+01  0.39980338697E+02  0.00000000000E+00 0.  1.
          5    1    3    3  503    0 -0.37895840135E+01  0.84182481664E+02 -0.42509016778E+02  0.94499511499E+02  0.47000000000E+01 0. -1.
         13    1    6    6    0    0  0.23227991666E+02  0.52534554729E+01  0.11878926108E+02  0.26612915600E+02  0.00000000000E+00 0. -1.
        -14    1    6    6    0    0  0.98326328640E+02 -0.91586796175E+02  0.25821039387E+03  0.29108214587E+03  0.00000000000E+00 0.  1.
         -5    1    5    5    0  501 -0.24748734013E+02 -0.11031834741E+01  0.18222531957E+03  0.18396160997E+03  0.47000000000E+01 0.  1.
<mgrwt>
<rscale>  2 0.21573768E+03</rscale>
<asrwt>0</asrwt>
<pdfrwt beam="1">  1        1 0.87163455E-01 0.21573768E+03</pdfrwt>
<pdfrwt beam="2">  1       -1 0.23555350E-01 0.21573768E+03</pdfrwt>
<totfact> 0.59006323E+02</totfact>
</mgrwt>
</event>
<event>
12    1  0.5759937E-002  0.2343377E+03  0.7546771E-02  0.1123623E+00
          1   -1    0    0  503    0  0.00000000000E+00  0.00000000000E+00  0.15892914221E+04  0.15892914221E+04  0.00000000000E+00 0.  1.
         -1   -1    0    0    0  501 -0.00000000000E+00 -0.00000000000E+00 -0.54399505800E+02  0.54399505800E+02  0.00000000000E+00 0. -1.
          6    2    1    2  503    0  0.39620940330E+02  0.15143496322E+03  0.27145552931E+03  0.35874282186E+03  0.17465949972E+03 0.  0.
         24    2    3    3    0    0  0.53499247817E+02  0.17129233168E+03  0.27061329956E+03  0.33405027537E+03  0.78452508979E+02 0.  0.
         -6    2    1    2    0  501 -0.39620940330E+02 -0.15143496322E+03  0.12634363870E+04  0.12849481060E+04  0.17411997085E+03 0.  0.
        -24    2    5    5    0    0 -0.37511536693E+02 -0.13462343289E+03  0.59895061892E+03  0.62022974230E+03  0.80078119684E+02 0.  0.
          4    1    4    4  502    0  0.46716848079E+02  0.91790796997E+02  0.20983134839E+03  0.23374603542E+03  0.00000000000E+00 0. -1.
         -3    1    4    4    0  502  0.67823997378E+01  0.79501534688E+02  0.60781951174E+02  0.10030423995E+03  0.00000000000E+00 0.  1.
          5    1    3    3  503    0 -0.13878307487E+02 -0.19857368463E+02  0.84222974574E+00  0.24692546485E+02  0.47000000000E+01 0. -1.
         13    1    6    6    0    0 -0.62808726716E+02 -0.89559484656E+02  0.40790533763E+03  0.42231812879E+03  0.00000000000E+00 0. -1.
        -14    1    6    6    0    0  0.25297190023E+02 -0.45063948238E+02  0.19104528130E+03  0.19791161350E+03  0.00000000000E+00 0.  1.
         -5    1    5    5    0  501 -0.21094036372E+01 -0.16811530328E+02  0.66448576806E+03  0.66471836374E+03  0.47000000000E+01 0.  1.
<mgrwt>
<rscale>  2 0.23433766E+03</rscale>
<asrwt>0</asrwt>
<pdfrwt beam="1">  1        1 0.24450634E+00 0.23433766E+03</pdfrwt>
<pdfrwt beam="2">  1       -1 0.83691560E-02 0.23433766E+03</pdfrwt>
<totfact> 0.50516278E+02</totfact>
</mgrwt>
</event>
<event>
12    1  0.5759937E-002  0.2139349E+03  0.7546771E-02  0.1138487E+00
          2   -1    0    0  503    0  0.00000000000E+00  0.00000000000E+00  0.81201379849E+03  0.81201379849E+03  0.00000000000E+00 0.  1.
         -2   -1    0    0    0  501 -0.00000000000E+00 -0.00000000000E+00 -0.58381414600E+02  0.58381414600E+02  0.00000000000E+00 0. -1.
          6    2    1    2  503    0 -0.75536102213E+02  0.86502068452E+02  0.28704131462E+03  0.35466019100E+03  0.17378959748E+03 0.  0.
         24    2    3    3    0    0 -0.11921252349E+03  0.73395030275E+02  0.23653971597E+03  0.28645516412E+03  0.80666396916E+02 0.  0.
         -6    2    1    2    0  501  0.75536102213E+02 -0.86502068452E+02  0.46659106926E+03  0.51573502209E+03  0.18731544653E+03 0.  0.
        -24    2    5    5    0    0  0.25758201050E+02 -0.44413239671E+02  0.83056318991E+02  0.12667165499E+03  0.80692845247E+02 0.  0.
          4    1    4    4  502    0 -0.10181312931E+03  0.29984644062E+02  0.11635224102E+03  0.15748916207E+03  0.00000000000E+00 0. -1.
         -3    1    4    4    0  502 -0.17399394183E+02  0.43410386213E+02  0.12018747495E+03  0.12896600205E+03  0.00000000000E+00 0.  1.
          5    1    3    3  503    0  0.43676421277E+02  0.13107038176E+02  0.50501598652E+02  0.68205026880E+02  0.47000000000E+01 0. -1.
         13    1    6    6    0    0 -0.75530297560E+01 -0.22316589300E+02 -0.98457644796E+01  0.25534633239E+02  0.00000000000E+00 0. -1.
        -14    1    6    6    0    0  0.33311230806E+02 -0.22096650372E+02  0.92902083470E+02  0.10113702175E+03  0.00000000000E+00 0.  1.
         -5    1    5    5    0  501  0.49777901163E+02 -0.42088828780E+02  0.38353475027E+03  0.38906336710E+03  0.47000000000E+01 0.  1.
<mgrwt>
<rscale>  2 0.21393493E+03</rscale>
<asrwt>0</asrwt>
<pdfrwt beam="1">  1        2 0.12492519E+00 0.21393493E+03</pdfrwt>
<pdfrwt beam="2">  1       -2 0.89817567E-02 0.21393493E+03</pdfrwt>
<totfact> 0.27231192E+03</totfact>
</mgrwt>
</event>
<event>
12    1  0.5759937E-002  0.2123956E+03  0.7546771E-02  0.1139683E+00
         -1   -1    0    0    0  501 -0.00000000000E+00  0.00000000000E+00  0.23961860342E+03  0.23961860342E+03  0.00000000000E+00 0.  1.
          1   -1    0    0  503    0  0.00000000000E+00 -0.00000000000E+00 -0.20799281269E+03  0.20799281269E+03  0.00000000000E+00 0. -1.
          6    2    1    2  503    0  0.10553180609E+03  0.61623518254E+02  0.84689921379E+02  0.22803438907E+03  0.17289557461E+03 0.  0.
         24    2    3    3    0    0  0.90537990860E+02  0.55150370274E+01  0.11158605119E+03  0.16385909819E+03  0.78554527675E+02 0.  0.
         -6    2    1    2    0  501 -0.10553180609E+03 -0.61623518254E+02 -0.53064130649E+02  0.21957702703E+03  0.17453896052E+03 0.  0.
        -24    2    5    5    0    0 -0.30938323545E+02  0.32496449070E+02 -0.14975430992E+02  0.93499293353E+02  0.80651443002E+02 0.  0.
          2    1    4    4  502    0  0.18089428835E+02  0.25591570233E+02  0.72812207094E+02  0.79270255484E+02  0.00000000000E+00 0. -1.
         -1    1    4    4    0  502  0.72448562025E+02 -0.20076533205E+02  0.38773844097E+02  0.84588842711E+02  0.00000000000E+00 0.  1.
          5    1    3    3  503    0  0.14993815231E+02  0.56108481226E+02 -0.26896129812E+02  0.64175290880E+02  0.47000000000E+01 0. -1.
         13    1    6    6    0    0 -0.55711938749E+02  0.28258306686E+02  0.30926328725E+01  0.62545314724E+02  0.00000000000E+00 0. -1.
        -14    1    6    6    0    0  0.24773615204E+02  0.42381423840E+01 -0.18068063865E+02  0.30953978629E+02  0.00000000000E+00 0.  1.
         -5    1    5    5    0  501 -0.74593482546E+02 -0.94119967324E+02 -0.38088699657E+02  0.12607773368E+03  0.47000000000E+01 0.  1.
<mgrwt>
<rscale>  2 0.21239558E+03</rscale>
<asrwt>0</asrwt>
<pdfrwt beam="2">  1        1 0.31998894E-01 0.21239558E+03</pdfrwt>
<pdfrwt beam="1">  1       -1 0.36864400E-01 0.21239558E+03</pdfrwt>
<totfact> 0.99418103E+02</totfact>
</mgrwt>
</event>
<event>
12    1  0.5759937E-002  0.1872986E+03  0.7546771E-02  0.1160921E+00
         -2   -1    0    0    0  501 -0.00000000000E+00  0.00000000000E+00  0.27667127465E+02  0.27667127465E+02  0.00000000000E+00 0. -1.
          2   -1    0    0  503    0  0.00000000000E+00 -0.00000000000E+00 -0.15334470600E+04  0.15334470600E+04  0.00000000000E+00 0.  1.
          6    2    1    2  503    0  0.42196653920E+02  0.57801338824E+02 -0.10784130217E+04  0.10945953782E+04  0.17332871720E+03 0.  0.
         24    2    3    3    0    0  0.90243249799E+02  0.40315187763E+02 -0.90202251017E+03  0.91088380149E+03  0.79344391524E+02 0.  0.
         -6    2    1    2    0  501 -0.42196653920E+02 -0.57801338824E+02 -0.42736691088E+03  0.46651880933E+03  0.17284608924E+03 0.  0.
        -24    2    5    5    0    0 -0.74599190176E+02 -0.84608836316E+02 -0.37243642614E+03  0.39717896196E+03  0.79489256859E+02 0.  0.
          4    1    4    4  502    0  0.97676754970E+01 -0.16841319840E+02 -0.59625703306E+02  0.62723695948E+02  0.00000000000E+00 0. -1.
         -3    1    4    4    0  502  0.80475574302E+02  0.57156507603E+02 -0.84239680686E+03  0.84816010554E+03  0.00000000000E+00 0.  1.
          5    1    3    3  503    0 -0.48046595879E+02  0.17486151061E+02 -0.17639051152E+03  0.18371157669E+03  0.47000000000E+01 0. -1.
         11    1    6    6    0    0 -0.36676218916E+01 -0.19553558796E+02 -0.10166475952E+02  0.22341672838E+02  0.00000000000E+00 0. -1.
        -12    1    6    6    0    0 -0.70931568285E+02 -0.65055277521E+02 -0.36226995019E+03  0.37483728913E+03  0.00000000000E+00 0.  1.
         -5    1    5    5    0  501  0.32402536257E+02  0.26807497492E+02 -0.54930484748E+02  0.69339847362E+02  0.47000000000E+01 0.  1.
<mgrwt>
<rscale>  2 0.18729859E+03</rscale>
<asrwt>0</asrwt>
<pdfrwt beam="2">  1        2 0.23591505E+00 0.18729859E+03</pdfrwt>
<pdfrwt beam="1">  1       -2 0.42564790E-02 0.18729859E+03</pdfrwt>
<totfact> 0.32673100E+03</totfact>
</mgrwt>
</event>
<event>
12    1  0.5759937E-002  0.2504816E+03  0.7546771E-02  0.1113001E+00
          2   -1    0    0  503    0  0.00000000000E+00  0.00000000000E+00  0.71247882497E+02  0.71247882497E+02  0.00000000000E+00 0. -1.
         -2   -1    0    0    0  501 -0.00000000000E+00 -0.00000000000E+00 -0.95189417832E+03  0.95189417832E+03  0.00000000000E+00 0.  1.
          6    2    1    2  503    0  0.13966490423E+03  0.11317055222E+03 -0.29959845863E+03  0.39022682791E+03  0.17379263919E+03 0.  0.
         24    2    3    3    0    0  0.54374605865E+02  0.11481668848E+03 -0.95852799885E+02  0.16929351620E+03  0.57732708811E+02 0.  0.
         -6    2    1    2    0  501 -0.13966490423E+03 -0.11317055222E+03 -0.58104783718E+03  0.63291523291E+03  0.17507496562E+03 0.  0.
        -24    2    5    5    0    0 -0.99530924978E+02 -0.81452943884E+02 -0.21529956956E+03  0.26357713815E+03  0.81104969071E+02 0.  0.
          4    1    4    4  502    0  0.63042857723E+02  0.98315881971E+02 -0.95143471886E+02  0.15064094663E+03  0.00000000000E+00 0. -1.
         -3    1    4    4    0  502 -0.86682518580E+01  0.16500806506E+02 -0.70932799894E+00  0.18652569577E+02  0.00000000000E+00 0.  1.
          5    1    3    3  503    0  0.85290298369E+02 -0.16461362551E+01 -0.20374565875E+03  0.22093331170E+03  0.47000000000E+01 0. -1.
         11    1    6    6    0    0 -0.71676677583E+02 -0.14283687095E+02 -0.14529070005E+03  0.16263750289E+03  0.00000000000E+00 0. -1.
        -12    1    6    6    0    0 -0.27854247394E+02 -0.67169256789E+02 -0.70008869508E+02  0.10093963525E+03  0.00000000000E+00 0.  1.
         -5    1    5    5    0  501 -0.40133979257E+02 -0.31717608338E+02 -0.36574826763E+03  0.36933809476E+03  0.47000000000E+01 0.  1.
<mgrwt>
<rscale>  2 0.25048158E+03</rscale>
<asrwt>0</asrwt>
<pdfrwt beam="1">  1        2 0.10961212E-01 0.25048158E+03</pdfrwt>
<pdfrwt beam="2">  1       -2 0.14644526E+00 0.25048158E+03</pdfrwt>
<totfact> 0.19303649E+02</totfact>
</mgrwt>
</event>
<event>
12    1  0.5759937E-002  0.2062880E+03  0.7546771E-02  0.1144540E+00
         -2   -1    0    0    0  501 -0.00000000000E+00  0.00000000000E+00  0.44525127146E+02  0.44525127146E+02  0.00000000000E+00 0.  1.
          2   -1    0    0  503    0  0.00000000000E+00 -0.00000000000E+00 -0.16616563178E+04  0.16616563178E+04  0.00000000000E+00 0. -1.
          6    2    1    2  503    0 -0.11173911763E+03 -0.15492870888E+02 -0.25244232074E+03  0.32598316785E+03  0.17266221637E+03 0.  0.
         24    2    3    3    0    0 -0.10358110639E+03 -0.71051741232E+02 -0.18317364969E+03  0.23668826312E+03  0.81800687188E+02 0.  0.
         -6    2    1    2    0  501  0.11173911763E+03  0.15492870888E+02 -0.13646888699E+04  0.13801982771E+04  0.17275969723E+03 0.  0.
        -24    2    5    5    0    0  0.69855146899E+02 -0.44958839667E+02 -0.53083091187E+03  0.54309024315E+03  0.79148697992E+02 0.  0.
          4    1    4    4  502    0 -0.50646656947E+02  0.86952362254E+01 -0.43289397676E+02  0.67191241573E+02  0.00000000000E+00 0. -1.
         -3    1    4    4    0  502 -0.52934449439E+02 -0.79746977457E+02 -0.13988425201E+03  0.16949702154E+03  0.00000000000E+00 0.  1.
          5    1    3    3  503    0 -0.81580112407E+01  0.55558870344E+02 -0.69268671052E+02  0.89294904729E+02  0.47000000000E+01 0. -1.
         13    1    6    6    0    0  0.20316978760E+02 -0.33704746001E+02 -0.41174600411E+03  0.41362248661E+03  0.00000000000E+00 0. -1.
        -14    1    6    6    0    0  0.49538168139E+02 -0.11254093666E+02 -0.11908490776E+03  0.12946775654E+03  0.00000000000E+00 0.  1.
         -5    1    5    5    0  501  0.41883970728E+02  0.60451710555E+02 -0.83385795800E+03  0.83710803391E+03  0.47000000000E+01 0.  1.
<mgrwt>
<rscale>  2 0.20628799E+03</rscale>
<asrwt>0</asrwt>
<pdfrwt beam="2">  1        2 0.25563940E+00 0.20628799E+03</pdfrwt>
<pdfrwt beam="1">  1       -2 0.68500205E-02 0.20628799E+03</pdfrwt>
<totfact> 0.13563492E+03</totfact>
</mgrwt>
</event>
<event>
12    1  0.5759937E-002  0.1891549E+03  0.7546771E-02  0.1159226E+00
         -2   -1    0    0    0  501 -0.00000000000E+00  0.00000000000E+00  0.38852833257E+02  0.38852833257E+02  0.00000000000E+00 0. -1.
          2   -1    0    0  503    0  0.00000000000E+00 -0.00000000000E+00 -0.11622903336E+04  0.11622903336E+04  0.00000000000E+00 0.  1.
          6    2    1    2  503    0 -0.48538298779E+02 -0.60898571662E+02 -0.83530786027E+03  0.85644713621E+03  0.17233070889E+03 0.  0.
         24    2    3    3    0    0  0.23326349381E+02 -0.78744254576E+02 -0.51240657396E+03  0.52513108355E+03  0.80357835148E+02 0.  0.
         -6    2    1    2    0  501  0.48538298779E+02  0.60898571662E+02 -0.28812964012E+03  0.34469603069E+03  0.17242987437E+03 0.  0.
        -24    2    5    5    0    0  0.63671491358E+02 -0.21125556994E+02 -0.16270399832E+03  0.19399549047E+03  0.81616856621E+02 0.  0.
          2    1    4    4  502    0  0.11786239976E+02 -0.89540045738E+02 -0.48629400114E+03  0.49460912930E+03  0.00000000000E+00 0. -1.
         -1    1    4    4    0  502  0.11540109405E+02  0.10795791162E+02 -0.26112572815E+02  0.30521954244E+02  0.00000000000E+00 0.  1.
          5    1    3    3  503    0 -0.71864648159E+02  0.17845682914E+02 -0.32290128631E+03  0.33131605267E+03  0.47000000000E+01 0. -1.
         13    1    6    6    0    0  0.74484496947E+02 -0.22411563745E+02 -0.16540056308E+03  0.18277736386E+03  0.00000000000E+00 0. -1.
        -14    1    6    6    0    0 -0.10813005589E+02  0.12860067504E+01  0.26965647540E+01  0.11218126612E+02  0.00000000000E+00 0.  1.
         -5    1    5    5    0  501 -0.15133192580E+02  0.82024128657E+02 -0.12542564180E+03  0.15070054021E+03  0.47000000000E+01 0.  1.
<mgrwt>
<rscale>  2 0.18915487E+03</rscale>
<asrwt>0</asrwt>
<pdfrwt beam="2">  1        2 0.17881387E+00 0.18915487E+03</pdfrwt>
<pdfrwt beam="1">  1       -2 0.59773598E-02 0.18915487E+03</pdfrwt>
<totfact> 0.31086640E+03</totfact>
</mgrwt>
</event>
<event>
12    1  0.5759937E-002  0.3615728E+03  0.7546771E-02  0.1057963E+00
          2   -1    0    0  503    0  0.00000000000E+00  0.00000000000E+00  0.35595289586E+03  0.35595289586E+03  0.00000000000E+00 0.  1.
         -2   -1    0    0    0  501 -0.00000000000E+00 -0.00000000000E+00 -0.38723536153E+03  0.38723536153E+03  0.00000000000E+00 0. -1.
          6    2    1    2  503    0  0.21422321697E+03  0.23786352045E+03  0.68772670168E+02  0.36576831278E+03  0.16305256031E+03 0.  0.
         24    2    3    3    0    0  0.19339488021E+03  0.18017844602E+03  0.54132486652E+01  0.27746262940E+03  0.84204247819E+02 0.  0.
         -6    2    1    2    0  501 -0.21422321697E+03 -0.23786352045E+03 -0.10005513584E+03  0.37741994461E+03  0.17310154054E+03 0.  0.
        -24    2    5    5    0    0 -0.55784128565E+02 -0.61285655882E+02 -0.73049596988E+02  0.13860186298E+03  0.83704433480E+02 0.  0.
          4    1    4    4  502    0  0.19357726123E+03  0.16932813363E+03 -0.11415607352E+02  0.25743832076E+03  0.00000000000E+00 0. -1.
         -3    1    4    4    0  502 -0.18238101703E+00  0.10850312390E+02  0.16828856017E+02  0.20024308643E+02  0.00000000000E+00 0.  1.
          5    1    3    3  503    0  0.20828336751E+02  0.57685074428E+02  0.63359421502E+02  0.88305683377E+02  0.47000000000E+01 0. -1.
         11    1    6    6    0    0 -0.42464458202E+02 -0.71843633954E+02 -0.83979182313E+02  0.11839442982E+03  0.00000000000E+00 0. -1.
        -12    1    6    6    0    0 -0.13319670363E+02  0.10557978072E+02  0.10929585325E+02  0.20207433160E+02  0.00000000000E+00 0.  1.
         -5    1    5    5    0  501 -0.15843908840E+03 -0.17657786456E+03 -0.27005538848E+02  0.23881808163E+03  0.47000000000E+01 0.  1.
<mgrwt>
<rscale>  2 0.36157277E+03</rscale>
<asrwt>0</asrwt>
<pdfrwt beam="1">  1        2 0.54761984E-01 0.36157277E+03</pdfrwt>
<pdfrwt beam="2">  1       -2 0.59574671E-01 0.36157277E+03</pdfrwt>
<totfact> 0.24411765E+02</totfact>
</mgrwt>
</event>
<event>
12    1  0.5759937E-002  0.2721361E+03  0.7546771E-02  0.1100063E+00
         -2   -1    0    0    0  501 -0.00000000000E+00  0.00000000000E+00  0.86178076885E+02  0.86178076885E+02  0.00000000000E+00 0.  1.
          2   -1    0    0  503    0  0.00000000000E+00 -0.00000000000E+00 -0.85943158095E+03  0.85943158095E+03  0.00000000000E+00 0. -1.
          6    2    1    2  503    0  0.21759161902E+02  0.20903942539E+03 -0.39084157177E+03  0.47622011600E+03  0.17279329317E+03 0.  0.
         24    2    3    3    0    0  0.50858233017E+01  0.22278192656E+03 -0.38676568799E+03  0.45373546819E+03  0.81428037459E+02 0.  0.
         -6    2    1    2    0  501 -0.21759161902E+02 -0.20903942539E+03 -0.38241193230E+03  0.46938954184E+03  0.17296448632E+03 0.  0.
        -24    2    5    5    0    0 -0.18270389493E+02 -0.46733582890E+02 -0.21857578941E+03  0.23869552423E+03  0.81745597245E+02 0.  0.
          2    1    4    4  502    0 -0.12551700874E+02  0.14191316159E+03 -0.17059177913E+03  0.22225761120E+03  0.00000000000E+00 0. -1.
         -1    1    4    4    0  502  0.17637524176E+02  0.80868764976E+02 -0.21617390886E+03  0.23147785699E+03  0.00000000000E+00 0.  1.
          5    1    3    3  503    0  0.16673338601E+02 -0.13742501171E+02 -0.40758837747E+01  0.22484647808E+02  0.47000000000E+01 0. -1.
         13    1    6    6    0    0 -0.28089785793E+02 -0.19476237298E+02 -0.23500460078E+02  0.41480495525E+02  0.00000000000E+00 0. -1.
        -14    1    6    6    0    0  0.98193962996E+01 -0.27257345592E+02 -0.19507532934E+03  0.19721502871E+03  0.00000000000E+00 0.  1.
         -5    1    5    5    0  501 -0.34887724088E+01 -0.16230584250E+03 -0.16383614288E+03  0.23069401760E+03  0.47000000000E+01 0.  1.
<mgrwt>
<rscale>  2 0.27213610E+03</rscale>
<asrwt>0</asrwt>
<pdfrwt beam="2">  1        2 0.13222025E+00 0.27213610E+03</pdfrwt>
<pdfrwt beam="1">  1       -2 0.13258165E-01 0.27213610E+03</pdfrwt>
<totfact> 0.13576592E+03</totfact>
</mgrwt>
</event>
<event>
12    1  0.5759937E-002  0.1774351E+03  0.7546771E-02  0.1170309E+00
          1   -1    0    0  503    0  0.00000000000E+00  0.00000000000E+00  0.23706428036E+02  0.23706428036E+02  0.00000000000E+00 0.  1.
         -1   -1    0    0    0  501 -0.00000000000E+00 -0.00000000000E+00 -0.13433272382E+04  0.13433272382E+04  0.00000000000E+00 0. -1.
          6    2    1    2  503    0  0.51840825325E+02 -0.17110444494E+02 -0.71563253404E+03  0.73632263380E+03  0.16450185038E+03 0.  0.
         24    2    3    3    0    0  0.41111052662E+02  0.16807652227E+02 -0.67640345388E+03  0.68315708069E+03  0.84907883330E+02 0.  0.
         -6    2    1    2    0  501 -0.51840825325E+02  0.17110444494E+02 -0.60398827612E+03  0.63071103244E+03  0.17324644374E+03 0.  0.
        -24    2    5    5    0    0 -0.16086084821E+02  0.67771459876E+02 -0.48025152082E+03  0.49222704578E+03  0.82426988621E+02 0.  0.
          2    1    4    4  502    0  0.25386721010E+02 -0.11649906542E+02 -0.59274609290E+03  0.59340385621E+03  0.00000000000E+00 0. -1.
         -1    1    4    4    0  502  0.15724331652E+02  0.28457558770E+02 -0.83657360984E+02  0.89753224476E+02  0.00000000000E+00 0.  1.
          5    1    3    3  503    0  0.10729772663E+02 -0.33918096721E+02 -0.39229080162E+02  0.53165553105E+02  0.47000000000E+01 0. -1.
         13    1    6    6    0    0  0.12933973095E+02  0.39228761199E+02 -0.81174469662E+02  0.91079514108E+02  0.00000000000E+00 0. -1.
        -14    1    6    6    0    0 -0.29020057916E+02  0.28542698677E+02 -0.39907705116E+03  0.40114753167E+03  0.00000000000E+00 0.  1.
         -5    1    5    5    0  501 -0.35754740504E+02 -0.50661015381E+02 -0.12373675530E+03  0.13848398666E+03  0.47000000000E+01 0.  1.
<mgrwt>
<rscale>  2 0.17743511E+03</rscale>
<asrwt>0</asrwt>
<pdfrwt beam="1">  1        1 0.36471417E-02 0.17743511E+03</pdfrwt>
<pdfrwt beam="2">  1       -1 0.20666579E+00 0.17743511E+03</pdfrwt>
<totfact> 0.39007842E+02</totfact>
</mgrwt>
</event>
<event>
12    1  0.5759937E-002  0.4411529E+03  0.7546771E-02  0.1030394E+00
         -2   -1    0    0    0  501 -0.00000000000E+00  0.00000000000E+00  0.20084991183E+03  0.20084991183E+03  0.00000000000E+00 0. -1.
          2   -1    0    0  503    0  0.00000000000E+00 -0.00000000000E+00 -0.97313955595E+03  0.97313955595E+03  0.00000000000E+00 0.  1.
          6    2    1    2  503    0 -0.27714874797E+03 -0.29979670888E+03 -0.34882682910E+03  0.56339973032E+03  0.17043944459E+03 0.  0.
         24    2    3    3    0    0 -0.48605162070E+02 -0.11279417183E+03 -0.13312857365E+03  0.19768133193E+03  0.79181468114E+02 0.  0.
         -6    2    1    2    0  501  0.27714874797E+03  0.29979670888E+03 -0.42346281502E+03  0.61058973747E+03  0.16373630214E+03 0.  0.
        -24    2    5    5    0    0  0.73273236681E+02  0.15781266109E+03 -0.18777157362E+03  0.26810302940E+03  0.79669738917E+02 0.  0.
          2    1    4    4  502    0 -0.31239873060E+02 -0.12112627654E+03 -0.10357144872E+03  0.16240243079E+03  0.00000000000E+00 0. -1.
         -1    1    4    4    0  502 -0.17365289010E+02  0.83321047086E+01 -0.29557124935E+02  0.35278901141E+02  0.00000000000E+00 0.  1.
          5    1    3    3  503    0 -0.22854358590E+03 -0.18700253705E+03 -0.21569825544E+03  0.36571839839E+03  0.47000000000E+01 0. -1.
         13    1    6    6    0    0  0.80746989561E+02  0.86956228475E+02 -0.10100658154E+03  0.15583257525E+03  0.00000000000E+00 0. -1.
        -14    1    6    6    0    0 -0.74737528794E+01  0.70856432620E+02 -0.86764992071E+02  0.11227045415E+03  0.00000000000E+00 0.  1.
         -5    1    5    5    0  501  0.20387551129E+03  0.14198404778E+03 -0.23569124141E+03  0.34248670807E+03  0.47000000000E+01 0.  1.
<mgrwt>
<rscale>  2 0.44115288E+03</rscale>
<asrwt>0</asrwt>
<pdfrwt beam="2">  1        2 0.14971378E+00 0.44115288E+03</pdfrwt>
<pdfrwt beam="1">  1       -2 0.30899986E-01 0.44115288E+03</pdfrwt>
<totfact> 0.26183347E+02</totfact>
</mgrwt>
</event>
<event>
12    1  0.5759937E-002  0.2168856E+03  0.7546771E-02  0.1136226E+00
          3   -1    0    0  503    0  0.00000000000E+00  0.00000000000E+00  0.61050034362E+03  0.61050034362E+03  0.00000000000E+00 0. -1.
         -3   -1    0    0    0  501 -0.00000000000E+00 -0.00000000000E+00 -0.78402653632E+02  0.78402653632E+02  0.00000000000E+00 0.  1.
          6    2    1    2  503    0 -0.11272864298E+03  0.65365767611E+02  0.31273769348E+03  0.38129509995E+03  0.17493043703E+03 0.  0.
         24    2    3    3    0    0 -0.58322757119E+02  0.10059695598E+03  0.18318127747E+03  0.23635307024E+03  0.93734208497E+02 0.  0.
         -6    2    1    2    0  501  0.11272864298E+03 -0.65365767611E+02  0.21935999650E+03  0.30760789730E+03  0.17182368838E+03 0.  0.
        -24    2    5    5    0    0  0.23452826780E+02 -0.49388794458E+02  0.18890970025E+03  0.21182300511E+03  0.78694488636E+02 0.  0.
          4    1    4    4  502    0  0.74179119264E+01  0.11818686660E+02  0.92175285338E+02  0.93225479344E+02  0.00000000000E+00 0. -1.
         -3    1    4    4    0  502 -0.65740669046E+02  0.88778269319E+02  0.91005992136E+02  0.14312759089E+03  0.00000000000E+00 0.  1.
          5    1    3    3  503    0 -0.54405885862E+02 -0.35231188368E+02  0.12955641601E+03  0.14494202972E+03  0.47000000000E+01 0. -1.
         11    1    6    6    0    0  0.49442675457E+02 -0.42578944782E+02  0.10409747673E+03  0.12285694671E+03  0.00000000000E+00 0. -1.
        -12    1    6    6    0    0 -0.25989848677E+02 -0.68098496763E+01  0.84812223525E+02  0.88966058393E+02  0.00000000000E+00 0.  1.
         -5    1    5    5    0  501  0.89275816202E+02 -0.15976973153E+02  0.30450296253E+02  0.95784892188E+02  0.47000000000E+01 0.  1.
<mgrwt>
<rscale>  2 0.21688560E+03</rscale>
<asrwt>0</asrwt>
<pdfrwt beam="1">  1        3 0.93923127E-01 0.21688560E+03</pdfrwt>
<pdfrwt beam="2">  1       -3 0.12061947E-01 0.21688560E+03</pdfrwt>
<totfact> 0.13857630E+02</totfact>
</mgrwt>
</event>
<event>
12    1  0.5759937E-002  0.2218296E+03  0.7546771E-02  0.1132526E+00
          3   -1    0    0  503    0  0.00000000000E+00  0.00000000000E+00  0.65807429725E+03  0.65807429725E+03  0.00000000000E+00 0. -1.
         -3   -1    0    0    0  501 -0.00000000000E+00 -0.00000000000E+00 -0.11635856502E+03  0.11635856502E+03  0.00000000000E+00 0.  1.
          6    2    1    2  503    0 -0.73250320296E+02  0.10389593938E+03  0.34871048062E+02  0.21870006621E+03  0.17451003789E+03 0.  0.
         24    2    3    3    0    0 -0.85139243329E+01  0.83221527863E+02 -0.33823570178E+02  0.12195673140E+03  0.82043286303E+02 0.  0.
         -6    2    1    2    0  501  0.73250320296E+02 -0.10389593938E+03  0.50684468417E+03  0.55573279606E+03  0.18917566203E+03 0.  0.
        -24    2    5    5    0    0  0.62632592383E+02 -0.12914202136E+03  0.26144685392E+03  0.30876663260E+03  0.79886623877E+02 0.  0.
          4    1    4    4  502    0  0.27753869908E+02  0.45416594838E+02  0.93873188244E+01  0.54046888313E+02  0.00000000000E+00 0. -1.
         -3    1    4    4    0  502 -0.36267794241E+02  0.37804933025E+02 -0.43210889002E+02  0.67909843090E+02  0.00000000000E+00 0.  1.
          5    1    3    3  503    0 -0.64736395964E+02  0.20674411513E+02  0.68694618240E+02  0.96743334803E+02  0.47000000000E+01 0. -1.
         11    1    6    6    0    0  0.30616507950E+02 -0.48917391168E+02  0.18370646373E+03  0.19255738504E+03  0.00000000000E+00 0. -1.
        -12    1    6    6    0    0  0.32016084433E+02 -0.80224630192E+02  0.77740390189E+02  0.11620924756E+03  0.00000000000E+00 0.  1.
         -5    1    5    5    0  501  0.10617727914E+02  0.25246081984E+02  0.24539783025E+03  0.24696616346E+03  0.47000000000E+01 0.  1.
<mgrwt>
<rscale>  2 0.22182957E+03</rscale>
<asrwt>0</asrwt>
<pdfrwt beam="1">  1        3 0.10124220E+00 0.22182957E+03</pdfrwt>
<pdfrwt beam="2">  1       -3 0.17901318E-01 0.22182957E+03</pdfrwt>
<totfact> 0.59220415E+01</totfact>
</mgrwt>
</event>
<event>
12    1  0.5759937E-002  0.1762933E+03  0.7546771E-02  0.1171439E+00
          2   -1    0    0  503    0  0.00000000000E+00  0.00000000000E+00  0.79971882060E+02  0.79971882060E+02  0.00000000000E+00 0. -1.
         -2   -1    0    0    0  501 -0.00000000000E+00 -0.00000000000E+00 -0.53634957967E+03  0.53634957967E+03  0.00000000000E+00 0.  1.
          6    2    1    2  503    0 -0.36440528375E+02  0.23716671345E+00 -0.67266722319E+02  0.18948551103E+03  0.17335506512E+03 0.  0.
         24    2    3    3    0    0 -0.31749873245E+02 -0.27189868586E+02 -0.10701401790E+03  0.14073941357E+03  0.81291076388E+02 0.  0.
         -6    2    1    2    0  501  0.36440528375E+02 -0.23716671345E+00 -0.38911097530E+03  0.42683595071E+03  0.17162053888E+03 0.  0.
        -24    2    5    5    0    0  0.13330506128E+02  0.27637345367E+02 -0.37910830664E+03  0.38897825754E+03  0.81482828984E+02 0.  0.
          2    1    4    4  502    0  0.12093258905E+02 -0.43061200467E+02 -0.49970253499E+02  0.67063702040E+02  0.00000000000E+00 0. -1.
         -1    1    4    4    0  502 -0.43843132150E+02  0.15871331881E+02 -0.57043764403E+02  0.73675711532E+02  0.00000000000E+00 0.  1.
          5    1    3    3  503    0 -0.46906551308E+01  0.27427035299E+02  0.39747295583E+02  0.48746097454E+02  0.47000000000E+01 0. -1.
         13    1    6    6    0    0 -0.27385743290E+02  0.31498382866E+02 -0.25254121847E+03  0.25596717384E+03  0.00000000000E+00 0. -1.
        -14    1    6    6    0    0  0.40716249419E+02 -0.38610374994E+01 -0.12656708817E+03  0.13301108370E+03  0.00000000000E+00 0.  1.
         -5    1    5    5    0  501  0.23110022247E+02 -0.27874512080E+02 -0.10002668653E+02  0.37857693170E+02  0.47000000000E+01 0.  1.
<mgrwt>
<rscale>  2 0.17629328E+03</rscale>
<asrwt>0</asrwt>
<pdfrwt beam="1">  1        2 0.12303366E-01 0.17629328E+03</pdfrwt>
<pdfrwt beam="2">  1       -2 0.82515320E-01 0.17629328E+03</pdfrwt>
<totfact> 0.65301698E+02</totfact>
</mgrwt>
</event>
<event>
12    1  0.5759937E-002  0.2162300E+03  0.7546771E-02  0.1136725E+00
         -4   -1    0    0    0  501 -0.00000000000E+00  0.00000000000E+00  0.57399215535E+02  0.57399215535E+02  0.00000000000E+00 0. -1.
          4   -1    0    0  503    0  0.00000000000E+00 -0.00000000000E+00 -0.81505835158E+03  0.81505835158E+03  0.00000000000E+00 0.  1.
          6    2    1    2  503    0 -0.10588297122E+03  0.71903011386E+02 -0.36772841485E+03  0.42648101535E+03  0.17401328320E+03 0.  0.
         24    2    3    3    0    0 -0.18742350789E+02  0.10141169207E+03 -0.19445293595E+03  0.23023950203E+03  0.67547590580E+02 0.  0.
         -6    2    1    2    0  501  0.10588297122E+03 -0.71903011386E+02 -0.38993072120E+03  0.44597655177E+03  0.17455048195E+03 0.  0.
        -24    2    5    5    0    0 -0.40730883910E+01 -0.39929470360E+02 -0.24483722880E+03  0.26107967806E+03  0.81279622515E+02 0.  0.
          2    1    4    4  502    0 -0.18545459298E+02  0.11157942835E+03 -0.17872683790E+03  0.21151166747E+03  0.00000000000E+00 0. -1.
         -1    1    4    4    0  502 -0.19689149119E+00 -0.10167736279E+02 -0.15726098049E+02  0.18727834555E+02  0.00000000000E+00 0.  1.
          5    1    3    3  503    0 -0.87140620428E+02 -0.29508680683E+02 -0.17327547890E+03  0.19624151332E+03  0.47000000000E+01 0. -1.
         13    1    6    6    0    0  0.98716713851E+01 -0.29055972798E+02 -0.22528521762E+02  0.38068802765E+02  0.00000000000E+00 0. -1.
        -14    1    6    6    0    0 -0.13944759776E+02 -0.10873497563E+02 -0.22230870704E+03  0.22301087529E+03  0.00000000000E+00 0.  1.
         -5    1    5    5    0  501  0.10995605961E+03 -0.31973541026E+02 -0.14509349240E+03  0.18489687371E+03  0.47000000000E+01 0.  1.
<mgrwt>
<rscale>  2 0.21622997E+03</rscale>
<asrwt>0</asrwt>
<pdfrwt beam="2">  1        4 0.12539358E+00 0.21622997E+03</pdfrwt>
<pdfrwt beam="1">  1       -4 0.88306493E-02 0.21622997E+03</pdfrwt>
<totfact> 0.83657446E+01</totfact>
</mgrwt>
</event>
<event>
12    1  0.5759937E-002  0.1835686E+03  0.7546771E-02  0.1164393E+00
          2   -1    0    0  503    0  0.00000000000E+00  0.00000000000E+00  0.12870144210E+04  0.12870144210E+04  0.00000000000E+00 0.  1.
         -2   -1    0    0    0  501 -0.00000000000E+00 -0.00000000000E+00 -0.28971672321E+02  0.28971672321E+02  0.00000000000E+00 0. -1.
          6    2    1    2  503    0 -0.23841216087E+02  0.62713968273E+02  0.42683168695E+03  0.46488181822E+03  0.17154699217E+03 0.  0.
         24    2    3    3    0    0 -0.75574008488E+02  0.64389376736E+02  0.34616470650E+03  0.36892171954E+03  0.80098742351E+02 0.  0.
         -6    2    1    2    0  501  0.23841216087E+02 -0.62713968273E+02  0.83121106174E+03  0.85110427512E+03  0.17019169357E+03 0.  0.
        -24    2    5    5    0    0 -0.38985118073E+02 -0.45127916180E+02  0.30884162589E+03  0.32465547893E+03  0.80384462857E+02 0.  0.
          2    1    4    4  502    0 -0.19498792294E+02  0.54719486588E+02  0.25438727924E+03  0.26093545744E+03  0.00000000000E+00 0. -1.
         -1    1    4    4    0  502 -0.56075216194E+02  0.96698901478E+01  0.91777427269E+02  0.10798626210E+03  0.00000000000E+00 0.  1.
          5    1    3    3  503    0  0.51732792401E+02 -0.16754084632E+01  0.80666980450E+02  0.95960098676E+02  0.47000000000E+01 0. -1.
         11    1    6    6    0    0  0.31027272171E+01 -0.56326232674E+02  0.16614953153E+03  0.17546492023E+03  0.00000000000E+00 0. -1.
        -12    1    6    6    0    0 -0.42087845290E+02  0.11198316494E+02  0.14269209436E+03  0.14919055870E+03  0.00000000000E+00 0.  1.
         -5    1    5    5    0  501  0.62826334160E+02 -0.17586052093E+02  0.52236943586E+03  0.52644879619E+03  0.47000000000E+01 0.  1.
<mgrwt>
<rscale>  2 0.18356863E+03</rscale>
<asrwt>0</asrwt>
<pdfrwt beam="1">  1        2 0.19800217E+00 0.18356863E+03</pdfrwt>
<pdfrwt beam="2">  1       -2 0.44571813E-02 0.18356863E+03</pdfrwt>
<totfact> 0.41303402E+03</totfact>
</mgrwt>
</event>
<event>
12    1  0.5759937E-002  0.1981994E+03  0.7546771E-02  0.1151267E+00
         -1   -1    0    0    0  501 -0.00000000000E+00  0.00000000000E+00  0.75449232559E+02  0.75449232559E+02  0.00000000000E+00 0.  1.
          1   -1    0    0  503    0  0.00000000000E+00 -0.00000000000E+00 -0.60528849038E+03  0.60528849038E+03  0.00000000000E+00 0. -1.
          6    2    1    2  503    0  0.17528181860E+02 -0.95649108155E+02 -0.13812986850E+03  0.24192870255E+03  0.17318674169E+03 0.  0.
         24    2    3    3    0    0  0.31264213478E+02 -0.35157345128E+02 -0.15173807289E+03  0.17824820958E+03  0.80836201632E+02 0.  0.
         -6    2    1    2    0  501 -0.17528181860E+02  0.95649108155E+02 -0.39170938932E+03  0.43880902038E+03  0.17222404490E+03 0.  0.
        -24    2    5    5    0    0  0.40125627906E+02  0.25772604125E+02 -0.15489328863E+03  0.18521358837E+03  0.89654053533E+02 0.  0.
          4    1    4    4  502    0  0.56332725535E+02 -0.34473453129E+02 -0.12631018973E+03  0.14253441327E+03  0.00000000000E+00 0. -1.
         -3    1    4    4    0  502 -0.25068512057E+02 -0.68389199913E+00 -0.25427883160E+02  0.35713796312E+02  0.00000000000E+00 0.  1.
          5    1    3    3  503    0 -0.13736031618E+02 -0.60491763027E+02  0.13608204384E+02  0.63680492973E+02  0.47000000000E+01 0. -1.
         13    1    6    6    0    0  0.47882926773E+02  0.31173072373E+02 -0.16302346266E+03  0.17274601151E+03  0.00000000000E+00 0. -1.
        -14    1    6    6    0    0 -0.77572988674E+01 -0.54004682484E+01  0.81301740226E+01  0.12467576856E+02  0.00000000000E+00 0.  1.
         -5    1    5    5    0  501 -0.57653809766E+02  0.69876504030E+02 -0.23681610068E+03  0.25359543201E+03  0.47000000000E+01 0.  1.
<mgrwt>
<rscale>  2 0.19819945E+03</rscale>
<asrwt>0</asrwt>
<pdfrwt beam="2">  1        1 0.93121306E-01 0.19819945E+03</pdfrwt>
<pdfrwt beam="1">  1       -1 0.11607574E-01 0.19819945E+03</pdfrwt>
<totfact> 0.16688952E+03</totfact>
</mgrwt>
</event>
<event>
12    1  0.5759937E-002  0.2101806E+03  0.7546771E-02  0.1141423E+00
         -1   -1    0    0    0  501 -0.00000000000E+00  0.00000000000E+00  0.40152509995E+03  0.40152509995E+03  0.00000000000E+00 0. -1.
          1   -1    0    0  503    0  0.00000000000E+00 -0.00000000000E+00 -0.15001785244E+03  0.15001785244E+03  0.00000000000E+00 0.  1.
          6    2    1    2  503    0 -0.84005184470E+02 -0.83793404525E+02 -0.16907933614E+02  0.21025029565E+03  0.17274577547E+03 0.  0.
         24    2    3    3    0    0 -0.10690305157E+03 -0.11034133244E+03 -0.17614254035E+02  0.17487101241E+03  0.81646414223E+02 0.  0.
         -6    2    1    2    0  501  0.84005184470E+02  0.83793404525E+02  0.26841518112E+03  0.34129265674E+03  0.17422905162E+03 0.  0.
        -24    2    5    5    0    0  0.10780254132E+03  0.11086430599E+03  0.22583252566E+03  0.28530586861E+03  0.80540839068E+02 0.  0.
          2    1    4    4  502    0 -0.10503070537E+03 -0.95961619411E+02  0.11102938901E+02  0.14270023378E+03  0.00000000000E+00 0. -1.
         -1    1    4    4    0  502 -0.18723462036E+01 -0.14379713029E+02 -0.28717192936E+02  0.32170778623E+02  0.00000000000E+00 0.  1.
          5    1    3    3  503    0  0.22897867101E+02  0.26547927915E+02  0.70632042107E+00  0.35379283244E+02  0.47000000000E+01 0. -1.
         13    1    6    6    0    0  0.74277527326E+02  0.65921103824E+02  0.20056475588E+03  0.22380563955E+03  0.00000000000E+00 0. -1.
        -14    1    6    6    0    0  0.33525013992E+02  0.44943202169E+02  0.25267769789E+02  0.61500229060E+02  0.00000000000E+00 0.  1.
         -5    1    5    5    0  501 -0.23797356848E+02 -0.27070901468E+02  0.42582655458E+02  0.55986788130E+02  0.47000000000E+01 0.  1.
<mgrwt>
<rscale>  2 0.21018061E+03</rscale>
<asrwt>0</asrwt>
<pdfrwt beam="2">  1        1 0.23079670E-01 0.21018061E+03</pdfrwt>
<pdfrwt beam="1">  1       -1 0.61773092E-01 0.21018061E+03</pdfrwt>
<totfact> 0.58380875E+02</totfact>
</mgrwt>
</event>
<event>
12    1  0.5759937E-002  0.1767643E+03  0.7546771E-02  0.1170972E+00
          2   -1    0    0  503    0  0.00000000000E+00  0.00000000000E+00  0.58489361302E+03  0.58489361302E+03  0.00000000000E+00 0.  1.
         -2   -1    0    0    0  501 -0.00000000000E+00 -0.00000000000E+00 -0.56654029492E+02  0.56654029492E+02  0.00000000000E+00 0. -1.
          6    2    1    2  503    0 -0.42003860292E+02  0.16510396798E-01  0.18867059506E+03  0.25910546226E+03  0.17255353540E+03 0.  0.
         24    2    3    3    0    0  0.22911709499E+02 -0.23688510243E+02  0.16305157872E+03  0.18525166613E+03  0.81524662088E+02 0.  0.
         -6    2    1    2    0  501  0.42003860292E+02 -0.16510396798E-01  0.33956898847E+03  0.38244218026E+03  0.17085256438E+03 0.  0.
        -24    2    5    5    0    0  0.91863943051E+02 -0.22906387479E+01  0.27255980028E+03  0.29875513935E+03  0.80756160786E+02 0.  0.
          2    1    4    4  502    0  0.11791359311E+01 -0.16225857741E+02 -0.38972558835E+01  0.16728939727E+02  0.00000000000E+00 0. -1.
         -1    1    4    4    0  502  0.21732573568E+02 -0.74626525021E+01  0.16694883461E+03  0.16852272640E+03  0.00000000000E+00 0.  1.
          5    1    3    3  503    0 -0.64915569791E+02  0.23705020640E+02  0.25619016334E+02  0.73853796130E+02  0.47000000000E+01 0. -1.
         11    1    6    6    0    0  0.29587474761E+02 -0.10827419137E+02  0.17451580202E+02  0.36016792187E+02  0.00000000000E+00 0. -1.
        -12    1    6    6    0    0  0.62276468289E+02  0.85367803891E+01  0.25510822008E+03  0.26273834717E+03  0.00000000000E+00 0.  1.
         -5    1    5    5    0  501 -0.49860082759E+02  0.22741283511E+01  0.67009188194E+02  0.83687040902E+02  0.47000000000E+01 0.  1.
<mgrwt>
<rscale>  2 0.17676431E+03</rscale>
<asrwt>0</asrwt>
<pdfrwt beam="1">  1        2 0.89983628E-01 0.17676431E+03</pdfrwt>
<pdfrwt beam="2">  1       -2 0.87160050E-02 0.17676431E+03</pdfrwt>
<totfact> 0.42103481E+03</totfact>
</mgrwt>
</event>
<event>
12    1  0.5759937E-002  0.2542596E+03  0.7546771E-02  0.1110642E+00
          2   -1    0    0  503    0  0.00000000000E+00  0.00000000000E+00  0.30951493993E+02  0.30951493993E+02  0.00000000000E+00 0.  1.
         -2   -1    0    0    0  501 -0.00000000000E+00 -0.00000000000E+00 -0.30105745729E+04  0.30105745729E+04  0.00000000000E+00 0. -1.
          6    2    1    2  503    0  0.17893665976E+03 -0.52433348270E+02 -0.23318648850E+04  0.23456994010E+04  0.17304408003E+03 0.  0.
         24    2    3    3    0    0  0.74942843206E+02 -0.86034585173E+02 -0.15292832213E+04  0.15356974418E+04  0.81492834864E+02 0.  0.
         -6    2    1    2    0  501 -0.17893665976E+03  0.52433348270E+02 -0.64775819389E+03  0.69582666590E+03  0.17267451175E+03 0.  0.
        -24    2    5    5    0    0 -0.16537782732E+03  0.78615581233E+02 -0.63042687034E+03  0.66130397719E+03  0.79716221752E+02 0.  0.
          4    1    4    4  502    0  0.38455459390E+02 -0.67198951602E+02 -0.13287249249E+04  0.13309787554E+04  0.00000000000E+00 0. -1.
         -3    1    4    4    0  502  0.36487383816E+02 -0.18835633571E+02 -0.20055829646E+03  0.20471868637E+03  0.00000000000E+00 0.  1.
          5    1    3    3  503    0  0.10399381655E+03  0.33601236902E+02 -0.80258166371E+03  0.81000195921E+03  0.47000000000E+01 0. -1.
         11    1    6    6    0    0 -0.10418401679E+02  0.38127093952E+02 -0.12904735647E+03  0.13496458275E+03  0.00000000000E+00 0. -1.
        -12    1    6    6    0    0 -0.15495942564E+03  0.40488487282E+02 -0.50137951387E+03  0.52633939443E+03  0.00000000000E+00 0.  1.
         -5    1    5    5    0  501 -0.13558832437E+02 -0.26182232963E+02 -0.17331323546E+02  0.34522688711E+02  0.47000000000E+01 0.  1.
<mgrwt>
<rscale>  2 0.25425956E+03</rscale>
<asrwt>0</asrwt>
<pdfrwt beam="1">  1        2 0.47617680E-02 0.25425956E+03</pdfrwt>
<pdfrwt beam="2">  1       -2 0.46316535E+00 0.25425956E+03</pdfrwt>
<totfact> 0.58798536E+00</totfact>
</mgrwt>
</event>
<event>
12    1  0.5759937E-002  0.2044289E+03  0.7546771E-02  0.1146055E+00
         -1   -1    0    0    0  501 -0.00000000000E+00  0.00000000000E+00  0.96391383492E+02  0.96391383492E+02  0.00000000000E+00 0. -1.
          1   -1    0    0  503    0  0.00000000000E+00 -0.00000000000E+00 -0.47135994997E+03  0.47135994997E+03  0.00000000000E+00 0.  1.
          6    2    1    2  503    0  0.92522424806E+02 -0.33350901891E+02 -0.27285226607E+03  0.34493379653E+03  0.18670373092E+03 0.  0.
         24    2    3    3    0    0  0.12224833775E+03  0.94115138185E+01 -0.24533871949E+03  0.28584623995E+03  0.80521754432E+02 0.  0.
         -6    2    1    2    0  501 -0.92522424806E+02  0.33350901891E+02 -0.10211630041E+03  0.22281753693E+03  0.17189308947E+03 0.  0.
        -24    2    5    5    0    0 -0.11812019302E+03  0.63450311092E+02 -0.90446007357E+02  0.18135061142E+03  0.82031957415E+02 0.  0.
          2    1    4    4  502    0  0.25138543869E+02  0.16670917513E+02 -0.11047872214E+02  0.32123532792E+02  0.00000000000E+00 0. -1.
         -1    1    4    4    0  502  0.97109793877E+02 -0.72594036948E+01 -0.23429084728E+03  0.25372270715E+03  0.00000000000E+00 0.  1.
          5    1    3    3  503    0 -0.29725912939E+02 -0.42762415710E+02 -0.27513546581E+02  0.59087556582E+02  0.47000000000E+01 0. -1.
         13    1    6    6    0    0 -0.14195329153E+02  0.13377018251E+02  0.15352615262E+02  0.24822465277E+02  0.00000000000E+00 0. -1.
        -14    1    6    6    0    0 -0.10392486387E+03  0.50073292841E+02 -0.10579862262E+03  0.15652814614E+03  0.00000000000E+00 0.  1.
         -5    1    5    5    0  501  0.25597768215E+02 -0.30099409200E+02 -0.11670293049E+02  0.41466925514E+02  0.47000000000E+01 0.  1.
<mgrwt>
<rscale>  2 0.20442885E+03</rscale>
<asrwt>0</asrwt>
<pdfrwt beam="2">  1        1 0.72516916E-01 0.20442885E+03</pdfrwt>
<pdfrwt beam="1">  1       -1 0.14829443E-01 0.20442885E+03</pdfrwt>
<totfact> 0.15910791E+03</totfact>
</mgrwt>
</event>
<event>
12    1  0.5759937E-002  0.2112031E+03  0.7546771E-02  0.1140617E+00
         -2   -1    0    0    0  501 -0.00000000000E+00  0.00000000000E+00  0.16790220969E+04  0.16790220969E+04  0.00000000000E+00 0.  1.
          2   -1    0    0  503    0  0.00000000000E+00 -0.00000000000E+00 -0.26570673363E+02  0.26570673363E+02  0.00000000000E+00 0. -1.
          6    2    1    2  503    0 -0.74164639670E+02 -0.91738198845E+02  0.81374128361E+03  0.84050044142E+03  0.17421201013E+03 0.  0.
         24    2    3    3    0    0 -0.67334131024E+02 -0.10606419897E+02  0.64120379908E+03  0.64965942128E+03  0.79174935106E+02 0.  0.
         -6    2    1    2    0  501  0.74164639670E+02  0.91738198845E+02  0.83871013991E+03  0.86509232883E+03  0.17616397957E+03 0.  0.
        -24    2    5    5    0    0  0.39905881212E+02  0.69270361013E+02  0.80189603722E+03  0.80981272658E+03  0.79803103609E+02 0.  0.
          2    1    4    4  502    0 -0.44169074532E+02  0.19565698908E+02  0.52862502836E+03  0.53082779159E+03  0.00000000000E+00 0. -1.
         -1    1    4    4    0  502 -0.23165056492E+02 -0.30172118805E+02  0.11257877073E+03  0.11883162969E+03  0.00000000000E+00 0.  1.
          5    1    3    3  503    0 -0.68305086457E+01 -0.81131778948E+02  0.17253748452E+03  0.19084102014E+03  0.47000000000E+01 0. -1.
         11    1    6    6    0    0  0.36521656701E+02  0.75310382371E+02  0.44228148891E+03  0.45013153692E+03  0.00000000000E+00 0. -1.
        -12    1    6    6    0    0  0.33842245112E+01 -0.60400213576E+01  0.35961454831E+03  0.35968118966E+03  0.00000000000E+00 0.  1.
         -5    1    5    5    0  501  0.34258758457E+02  0.22467837832E+02  0.36814102690E+02  0.55279602248E+02  0.47000000000E+01 0.  1.
<mgrwt>
<rscale>  2 0.21120314E+03</rscale>
<asrwt>0</asrwt>
<pdfrwt beam="2">  1        2 0.40877972E-02 0.21120314E+03</pdfrwt>
<pdfrwt beam="1">  1       -2 0.25831101E+00 0.21120314E+03</pdfrwt>
<totfact> 0.13206848E+02</totfact>
</mgrwt>
</event>
<event>
12    1  0.5759937E-002  0.2325365E+03  0.7546771E-02  0.1124867E+00
          3   -1    0    0  503    0  0.00000000000E+00  0.00000000000E+00  0.32944513784E+02  0.32944513784E+02  0.00000000000E+00 0. -1.
         -3   -1    0    0    0  501 -0.00000000000E+00 -0.00000000000E+00 -0.16515257279E+04  0.16515257279E+04  0.00000000000E+00 0.  1.
          6    2    1    2  503    0 -0.82923418784E+02 -0.13191507557E+03 -0.87506637302E+03  0.90540936640E+03  0.17247342701E+03 0.  0.
         24    2    3    3    0    0 -0.94743859725E+02 -0.99651314485E+02 -0.42334558619E+03  0.45235922308E+03  0.80626285579E+02 0.  0.
         -6    2    1    2    0  501  0.82923418784E+02  0.13191507557E+03 -0.74351484107E+03  0.77906087526E+03  0.17275314158E+03 0.  0.
        -24    2    5    5    0    0 -0.10247338243E+02  0.60024053863E+02 -0.26763056350E+03  0.28881905268E+03  0.89902345298E+02 0.  0.
          2    1    4    4  502    0 -0.34279736427E+02 -0.42938709712E+02 -0.67752493443E+02  0.87230920487E+02  0.00000000000E+00 0. -1.
         -1    1    4    4    0  502 -0.60464123298E+02 -0.56712604773E+02 -0.35559309275E+03  0.36512830259E+03  0.00000000000E+00 0.  1.
          5    1    3    3  503    0  0.11820440941E+02 -0.32263761086E+02 -0.45172078683E+03  0.45305014332E+03  0.47000000000E+01 0. -1.
         11    1    6    6    0    0  0.33773852982E+01  0.78558789207E+01  0.56638181198E+01  0.10256724661E+02  0.00000000000E+00 0. -1.
        -12    1    6    6    0    0 -0.13624723541E+02  0.52168174943E+02 -0.27329438162E+03  0.27856232802E+03  0.00000000000E+00 0.  1.
         -5    1    5    5    0  501  0.93170757027E+02  0.71891021707E+02 -0.47588427757E+03  0.49024182258E+03  0.47000000000E+01 0.  1.
<mgrwt>
<rscale>  2 0.23253650E+03</rscale>
<asrwt>0</asrwt>
<pdfrwt beam="1">  1        3 0.50683874E-02 0.23253650E+03</pdfrwt>
<pdfrwt beam="2">  1       -3 0.25408085E+00 0.23253650E+03</pdfrwt>
<totfact> 0.43095828E+01</totfact>
</mgrwt>
</event>
<event>
12    1  0.5759937E-002  0.2916015E+03  0.7546771E-02  0.1089516E+00
         -2   -1    0    0    0  501 -0.00000000000E+00  0.00000000000E+00  0.21888501057E+03  0.21888501057E+03  0.00000000000E+00 0.  1.
          2   -1    0    0  503    0  0.00000000000E+00 -0.00000000000E+00 -0.41673842612E+03  0.41673842612E+03  0.00000000000E+00 0. -1.
          6    2    1    2  503    0 -0.15435743748E+03  0.16627700892E+03 -0.17948416842E+03  0.33726120791E+03  0.17336750978E+03 0.  0.
         24    2    3    3    0    0 -0.18147318627E+03  0.13783575974E+03 -0.13197283253E+03  0.27542605993E+03  0.80693692228E+02 0.  0.
         -6    2    1    2    0  501  0.15435743748E+03 -0.16627700892E+03 -0.18369247127E+02  0.29836222878E+03  0.19289460366E+03 0.  0.
        -24    2    5    5    0    0  0.15157566866E+03 -0.50013170855E+02  0.79239030468E+01  0.17903730253E+03  0.80715964155E+02 0.  0.
          4    1    4    4  502    0 -0.12361026248E+03  0.89646151741E+02 -0.12928499991E+03  0.20007633722E+03  0.00000000000E+00 0. -1.
         -3    1    4    4    0  502 -0.57862923793E+02  0.48189608003E+02 -0.26878326172E+01  0.75349722717E+02  0.00000000000E+00 0.  1.
          5    1    3    3  503    0  0.27115748791E+02  0.28441249175E+02 -0.47511335893E+02  0.61835147978E+02  0.47000000000E+01 0. -1.
         13    1    6    6    0    0  0.40861118624E+02  0.20141076834E+02 -0.10303387090E+02  0.46706035764E+02  0.00000000000E+00 0. -1.
        -14    1    6    6    0    0  0.11071455003E+03 -0.70154247689E+02  0.18227290136E+02  0.13233126676E+03  0.00000000000E+00 0.  1.
         -5    1    5    5    0  501  0.27817688248E+01 -0.11626383806E+03 -0.26293150174E+02  0.11932492625E+03  0.47000000000E+01 0.  1.
<mgrwt>
<rscale>  2 0.29160146E+03</rscale>
<asrwt>0</asrwt>
<pdfrwt beam="2">  1        2 0.64113603E-01 0.29160146E+03</pdfrwt>
<pdfrwt beam="1">  1       -2 0.33674617E-01 0.29160146E+03</pdfrwt>
<totfact> 0.63248486E+02</totfact>
</mgrwt>
</event>
<event>
12    1  0.5759937E-002  0.1798562E+03  0.7546771E-02  0.1167942E+00
          1   -1    0    0  503    0  0.00000000000E+00  0.00000000000E+00  0.12036757215E+04  0.12036757215E+04  0.00000000000E+00 0.  1.
         -1   -1    0    0    0  501 -0.00000000000E+00 -0.00000000000E+00 -0.54895153213E+02  0.54895153213E+02  0.00000000000E+00 0. -1.
          6    2    1    2  503    0 -0.51837493459E+02  0.10289254985E+02  0.12646002096E+03  0.22073185924E+03  0.17302434016E+03 0.  0.
         24    2    3    3    0    0  0.35745864946E+02  0.60762646356E+01  0.39763745925E+02  0.97334419797E+02  0.81105770045E+02 0.  0.
         -6    2    1    2    0  501  0.51837493459E+02 -0.10289254985E+02  0.10223205474E+04  0.10378390155E+04  0.17081430282E+03 0.  0.
        -24    2    5    5    0    0  0.67649111184E+02  0.48578158831E+02  0.59487378150E+03  0.60604252721E+03  0.80476636997E+02 0.  0.
          4    1    4    4  502    0  0.25429116899E+02  0.15739238062E+02 -0.19963697072E+02  0.35957096682E+02  0.00000000000E+00 0. -1.
         -3    1    4    4    0  502  0.10316748047E+02 -0.96629734267E+01  0.59727442997E+02  0.61377323115E+02  0.00000000000E+00 0.  1.
          5    1    3    3  503    0 -0.87583358404E+02  0.42129903492E+01  0.86696275034E+02  0.12339743945E+03  0.47000000000E+01 0. -1.
         11    1    6    6    0    0  0.29986466735E+02  0.15768298772E+02  0.60507725624E+02  0.69347042428E+02  0.00000000000E+00 0. -1.
        -12    1    6    6    0    0  0.37662644449E+02  0.32809860059E+02  0.53436605588E+03  0.53669548478E+03  0.00000000000E+00 0.  1.
         -5    1    5    5    0  501 -0.15811617725E+02 -0.58867413816E+02  0.42744676585E+03  0.43179648830E+03  0.47000000000E+01 0.  1.
<mgrwt>
<rscale>  2 0.17985616E+03</rscale>
<asrwt>0</asrwt>
<pdfrwt beam="1">  1        1 0.18518086E+00 0.17985616E+03</pdfrwt>
<pdfrwt beam="2">  1       -1 0.84454091E-02 0.17985616E+03</pdfrwt>
<totfact> 0.90792522E+02</totfact>
</mgrwt>
</event>
<event>
12    1  0.5759937E-002  0.1811489E+03  0.7546771E-02  0.1166696E+00
         -1   -1    0    0    0  501 -0.00000000000E+00  0.00000000000E+00  0.38887933689E+02  0.38887933689E+02  0.00000000000E+00 0.  1.
          1   -1    0    0  503    0  0.00000000000E+00 -0.00000000000E+00 -0.17309482346E+04  0.17309482346E+04  0.00000000000E+00 0. -1.
          6    2    1    2  503    0 -0.44012750502E+02 -0.31612255916E+02 -0.14786413680E+04  0.14896487574E+04  0.17244323233E+03 0.  0.
         24    2    3    3    0    0 -0.18962631545E+02  0.32952484637E+02 -0.11792554754E+04  0.11823213801E+04  0.76124384071E+02 0.  0.
         -6    2    1    2    0  501  0.44012750502E+02  0.31612255916E+02 -0.21341893295E+03  0.28018741092E+03  0.17326536689E+03 0.  0.
        -24    2    5    5    0    0 -0.30998517920E+02  0.28308920377E+02 -0.17232741621E+03  0.19446573825E+03  0.79736327295E+02 0.  0.
          4    1    4    4  502    0 -0.41147447292E+02 -0.16864502509E+01 -0.73966761387E+03  0.74081315832E+03  0.00000000000E+00 0. -1.
         -3    1    4    4    0  502  0.22184815748E+02  0.34638934888E+02 -0.43958786156E+03  0.44150822177E+03  0.00000000000E+00 0.  1.
          5    1    3    3  503    0 -0.25050118957E+02 -0.64564740553E+02 -0.29938589256E+03  0.30732737731E+03  0.47000000000E+01 0. -1.
         13    1    6    6    0    0 -0.29545525097E+02  0.49259590004E+02 -0.16026335154E+03  0.17024625431E+03  0.00000000000E+00 0. -1.
        -14    1    6    6    0    0 -0.14529928227E+01 -0.20950669627E+02 -0.12064064670E+02  0.24219483940E+02  0.00000000000E+00 0.  1.
         -5    1    5    5    0  501  0.75011268421E+02  0.33033355387E+01 -0.41091516742E+02  0.85721672662E+02  0.47000000000E+01 0.  1.
<mgrwt>
<rscale>  2 0.18114891E+03</rscale>
<asrwt>0</asrwt>
<pdfrwt beam="2">  1        1 0.26629983E+00 0.18114891E+03</pdfrwt>
<pdfrwt beam="1">  1       -1 0.59827569E-02 0.18114891E+03</pdfrwt>
<totfact> 0.68535892E+02</totfact>
</mgrwt>
</event>
<event>
12    1  0.5759937E-002  0.1869167E+03  0.7546771E-02  0.1161272E+00
          2   -1    0    0  503    0  0.00000000000E+00  0.00000000000E+00  0.62555228963E+03  0.62555228963E+03  0.00000000000E+00 0. -1.
         -2   -1    0    0    0  501 -0.00000000000E+00 -0.00000000000E+00 -0.57221166308E+02  0.57221166308E+02  0.00000000000E+00 0.  1.
          6    2    1    2  503    0 -0.12887185265E+02 -0.73554629174E+02  0.33451784997E+03  0.38241779550E+03  0.16960193204E+03 0.  0.
         24    2    3    3    0    0  0.24532917748E+01  0.38126291366E+02  0.13029640452E+03  0.14910160011E+03  0.61599524283E+02 0.  0.
         -6    2    1    2    0  501  0.12887185265E+02  0.73554629174E+02  0.23381327335E+03  0.30035566044E+03  0.17311416159E+03 0.  0.
        -24    2    5    5    0    0 -0.18801163408E+02  0.10092858431E+03  0.10931705657E+03  0.16892171180E+03  0.77744858242E+02 0.  0.
          4    1    4    4  502    0  0.11112308539E+02 -0.35558111790E+01  0.89099135548E+02  0.89859797182E+02  0.00000000000E+00 0. -1.
         -3    1    4    4    0  502 -0.86590167637E+01  0.41682102545E+02  0.41197268971E+02  0.59241802931E+02  0.00000000000E+00 0.  1.
          5    1    3    3  503    0 -0.15340477040E+02 -0.11168092054E+03  0.20422144545E+03  0.23331619539E+03  0.47000000000E+01 0. -1.
         11    1    6    6    0    0 -0.19853196788E+02  0.23162316190E+01 -0.21364725642E+01  0.20101713027E+02  0.00000000000E+00 0. -1.
        -12    1    6    6    0    0  0.10520333798E+01  0.98612352693E+02  0.11145352913E+03  0.14881999877E+03  0.00000000000E+00 0.  1.
         -5    1    5    5    0  501  0.31688348673E+02 -0.27373955138E+02  0.12449621678E+03  0.13143394864E+03  0.47000000000E+01 0.  1.
<mgrwt>
<rscale>  2 0.18691668E+03</rscale>
<asrwt>0</asrwt>
<pdfrwt beam="1">  1        2 0.96238809E-01 0.18691668E+03</pdfrwt>
<pdfrwt beam="2">  1       -2 0.88032568E-02 0.18691668E+03</pdfrwt>
<totfact> 0.38441732E+03</totfact>
</mgrwt>
</event>
<event>
12    1  0.5759937E-002  0.2750116E+03  0.7546771E-02  0.1098445E+00
         -2   -1    0    0    0  501 -0.00000000000E+00  0.00000000000E+00  0.14819587958E+03  0.14819587958E+03  0.00000000000E+00 0. -1.
          2   -1    0    0  503    0  0.00000000000E+00 -0.00000000000E+00 -0.58581635627E+03  0.58581635627E+03  0.00000000000E+00 0.  1.
          6    2    1    2  503    0  0.19733910412E+03  0.81517620744E+02 -0.86690440062E+02  0.28780939914E+03  0.17242729868E+03 0.  0.
         24    2    3    3    0    0  0.10111995585E+03  0.45470937998E+02  0.26320810926E+02  0.13499866431E+03  0.72380954705E+02 0.  0.
         -6    2    1    2    0  501 -0.19733910412E+03 -0.81517620744E+02 -0.35093003663E+03  0.44620283670E+03  0.17423328145E+03 0.  0.
        -24    2    5    5    0    0 -0.13958923914E+03 -0.67254712265E+02 -0.13390251411E+03  0.22112171134E+03  0.83406090520E+02 0.  0.
          4    1    4    4  502    0  0.77910131120E+02  0.47543955499E+02  0.48041845659E+02  0.10314279020E+03  0.00000000000E+00 0. -1.
         -3    1    4    4    0  502  0.23209824734E+02 -0.20730175008E+01 -0.21721034733E+02  0.31855874114E+02  0.00000000000E+00 0.  1.
          5    1    3    3  503    0  0.96219148265E+02  0.36046682746E+02 -0.11301125099E+03  0.15281073483E+03  0.47000000000E+01 0. -1.
         13    1    6    6    0    0 -0.12715635590E+03 -0.42937044006E+02 -0.13913265751E+03  0.19331379925E+03  0.00000000000E+00 0. -1.
        -14    1    6    6    0    0 -0.12432883235E+02 -0.24317668259E+02  0.52301433945E+01  0.27807912094E+02  0.00000000000E+00 0.  1.
         -5    1    5    5    0  501 -0.57749864981E+02 -0.14262908479E+02 -0.21702752252E+03  0.22508112536E+03  0.47000000000E+01 0.  1.
<mgrwt>
<rscale>  2 0.27501164E+03</rscale>
<asrwt>0</asrwt>
<pdfrwt beam="2">  1        2 0.90125591E-01 0.27501164E+03</pdfrwt>
<pdfrwt beam="1">  1       -2 0.22799367E-01 0.27501164E+03</pdfrwt>
<totfact> 0.87048382E+02</totfact>
</mgrwt>
</event>
<event>
12    1  0.5759937E-002  0.2806007E+03  0.7546771E-02  0.1095361E+00
          2   -1    0    0  503    0  0.00000000000E+00  0.00000000000E+00  0.42338132989E+03  0.42338132989E+03  0.00000000000E+00 0. -1.
         -2   -1    0    0    0  501 -0.00000000000E+00 -0.00000000000E+00 -0.18600161066E+03  0.18600161066E+03  0.00000000000E+00 0.  1.
          6    2    1    2  503    0  0.21689494128E+03 -0.30940628495E+02  0.12281850650E+03  0.30795461648E+03  0.17818788463E+03 0.  0.
         24    2    3    3    0    0  0.92879173413E+02 -0.49100478099E+02  0.92874870002E+00  0.13305780727E+03  0.81646308538E+02 0.  0.
         -6    2    1    2    0  501 -0.21689494128E+03  0.30940628495E+02  0.11456121274E+03  0.30142832407E+03  0.17243556779E+03 0.  0.
        -24    2    5    5    0    0 -0.62296267789E+02 -0.21972325998E+02  0.46830182849E+01  0.10446173244E+03  0.80788085724E+02 0.  0.
          4    1    4    4  502    0 -0.66463092609E+01 -0.29454566573E+02  0.83863766280E+01  0.31338095535E+02  0.00000000000E+00 0. -1.
         -3    1    4    4    0  502  0.99525482674E+02 -0.19645911526E+02 -0.74576279280E+01  0.10171971174E+03  0.00000000000E+00 0.  1.
          5    1    3    3  503    0  0.12401576787E+03  0.18159849604E+02  0.12188975780E+03  0.17489680921E+03  0.47000000000E+01 0. -1.
         11    1    6    6    0    0  0.16168801803E+02  0.29329938214E+01  0.14033611396E+02  0.21609600952E+02  0.00000000000E+00 0. -1.
        -12    1    6    6    0    0 -0.78465069592E+02 -0.24905319819E+02 -0.93505931109E+01  0.82852131493E+02  0.00000000000E+00 0.  1.
         -5    1    5    5    0  501 -0.15459867349E+03  0.52912954493E+02  0.10987819445E+03  0.19696659162E+03  0.47000000000E+01 0.  1.
<mgrwt>
<rscale>  2 0.28060070E+03</rscale>
<asrwt>0</asrwt>
<pdfrwt beam="1">  1        2 0.65135589E-01 0.28060070E+03</pdfrwt>
<pdfrwt beam="2">  1       -2 0.28615633E-01 0.28060070E+03</pdfrwt>
<totfact> 0.83806557E+02</totfact>
</mgrwt>
</event>
<event>
12    1  0.5759937E-002  0.2398093E+03  0.7546771E-02  0.1119920E+00
          2   -1    0    0  503    0  0.00000000000E+00  0.00000000000E+00  0.71678064578E+03  0.71678064578E+03  0.00000000000E+00 0. -1.
         -2   -1    0    0    0  501 -0.00000000000E+00 -0.00000000000E+00 -0.81345013825E+02  0.81345013825E+02  0.00000000000E+00 0.  1.
          6    2    1    2  503    0 -0.85515125248E+02 -0.14139909919E+03  0.27030760677E+03  0.36097978703E+03  0.17301347482E+03 0.  0.
         24    2    3    3    0    0 -0.79022743186E+02 -0.12212638930E+03  0.28885661772E+03  0.33305588726E+03  0.79552683992E+02 0.  0.
         -6    2    1    2    0  501  0.85515125248E+02  0.14139909919E+03  0.36512802519E+03  0.43714587258E+03  0.17456086972E+03 0.  0.
        -24    2    5    5    0    0  0.43492314871E+00  0.28539618376E+02  0.21362940553E+03  0.22990247713E+03  0.80018292330E+02 0.  0.
          2    1    4    4  502    0 -0.85579681879E+02 -0.11561974417E+03  0.29003170372E+03  0.32374402907E+03  0.00000000000E+00 0. -1.
         -1    1    4    4    0  502  0.65569386927E+01 -0.65066451354E+01 -0.11750859967E+01  0.93118581947E+01  0.00000000000E+00 0.  1.
          5    1    3    3  503    0 -0.64923820615E+01 -0.19272709887E+02 -0.18549010952E+02  0.27923899773E+02  0.47000000000E+01 0. -1.
         11    1    6    6    0    0 -0.24246685052E+02  0.40279503654E+01  0.16212430620E+02  0.29444337771E+02  0.00000000000E+00 0. -1.
        -12    1    6    6    0    0  0.24681608201E+02  0.24511668011E+02  0.19741697491E+03  0.20045813936E+03  0.00000000000E+00 0.  1.
         -5    1    5    5    0  501  0.85080202099E+02  0.11285948081E+03  0.15149861966E+03  0.20724339545E+03  0.47000000000E+01 0.  1.
<mgrwt>
<rscale>  2 0.23980928E+03</rscale>
<asrwt>0</asrwt>
<pdfrwt beam="1">  1        2 0.11027394E+00 0.23980928E+03</pdfrwt>
<pdfrwt beam="2">  1       -2 0.12514618E-01 0.23980928E+03</pdfrwt>
<totfact> 0.18760746E+03</totfact>
</mgrwt>
</event>
<event>
12    1  0.5759937E-002  0.1812281E+03  0.7546771E-02  0.1166620E+00
          4   -1    0    0  503    0  0.00000000000E+00  0.00000000000E+00  0.25623397584E+03  0.25623397584E+03  0.00000000000E+00 0.  1.
         -4   -1    0    0    0  501 -0.00000000000E+00 -0.00000000000E+00 -0.16411528595E+03  0.16411528595E+03  0.00000000000E+00 0. -1.
          6    2    1    2  503    0 -0.65234574486E+02  0.17946332627E+02  0.14513759047E+03  0.23556130996E+03  0.17276165668E+03 0.  0.
         24    2    3    3    0    0 -0.10318339883E+03 -0.13233500718E+02  0.13072997265E+03  0.18416126397E+03  0.77479713869E+02 0.  0.
         -6    2    1    2    0  501  0.65234574486E+02 -0.17946332627E+02 -0.53018900586E+02  0.18478795183E+03  0.16357861339E+03 0.  0.
        -24    2    5    5    0    0  0.48117393832E+02 -0.63908401367E+02 -0.68643289509E+02  0.13309925707E+03  0.81264652116E+02 0.  0.
          4    1    4    4  502    0  0.83365362400E+01 -0.71060102504E+01  0.36258123738E+02  0.37876704650E+02  0.00000000000E+00 0. -1.
         -3    1    4    4    0  502 -0.11151993507E+03 -0.61274904679E+01  0.94471848912E+02  0.14628455932E+03  0.00000000000E+00 0.  1.
          5    1    3    3  503    0  0.37948824344E+02  0.31179833346E+02  0.14407617823E+02  0.51400045991E+02  0.47000000000E+01 0. -1.
         13    1    6    6    0    0 -0.66406377371E+01 -0.32541706554E+02  0.76572977452E+01  0.34083646280E+02  0.00000000000E+00 0. -1.
        -14    1    6    6    0    0  0.54758031569E+02 -0.31366694813E+02 -0.76300587254E+02  0.99015610790E+02  0.00000000000E+00 0.  1.
         -5    1    5    5    0  501  0.17117180654E+02  0.45962068740E+02  0.15624388924E+02  0.51688694757E+02  0.47000000000E+01 0.  1.
<mgrwt>
<rscale>  2 0.18122806E+03</rscale>
<asrwt>0</asrwt>
<pdfrwt beam="1">  1        4 0.39420612E-01 0.18122806E+03</pdfrwt>
<pdfrwt beam="2">  1       -4 0.25248505E-01 0.18122806E+03</pdfrwt>
<totfact> 0.16130814E+02</totfact>
</mgrwt>
</event>
<event>
12    1  0.5759937E-002  0.1887501E+03  0.7546771E-02  0.1159593E+00
          4   -1    0    0  503    0  0.00000000000E+00  0.00000000000E+00  0.38039194649E+03  0.38039194649E+03  0.00000000000E+00 0.  1.
         -4   -1    0    0    0  501 -0.00000000000E+00 -0.00000000000E+00 -0.11700076510E+03  0.11700076510E+03  0.00000000000E+00 0. -1.
          6    2    1    2  503    0  0.42985239123E+02  0.62152225132E+02  0.20318244319E+02  0.18931675729E+03  0.17238727815E+03 0.  0.
         24    2    3    3    0    0  0.95118177128E+02  0.41353810654E+02  0.41193971303E+01  0.13070865273E+03  0.79436623741E+02 0.  0.
         -6    2    1    2    0  501 -0.42985239123E+02 -0.62152225132E+02  0.24307293707E+03  0.30807595429E+03  0.17353878818E+03 0.  0.
        -24    2    5    5    0    0 -0.53696621109E+02 -0.60116913610E+02  0.68071401549E+02  0.13267212414E+03  0.80441322673E+02 0.  0.
          2    1    4    4  502    0  0.72228287004E+01  0.67888637076E+00 -0.27802116440E+02  0.28733044037E+02  0.00000000000E+00 0. -1.
         -1    1    4    4    0  502  0.87895348427E+02  0.40674924283E+02  0.31921513570E+02  0.10197560870E+03  0.00000000000E+00 0.  1.
          5    1    3    3  503    0 -0.52132938005E+02  0.20798414479E+02  0.16198847188E+02  0.58608104560E+02  0.47000000000E+01 0. -1.
         13    1    6    6    0    0 -0.35377978273E+02  0.19434509477E+00 -0.54873495329E+01  0.35801537978E+02  0.00000000000E+00 0. -1.
        -14    1    6    6    0    0 -0.18318642836E+02 -0.60311258705E+02  0.73558751082E+02  0.96870586158E+02  0.00000000000E+00 0.  1.
         -5    1    5    5    0  501  0.10711381986E+02 -0.20353115224E+01  0.17500153552E+03  0.17540383015E+03  0.47000000000E+01 0.  1.
<mgrwt>
<rscale>  2 0.18875014E+03</rscale>
<asrwt>0</asrwt>
<pdfrwt beam="1">  1        4 0.58521837E-01 0.18875014E+03</pdfrwt>
<pdfrwt beam="2">  1       -4 0.18000118E-01 0.18875014E+03</pdfrwt>
<totfact> 0.13447470E+02</totfact>
</mgrwt>
</event>
<event>
12    1  0.5759937E-002  0.1847416E+03  0.7546771E-02  0.1163291E+00
         -2   -1    0    0    0  501 -0.00000000000E+00  0.00000000000E+00  0.26738178790E+02  0.26738178790E+02  0.00000000000E+00 0. -1.
          2   -1    0    0  503    0  0.00000000000E+00 -0.00000000000E+00 -0.20636073205E+04  0.20636073205E+04  0.00000000000E+00 0.  1.
          6    2    1    2  503    0  0.59968335806E+02 -0.28096669463E+02 -0.37086519500E+03  0.41406327269E+03  0.17181902339E+03 0.  0.
         24    2    3    3    0    0  0.52040667268E+02 -0.55974811743E+02 -0.36839676731E+03  0.38459766765E+03  0.79735670789E+02 0.  0.
         -6    2    1    2    0  501 -0.59968335806E+02  0.28096669463E+02 -0.16660039467E+04  0.16762822266E+04  0.17311074089E+03 0.  0.
        -24    2    5    5    0    0 -0.57649656720E+02  0.82085413053E+02 -0.11371666089E+04  0.11446703564E+04  0.84028747395E+02 0.  0.
          2    1    4    4  502    0  0.14699476233E+02 -0.62391107133E+02 -0.15285131914E+03  0.16574755085E+03  0.00000000000E+00 0. -1.
         -1    1    4    4    0  502  0.37341191035E+02  0.64162953898E+01 -0.21554544817E+03  0.21885011680E+03  0.00000000000E+00 0.  1.
          5    1    3    3  503    0  0.79276685378E+01  0.27878142279E+02 -0.24684276875E+01  0.29465605045E+02  0.47000000000E+01 0. -1.
         13    1    6    6    0    0 -0.16173743097E+02  0.49565729156E+02 -0.22415064063E+03  0.23013444150E+03  0.00000000000E+00 0. -1.
        -14    1    6    6    0    0 -0.41475913623E+02  0.32519683897E+02 -0.91301596826E+03  0.91453591485E+03  0.00000000000E+00 0.  1.
         -5    1    5    5    0  501 -0.23186790861E+01 -0.53988743590E+02 -0.52883733784E+03  0.53161187026E+03  0.47000000000E+01 0.  1.
<mgrwt>
<rscale>  2 0.18474158E+03</rscale>
<asrwt>0</asrwt>
<pdfrwt beam="2">  1        2 0.31747811E+00 0.18474158E+03</pdfrwt>
<pdfrwt beam="1">  1       -2 0.41135652E-02 0.18474158E+03</pdfrwt>
<totfact> 0.18241242E+03</totfact>
</mgrwt>
</event>
<event>
12    1  0.5759937E-002  0.2062923E+03  0.7546771E-02  0.1144536E+00
         -2   -1    0    0    0  501 -0.00000000000E+00  0.00000000000E+00  0.68174240515E+03  0.68174240515E+03  0.00000000000E+00 0.  1.
          2   -1    0    0  503    0  0.00000000000E+00 -0.00000000000E+00 -0.13341471407E+03  0.13341471407E+03  0.00000000000E+00 0. -1.
          6    2    1    2  503    0 -0.10737093516E+03  0.37682823869E+02  0.57142012692E+03  0.60748689931E+03  0.17196179359E+03 0.  0.
         24    2    3    3    0    0 -0.84410959257E+02  0.37729875249E+02  0.57175423491E+03  0.58404837685E+03  0.75238605966E+02 0.  0.
         -6    2    1    2    0  501  0.10737093516E+03 -0.37682823869E+02 -0.23092435847E+02  0.20767021991E+03  0.17217766032E+03 0.  0.
        -24    2    5    5    0    0  0.97657592272E+02 -0.75192670304E+02 -0.56120774623E+02  0.15654000603E+03  0.78512987120E+02 0.  0.
          2    1    4    4  502    0 -0.49865437988E+02 -0.16073663826E+02  0.19542622441E+03  0.20232729366E+03  0.00000000000E+00 0. -1.
         -1    1    4    4    0  502 -0.34545521270E+02  0.53803539075E+02  0.37632801051E+03  0.38172108319E+03  0.00000000000E+00 0.  1.
          5    1    3    3  503    0 -0.22959975900E+02 -0.47051380035E-01 -0.33410799196E+00  0.23438522464E+02  0.47000000000E+01 0. -1.
         11    1    6    6    0    0  0.24597911261E+02 -0.34268539105E+02 -0.59260351469E+02  0.72740492622E+02  0.00000000000E+00 0. -1.
        -12    1    6    6    0    0  0.73059681011E+02 -0.40924131199E+02  0.31395768462E+01  0.83799513404E+02  0.00000000000E+00 0.  1.
         -5    1    5    5    0  501  0.97133428852E+01  0.37509846435E+02  0.33028338775E+02  0.51130213884E+02  0.47000000000E+01 0.  1.
<mgrwt>
<rscale>  2 0.20629227E+03</rscale>
<asrwt>0</asrwt>
<pdfrwt beam="2">  1        2 0.20525341E-01 0.20629227E+03</pdfrwt>
<pdfrwt beam="1">  1       -2 0.10488344E+00 0.20629227E+03</pdfrwt>
<totfact> 0.20772334E+02</totfact>
</mgrwt>
</event>
<event>
12    1  0.5759937E-002  0.2157040E+03  0.7546771E-02  0.1137127E+00
         -2   -1    0    0    0  501 -0.00000000000E+00  0.00000000000E+00  0.39427556870E+03  0.39427556870E+03  0.00000000000E+00 0.  1.
          2   -1    0    0  503    0  0.00000000000E+00 -0.00000000000E+00 -0.23394864417E+03  0.23394864417E+03  0.00000000000E+00 0. -1.
          6    2    1    2  503    0 -0.74900296630E+02 -0.92924685714E+02 -0.14196340695E+03  0.25327337800E+03  0.17247824048E+03 0.  0.
         24    2    3    3    0    0  0.13093713201E+02 -0.96006233293E+01 -0.28157283803E+02  0.86961115061E+02  0.80658450319E+02 0.  0.
         -6    2    1    2    0  501  0.74900296630E+02  0.92924685714E+02  0.30229033149E+03  0.37495083487E+03  0.18698564761E+03 0.  0.
        -24    2    5    5    0    0  0.19456244289E+02  0.12696597102E+03  0.24480989018E+03  0.28800865191E+03  0.80735357855E+02 0.  0.
          2    1    4    4  502    0  0.30891840661E+02 -0.37625707465E+02 -0.20893056870E+02  0.52976593955E+02  0.00000000000E+00 0. -1.
         -1    1    4    4    0  502 -0.17798127460E+02  0.28025084136E+02 -0.72642269328E+01  0.33984521106E+02  0.00000000000E+00 0.  1.
          5    1    3    3  503    0 -0.87994009830E+02 -0.83324062385E+02 -0.11380612315E+03  0.16631226294E+03  0.47000000000E+01 0. -1.
         11    1    6    6    0    0 -0.99515057354E+01 -0.65086691675E+01  0.72193736521E+01  0.13910952400E+02  0.00000000000E+00 0. -1.
        -12    1    6    6    0    0  0.29407750024E+02  0.13347464019E+03  0.23759051653E+03  0.27409769952E+03  0.00000000000E+00 0.  1.
         -5    1    5    5    0  501  0.55444052341E+02 -0.34041285304E+02  0.57480441303E+02  0.86942182958E+02  0.47000000000E+01 0.  1.
<mgrwt>
<rscale>  2 0.21570405E+03</rscale>
<asrwt>0</asrwt>
<pdfrwt beam="2">  1        2 0.35992099E-01 0.21570405E+03</pdfrwt>
<pdfrwt beam="1">  1       -2 0.60657779E-01 0.21570405E+03</pdfrwt>
<totfact> 0.37272814E+02</totfact>
</mgrwt>
</event>
<event>
12    1  0.5759937E-002  0.3103252E+03  0.7546771E-02  0.1080190E+00
          2   -1    0    0  503    0  0.00000000000E+00  0.00000000000E+00  0.15259536207E+04  0.15259536207E+04  0.00000000000E+00 0. -1.
         -2   -1    0    0    0  501 -0.00000000000E+00 -0.00000000000E+00 -0.64953202870E+02  0.64953202870E+02  0.00000000000E+00 0.  1.
          6    2    1    2  503    0  0.15674857265E+03 -0.19894405230E+03  0.87133427255E+03  0.92598810155E+03  0.18461229298E+03 0.  0.
         24    2    3    3    0    0  0.64572178328E+02 -0.63189845084E+02  0.19148552217E+03  0.22660115155E+03  0.80739420015E+02 0.  0.
         -6    2    1    2    0  501 -0.15674857265E+03  0.19894405230E+03  0.58966614526E+03  0.66491872200E+03  0.17395945799E+03 0.  0.
        -24    2    5    5    0    0 -0.15186614519E+03  0.11354082287E+03  0.50115489621E+03  0.54173641440E+03  0.79795163925E+02 0.  0.
          4    1    4    4  502    0  0.61266468849E+02 -0.78239277967E+02  0.13242453124E+03  0.16556334526E+03  0.00000000000E+00 0. -1.
         -3    1    4    4    0  502  0.33057094795E+01  0.15049432883E+02  0.59060990938E+02  0.61037806283E+02  0.00000000000E+00 0.  1.
          5    1    3    3  503    0  0.92176394322E+02 -0.13575420722E+03  0.67984875037E+03  0.69938695000E+03  0.47000000000E+01 0. -1.
         13    1    6    6    0    0 -0.67131787806E+02  0.66503279698E+01  0.20161406294E+03  0.21260087999E+03  0.00000000000E+00 0. -1.
        -14    1    6    6    0    0 -0.84734357386E+02  0.10689049490E+03  0.29954083326E+03  0.32913553442E+03  0.00000000000E+00 0.  1.
         -5    1    5    5    0  501 -0.48824274582E+01  0.85403229432E+02  0.88511249054E+02  0.12318230760E+03  0.47000000000E+01 0.  1.
<mgrwt>
<rscale>  2 0.31032517E+03</rscale>
<asrwt>0</asrwt>
<pdfrwt beam="1">  1        2 0.23476207E+00 0.31032517E+03</pdfrwt>
<pdfrwt beam="2">  1       -2 0.99928016E-02 0.31032517E+03</pdfrwt>
<totfact> 0.87656760E+02</totfact>
</mgrwt>
</event>
<event>
12    1  0.5759937E-002  0.1978877E+03  0.7546771E-02  0.1151533E+00
          2   -1    0    0  503    0  0.00000000000E+00  0.00000000000E+00  0.24870955010E+03  0.24870955010E+03  0.00000000000E+00 0. -1.
         -2   -1    0    0    0  501 -0.00000000000E+00 -0.00000000000E+00 -0.15821192650E+03  0.15821192650E+03  0.00000000000E+00 0.  1.
          6    2    1    2  503    0  0.28993027986E+02  0.91859025665E+02  0.59503200013E+02  0.20732479317E+03  0.17367861925E+03 0.  0.
         24    2    3    3    0    0 -0.19875402573E+02  0.30436179787E+02  0.85606570996E+02  0.12447332681E+03  0.82726848261E+02 0.  0.
         -6    2    1    2    0  501 -0.28993027986E+02 -0.91859025665E+02  0.30994423591E+02  0.19959668343E+03  0.17204506815E+03 0.  0.
        -24    2    5    5    0    0 -0.82076776844E+02 -0.50071081451E+02  0.32479307931E+01  0.12641147634E+03  0.82009766492E+02 0.  0.
          2    1    4    4  502    0 -0.13327591513E+02  0.80227114653E+01  0.97176531309E+02  0.98413753266E+02  0.00000000000E+00 0. -1.
         -1    1    4    4    0  502 -0.65478110601E+01  0.22413468322E+02 -0.11569960313E+02  0.26059573549E+02  0.00000000000E+00 0.  1.
          5    1    3    3  503    0  0.48868430559E+02  0.61422845878E+02 -0.26103370983E+02  0.82851466358E+02  0.47000000000E+01 0. -1.
         13    1    6    6    0    0 -0.21752824465E+02  0.89280394200E+01  0.29793942750E+02  0.37954898033E+02  0.00000000000E+00 0. -1.
        -14    1    6    6    0    0 -0.60323952378E+02 -0.58999120871E+02 -0.26546011957E+02  0.88456578302E+02  0.00000000000E+00 0.  1.
         -5    1    5    5    0  501  0.53083748858E+02 -0.41787944214E+02  0.27746492798E+02  0.73185207091E+02  0.47000000000E+01 0.  1.
<mgrwt>
<rscale>  2 0.19788770E+03</rscale>
<asrwt>0</asrwt>
<pdfrwt beam="1">  1        2 0.38263008E-01 0.19788770E+03</pdfrwt>
<pdfrwt beam="2">  1       -2 0.24340296E-01 0.19788770E+03</pdfrwt>
<totfact> 0.19765340E+03</totfact>
</mgrwt>
</event>
<event>
12    1  0.5759937E-002  0.1915447E+03  0.7546771E-02  0.1157075E+00
         -2   -1    0    0    0  501 -0.00000000000E+00  0.00000000000E+00  0.27621013355E+02  0.27621013355E+02  0.00000000000E+00 0.  1.
          2   -1    0    0  503    0  0.00000000000E+00 -0.00000000000E+00 -0.13424103598E+04  0.13424103598E+04  0.00000000000E+00 0. -1.
          6    2    1    2  503    0 -0.66238369158E+01 -0.85155725610E+02 -0.72149383414E+03  0.74605032761E+03  0.16953573605E+03 0.  0.
         24    2    3    3    0    0 -0.61249089413E+02 -0.84560305615E+02 -0.43967311149E+03  0.45894532513E+03  0.80102872894E+02 0.  0.
         -6    2    1    2    0  501  0.66238369158E+01  0.85155725610E+02 -0.59329551227E+03  0.62398104552E+03  0.17337072262E+03 0.  0.
        -24    2    5    5    0    0 -0.18890167489E+02  0.92473020261E+02 -0.58115987248E+03  0.59441973677E+03  0.81730827562E+02 0.  0.
          4    1    4    4  502    0 -0.78703049779E+02 -0.68667822254E+02 -0.39299401714E+03  0.40663710771E+03  0.00000000000E+00 0. -1.
         -3    1    4    4    0  502  0.17453960366E+02 -0.15892483361E+02 -0.46679094351E+02  0.52308217416E+02  0.00000000000E+00 0.  1.
          5    1    3    3  503    0  0.54625252498E+02 -0.59541999478E+00 -0.28182072265E+03  0.28710500248E+03  0.47000000000E+01 0. -1.
         11    1    6    6    0    0 -0.15450856158E+02  0.47477342367E+02 -0.10653410712E+03  0.11765348687E+03  0.00000000000E+00 0. -1.
        -12    1    6    6    0    0 -0.34393113313E+01  0.44995677894E+02 -0.47462576536E+03  0.47676624990E+03  0.00000000000E+00 0.  1.
         -5    1    5    5    0  501  0.25514004405E+02 -0.73172946506E+01 -0.12135639794E+02  0.29561308750E+02  0.47000000000E+01 0.  1.
<mgrwt>
<rscale>  2 0.19154469E+03</rscale>
<asrwt>0</asrwt>
<pdfrwt beam="2">  1        2 0.20652466E+00 0.19154469E+03</pdfrwt>
<pdfrwt beam="1">  1       -2 0.42493869E-02 0.19154469E+03</pdfrwt>
<totfact> 0.41430547E+03</totfact>
</mgrwt>
</event>
<event>
12    1  0.5759937E-002  0.2303997E+03  0.7546771E-02  0.1126359E+00
          2   -1    0    0  503    0  0.00000000000E+00  0.00000000000E+00  0.23305675217E+04  0.23305675217E+04  0.00000000000E+00 0.  1.
         -2   -1    0    0    0  501 -0.00000000000E+00 -0.00000000000E+00 -0.29058832866E+02  0.29058832866E+02  0.00000000000E+00 0. -1.
          6    2    1    2  503    0  0.10335827446E+03  0.11224445131E+03  0.17001132562E+04  0.17156823443E+04  0.17291348342E+03 0.  0.
         24    2    3    3    0    0  0.13362156771E+03  0.11313394690E+03  0.15790338795E+04  0.15907865334E+04  0.81239084080E+02 0.  0.
         -6    2    1    2    0  501 -0.10335827446E+03 -0.11224445131E+03  0.60139543260E+03  0.64394401027E+03  0.17235333552E+03 0.  0.
        -24    2    5    5    0    0 -0.61830056032E+01 -0.42562768189E+01  0.21038851767E+03  0.22679538421E+03  0.84359187283E+02 0.  0.
          2    1    4    4  502    0  0.66444173680E+02  0.10614587868E+03  0.10634692028E+04  0.10708167542E+04  0.00000000000E+00 0. -1.
         -1    1    4    4    0  502  0.67177394026E+02  0.69880682139E+01  0.51556467670E+03  0.51996977915E+03  0.00000000000E+00 0.  1.
          5    1    3    3  503    0 -0.30263293248E+02 -0.88949559340E+00  0.12107937670E+03  0.12489581091E+03  0.47000000000E+01 0. -1.
         11    1    6    6    0    0  0.74402180587E+01 -0.34347668660E+02  0.40048612119E+02  0.53282365936E+02  0.00000000000E+00 0. -1.
        -12    1    6    6    0    0 -0.13623223662E+02  0.30091391841E+02  0.17033990555E+03  0.17351301827E+03  0.00000000000E+00 0.  1.
         -5    1    5    5    0  501 -0.97175268854E+02 -0.10798817449E+03  0.39100691493E+03  0.41714862606E+03  0.47000000000E+01 0.  1.
<mgrwt>
<rscale>  2 0.23039973E+03</rscale>
<asrwt>0</asrwt>
<pdfrwt beam="1">  1        2 0.35854870E+00 0.23039973E+03</pdfrwt>
<pdfrwt beam="2">  1       -2 0.44705915E-02 0.23039973E+03</pdfrwt>
<totfact> 0.11574392E+03</totfact>
</mgrwt>
</event>
<event>
12    1  0.5759937E-002  0.1845122E+03  0.7546771E-02  0.1163506E+00
         -2   -1    0    0    0  501 -0.00000000000E+00  0.00000000000E+00  0.14015234145E+03  0.14015234145E+03  0.00000000000E+00 0.  1.
          2   -1    0    0  503    0  0.00000000000E+00 -0.00000000000E+00 -0.30258859383E+03  0.30258859383E+03  0.00000000000E+00 0. -1.
          6    2    1    2  503    0 -0.39741006975E+01 -0.66409038598E+02 -0.17916680832E+03  0.25647307796E+03  0.17103140246E+03 0.  0.
         24    2    3    3    0    0  0.62698625842E+02 -0.39705193012E+02 -0.12768378650E+03  0.16798048296E+03  0.80041697172E+02 0.  0.
         -6    2    1    2    0  501  0.39741006975E+01  0.66409038598E+02  0.16730555950E+02  0.18626785732E+03  0.17317577569E+03 0.  0.
        -24    2    5    5    0    0  0.58209515531E+02  0.90827549083E+01  0.33851879340E+02  0.10537896600E+03  0.80547703916E+02 0.  0.
          2    1    4    4  502    0 -0.16189839919E+02  0.53994219276E+01 -0.11951919323E+02  0.20835379749E+02  0.00000000000E+00 0. -1.
         -1    1    4    4    0  502  0.78888465761E+02 -0.45104614940E+02 -0.11573186718E+03  0.14714510321E+03  0.00000000000E+00 0.  1.
          5    1    3    3  503    0 -0.66672726539E+02 -0.26703845586E+02 -0.51483021820E+02  0.88492594995E+02  0.47000000000E+01 0. -1.
         11    1    6    6    0    0  0.65075432799E+02  0.31985180814E+02  0.13027232707E+02  0.73672060767E+02  0.00000000000E+00 0. -1.
        -12    1    6    6    0    0 -0.68659172684E+01 -0.22902425905E+02  0.20824646633E+02  0.31706905237E+02  0.00000000000E+00 0.  1.
         -5    1    5    5    0  501 -0.54235414833E+02  0.57326283689E+02 -0.17121323390E+02  0.80888891317E+02  0.47000000000E+01 0.  1.
<mgrwt>
<rscale>  2 0.18451219E+03</rscale>
<asrwt>0</asrwt>
<pdfrwt beam="2">  1        2 0.46552092E-01 0.18451219E+03</pdfrwt>
<pdfrwt beam="1">  1       -2 0.21561899E-01 0.18451219E+03</pdfrwt>
<totfact> 0.19726134E+03</totfact>
</mgrwt>
</event>
<event>
12    1  0.5759937E-002  0.2274163E+03  0.7546771E-02  0.1128472E+00
          2   -1    0    0  503    0  0.00000000000E+00  0.00000000000E+00  0.99517046441E+03  0.99517046441E+03  0.00000000000E+00 0. -1.
         -2   -1    0    0    0  501 -0.00000000000E+00 -0.00000000000E+00 -0.51985963389E+02  0.51985963389E+02  0.00000000000E+00 0.  1.
          6    2    1    2  503    0  0.98601564432E+02 -0.11582201960E+03  0.47765986113E+03  0.53077097534E+03  0.17441868189E+03 0.  0.
         24    2    3    3    0    0 -0.16587225906E+02 -0.66115966821E+02  0.22386120144E+03  0.24761907483E+03  0.80962408410E+02 0.  0.
         -6    2    1    2    0  501 -0.98601564432E+02  0.11582201960E+03  0.46552463989E+03  0.51638545246E+03  0.16371846699E+03 0.  0.
        -24    2    5    5    0    0 -0.57790595149E+02  0.13593565550E+03  0.35036087148E+03  0.39247065464E+03  0.97273938796E+02 0.  0.
          4    1    4    4  502    0 -0.39256116101E+02 -0.43636767278E+02  0.19805159251E+03  0.20656631721E+03  0.00000000000E+00 0. -1.
         -3    1    4    4    0  502  0.22668890195E+02 -0.22479199543E+02  0.25809608931E+02  0.41052757616E+02  0.00000000000E+00 0.  1.
          5    1    3    3  503    0  0.11518879034E+03 -0.49706052782E+02  0.25379865969E+03  0.28315190051E+03  0.47000000000E+01 0. -1.
         11    1    6    6    0    0  0.52333916164E+01 -0.10587671435E+02  0.60315611367E+02  0.61461045784E+02  0.00000000000E+00 0. -1.
        -12    1    6    6    0    0 -0.63023986766E+02  0.14652332694E+03  0.29004526011E+03  0.33100960886E+03  0.00000000000E+00 0.  1.
         -5    1    5    5    0  501 -0.40810969283E+02 -0.20113635902E+02  0.11516376841E+03  0.12391479782E+03  0.47000000000E+01 0.  1.
<mgrwt>
<rscale>  2 0.22741632E+03</rscale>
<asrwt>0</asrwt>
<pdfrwt beam="1">  1        2 0.15310313E+00 0.22741632E+03</pdfrwt>
<pdfrwt beam="2">  1       -2 0.79978412E-02 0.22741632E+03</pdfrwt>
<totfact> 0.24925610E+03</totfact>
</mgrwt>
</event>
<event>
12    1  0.5759937E-002  0.1811241E+03  0.7546771E-02  0.1166720E+00
          2   -1    0    0  503    0  0.00000000000E+00  0.00000000000E+00  0.12886540622E+02  0.12886540622E+02  0.00000000000E+00 0. -1.
         -2   -1    0    0    0  501 -0.00000000000E+00 -0.00000000000E+00 -0.29224313941E+04  0.29224313941E+04  0.00000000000E+00 0.  1.
          6    2    1    2  503    0  0.58309081087E+02 -0.74315657010E+01 -0.19933786576E+04  0.20017454121E+04  0.17312147497E+03 0.  0.
         24    2    3    3    0    0 -0.25292649487E+02 -0.41999705441E+02 -0.96066800785E+03  0.96506919370E+03  0.77921973477E+02 0.  0.
         -6    2    1    2    0  501 -0.58309081087E+02  0.74315657010E+01 -0.91616619584E+03  0.93357252261E+03  0.16953459664E+03 0.  0.
        -24    2    5    5    0    0 -0.10490857720E+03 -0.12332981217E+02 -0.63350407846E+03  0.64637552932E+03  0.72910873512E+02 0.  0.
          2    1    4    4  502    0  0.26994487923E+02 -0.19803591656E+02 -0.26965501854E+03  0.27172543798E+03  0.00000000000E+00 0. -1.
         -1    1    4    4    0  502 -0.52287137410E+02 -0.22196113785E+02 -0.69101298931E+03  0.69334375572E+03  0.00000000000E+00 0.  1.
          5    1    3    3  503    0  0.83601730575E+02  0.34568139740E+02 -0.10327106498E+04  0.10366762184E+04  0.47000000000E+01 0. -1.
         11    1    6    6    0    0 -0.76955124241E+02 -0.41457173157E+02 -0.46065509816E+03  0.46887515163E+03  0.00000000000E+00 0. -1.
        -12    1    6    6    0    0 -0.27953452959E+02  0.29124191940E+02 -0.17284898030E+03  0.17750037769E+03  0.00000000000E+00 0.  1.
         -5    1    5    5    0  501  0.46599496113E+02  0.19764546918E+02 -0.28266211738E+03  0.28719699329E+03  0.47000000000E+01 0.  1.
<mgrwt>
<rscale>  2 0.18112408E+03</rscale>
<asrwt>0</asrwt>
<pdfrwt beam="1">  1        2 0.19825438E-02 0.18112408E+03</pdfrwt>
<pdfrwt beam="2">  1       -2 0.44960504E+00 0.18112408E+03</pdfrwt>
<totfact> 0.24261157E+01</totfact>
</mgrwt>
</event>
<event>
12    1  0.5759937E-002  0.2287694E+03  0.7546771E-02  0.1127509E+00
          2   -1    0    0  503    0  0.00000000000E+00  0.00000000000E+00  0.25317365730E+04  0.25317365730E+04  0.00000000000E+00 0.  1.
         -2   -1    0    0    0  501 -0.00000000000E+00 -0.00000000000E+00 -0.43417769728E+02  0.43417769728E+02  0.00000000000E+00 0. -1.
          6    2    1    2  503    0  0.72212410481E+02  0.13234865936E+03  0.21747863887E+04  0.21867324326E+04  0.17138289101E+03 0.  0.
         24    2    3    3    0    0  0.11337931179E+03  0.11866202580E+03  0.18677093197E+04  0.18765704523E+04  0.79012751099E+02 0.  0.
         -6    2    1    2    0  501 -0.72212410481E+02 -0.13234865936E+03  0.31353241462E+03  0.38842191021E+03  0.17273738868E+03 0.  0.
        -24    2    5    5    0    0 -0.50599021702E+02 -0.16404711061E+03  0.24679285565E+03  0.31129740620E+03  0.80793848855E+02 0.  0.
          2    1    4    4  502    0  0.11889804141E+03  0.91889854875E+02  0.17021117715E+04  0.17087319780E+04  0.00000000000E+00 0. -1.
         -1    1    4    4    0  502 -0.55187296136E+01  0.26772170926E+02  0.16559754818E+03  0.16783847436E+03  0.00000000000E+00 0.  1.
          5    1    3    3  503    0 -0.41166901314E+02  0.13686633558E+02  0.30707706895E+03  0.31016198022E+03  0.47000000000E+01 0. -1.
         13    1    6    6    0    0 -0.31549511175E+02 -0.11982384484E+03  0.10792957140E+03  0.16432260292E+03  0.00000000000E+00 0. -1.
        -14    1    6    6    0    0 -0.19049510527E+02 -0.44223265763E+02  0.13886328426E+03  0.14697480329E+03  0.00000000000E+00 0.  1.
         -5    1    5    5    0  501 -0.21613388779E+02  0.31698451248E+02  0.66739558970E+02  0.77124504002E+02  0.47000000000E+01 0.  1.
<mgrwt>
<rscale>  2 0.22876938E+03</rscale>
<asrwt>0</asrwt>
<pdfrwt beam="1">  1        2 0.38949782E+00 0.22876938E+03</pdfrwt>
<pdfrwt beam="2">  1       -2 0.66796589E-02 0.22876938E+03</pdfrwt>
<totfact> 0.48801241E+02</totfact>
</mgrwt>
</event>
<event>
12    1  0.5759937E-002  0.1987486E+03  0.7546771E-02  0.1150799E+00
          2   -1    0    0  503    0  0.00000000000E+00  0.00000000000E+00  0.12382260039E+03  0.12382260039E+03  0.00000000000E+00 0.  1.
         -2   -1    0    0    0  501 -0.00000000000E+00 -0.00000000000E+00 -0.45907693047E+03  0.45907693047E+03  0.00000000000E+00 0. -1.
          6    2    1    2  503    0  0.95984818790E+02 -0.15565605543E+02 -0.32853373997E+03  0.38390441040E+03  0.17318430793E+03 0.  0.
         24    2    3    3    0    0  0.98244660933E+02  0.47165248273E+02 -0.23754061554E+03  0.27326036131E+03  0.79806685077E+02 0.  0.
         -6    2    1    2    0  501 -0.95984818790E+02  0.15565605543E+02 -0.67205901148E+01  0.19899512046E+03  0.17348924498E+03 0.  0.
        -24    2    5    5    0    0 -0.20754201552E+02 -0.47329344978E+02  0.22827313408E+02  0.96473955948E+02  0.78200602048E+02 0.  0.
          2    1    4    4  502    0  0.73876993705E+02  0.41151815037E+02 -0.23284551815E+03  0.24772629534E+03  0.00000000000E+00 0. -1.
         -1    1    4    4    0  502  0.24367667228E+02  0.60134332363E+01 -0.46950973937E+01  0.25534065970E+02  0.00000000000E+00 0.  1.
          5    1    3    3  503    0 -0.22598421432E+01 -0.62730853816E+02 -0.90993124424E+02  0.11064404909E+03  0.47000000000E+01 0. -1.
         13    1    6    6    0    0 -0.44889951156E+02 -0.52287757375E+01  0.10214469476E+02  0.46333391816E+02  0.00000000000E+00 0. -1.
        -14    1    6    6    0    0  0.24135749604E+02 -0.42100569241E+02  0.12612843932E+02  0.50140564131E+02  0.00000000000E+00 0.  1.
         -5    1    5    5    0  501 -0.75230617238E+02  0.62894950522E+02 -0.29547903523E+02  0.10252116452E+03  0.47000000000E+01 0.  1.
<mgrwt>
<rscale>  2 0.19874858E+03</rscale>
<asrwt>0</asrwt>
<pdfrwt beam="1">  1        2 0.19049630E-01 0.19874858E+03</pdfrwt>
<pdfrwt beam="2">  1       -2 0.70627221E-01 0.19874858E+03</pdfrwt>
<totfact> 0.54867770E+02</totfact>
</mgrwt>
</event>
<event>
12    1  0.5759937E-002  0.2921360E+03  0.7546771E-02  0.1089239E+00
          2   -1    0    0  503    0  0.00000000000E+00  0.00000000000E+00  0.71888030193E+03  0.71888030193E+03  0.00000000000E+00 0.  1.
         -2   -1    0    0    0  501 -0.00000000000E+00 -0.00000000000E+00 -0.11886168753E+03  0.11886168753E+03  0.00000000000E+00 0. -1.
          6    2    1    2  503    0  0.27801855014E+02 -0.22557958526E+03  0.30516253458E+03  0.41821228291E+03  0.17354609946E+03 0.  0.
         24    2    3    3    0    0  0.50211598110E+02 -0.22287037927E+03  0.31152095256E+03  0.39429459360E+03  0.78933593098E+02 0.  0.
         -6    2    1    2    0  501 -0.27801855014E+02  0.22557958526E+03  0.29485607982E+03  0.41952970655E+03  0.19340624201E+03 0.  0.
        -24    2    5    5    0    0  0.43483346136E+02  0.17042766536E+03  0.25710319656E+03  0.32169983195E+03  0.80326444475E+02 0.  0.
          2    1    4    4  502    0  0.58052895486E+02 -0.17721573403E+03  0.19956253095E+03  0.27313139480E+03  0.00000000000E+00 0. -1.
         -1    1    4    4    0  502 -0.78412973755E+01 -0.45654645239E+02  0.11195842161E+03  0.12116319881E+03  0.00000000000E+00 0.  1.
          5    1    3    3  503    0 -0.22409743097E+02 -0.27092059858E+01 -0.63584179774E+01  0.23917689309E+02  0.47000000000E+01 0. -1.
         13    1    6    6    0    0  0.10363170809E+02  0.10574637604E+03  0.89145912992E+02  0.13869637759E+03  0.00000000000E+00 0. -1.
        -14    1    6    6    0    0  0.33120175327E+02  0.64681289324E+02  0.16795728357E+03  0.18300345435E+03  0.00000000000E+00 0.  1.
         -5    1    5    5    0  501 -0.71285201150E+02  0.55151919894E+02  0.37752883260E+02  0.97829874606E+02  0.47000000000E+01 0.  1.
<mgrwt>
<rscale>  2 0.29213601E+03</rscale>
<asrwt>0</asrwt>
<pdfrwt beam="1">  1        2 0.11059697E+00 0.29213601E+03</pdfrwt>
<pdfrwt beam="2">  1       -2 0.18286414E-01 0.29213601E+03</pdfrwt>
<totfact> 0.99675609E+02</totfact>
</mgrwt>
</event>
<event>
12    1  0.5759937E-002  0.2028430E+03  0.7546771E-02  0.1147362E+00
         -2   -1    0    0    0  501 -0.00000000000E+00  0.00000000000E+00  0.21024660558E+02  0.21024660558E+02  0.00000000000E+00 0.  1.
          2   -1    0    0  503    0  0.00000000000E+00 -0.00000000000E+00 -0.20160456965E+04  0.20160456965E+04  0.00000000000E+00 0. -1.
          6    2    1    2  503    0 -0.47928405546E+02 -0.93125582928E+02 -0.82038594831E+03  0.84494825304E+03  0.17301716644E+03 0.  0.
         24    2    3    3    0    0 -0.60875865433E+02 -0.67618331975E+02 -0.80099302983E+03  0.81007086988E+03  0.79667249182E+02 0.  0.
         -6    2    1    2    0  501  0.47928405546E+02  0.93125582928E+02 -0.11746350877E+04  0.11921221040E+04  0.17440761316E+03 0.  0.
        -24    2    5    5    0    0  0.97207991485E+02  0.67459250507E+02 -0.71884941425E+03  0.73293814494E+03  0.80334922994E+02 0.  0.
          2    1    4    4  502    0 -0.68122288329E+02 -0.69272922262E+02 -0.79381269836E+03  0.79973619651E+03  0.00000000000E+00 0. -1.
         -1    1    4    4    0  502  0.72464228960E+01  0.16545902870E+01 -0.71803314619E+01  0.10334673372E+02  0.00000000000E+00 0.  1.
          5    1    3    3  503    0  0.12947459887E+02 -0.25507250953E+02 -0.19392918479E+02  0.34877383156E+02  0.47000000000E+01 0. -1.
         11    1    6    6    0    0  0.63888125298E+02  0.48681302820E+01 -0.46419060265E+03  0.46859183394E+03  0.00000000000E+00 0. -1.
        -12    1    6    6    0    0  0.33319866187E+02  0.62591120225E+02 -0.25465881160E+03  0.26434631100E+03  0.00000000000E+00 0.  1.
         -5    1    5    5    0  501 -0.49279585939E+02  0.25666332421E+02 -0.45578567340E+03  0.45918395910E+03  0.47000000000E+01 0.  1.
<mgrwt>
<rscale>  2 0.20284298E+03</rscale>
<asrwt>0</asrwt>
<pdfrwt beam="2">  1        2 0.31016098E+00 0.20284298E+03</pdfrwt>
<pdfrwt beam="1">  1       -2 0.32345621E-02 0.20284298E+03</pdfrwt>
<totfact> 0.27621350E+03</totfact>
</mgrwt>
</event>
<event>
12    1  0.5759937E-002  0.1762547E+03  0.7546771E-02  0.1171478E+00
         -2   -1    0    0    0  501 -0.00000000000E+00  0.00000000000E+00  0.33531903305E+02  0.33531903305E+02  0.00000000000E+00 0. -1.
          2   -1    0    0  503    0  0.00000000000E+00 -0.00000000000E+00 -0.10514682585E+04  0.10514682585E+04  0.00000000000E+00 0.  1.
          6    2    1    2  503    0 -0.43826012169E+01 -0.23287720834E+02 -0.31820044434E+03  0.36304339219E+03  0.17316886758E+03 0.  0.
         24    2    3    3    0    0 -0.26022106108E+02 -0.66870142513E+02 -0.14182151982E+03  0.18001522314E+03  0.84518466098E+02 0.  0.
         -6    2    1    2    0  501  0.43826012169E+01  0.23287720834E+02 -0.69973591083E+03  0.72195676959E+03  0.17615251096E+03 0.  0.
        -24    2    5    5    0    0 -0.93307574146E+01 -0.51673738215E+02 -0.31241416360E+03  0.32718151400E+03  0.81779552650E+02 0.  0.
          2    1    4    4  502    0  0.94943300150E+01 -0.32906718230E+02 -0.49697078227E+01  0.34607692829E+02  0.00000000000E+00 0. -1.
         -1    1    4    4    0  502 -0.35516436123E+02 -0.33963424284E+02 -0.13685181200E+03  0.14540753031E+03  0.00000000000E+00 0.  1.
          5    1    3    3  503    0  0.21639504891E+02  0.43582421679E+02 -0.17637892452E+03  0.18302816905E+03  0.47000000000E+01 0. -1.
         13    1    6    6    0    0 -0.27869502451E+02  0.11630320172E+02 -0.77302475759E+02  0.82991844615E+02  0.00000000000E+00 0. -1.
        -14    1    6    6    0    0  0.18538745036E+02 -0.63304058387E+02 -0.23511168784E+03  0.24418966939E+03  0.00000000000E+00 0.  1.
         -5    1    5    5    0  501  0.13713358631E+02  0.74961459049E+02 -0.38732174723E+03  0.39477525559E+03  0.47000000000E+01 0.  1.
<mgrwt>
<rscale>  2 0.17625475E+03</rscale>
<asrwt>0</asrwt>
<pdfrwt beam="2">  1        2 0.16176435E+00 0.17625475E+03</pdfrwt>
<pdfrwt beam="1">  1       -2 0.51587542E-02 0.17625475E+03</pdfrwt>
<totfact> 0.45006854E+03</totfact>
</mgrwt>
</event>
<event>
12    1  0.5759937E-002  0.1740048E+03  0.7546771E-02  0.1173735E+00
          2   -1    0    0  503    0  0.00000000000E+00  0.00000000000E+00  0.27976338511E+03  0.27976338511E+03  0.00000000000E+00 0. -1.
         -2   -1    0    0    0  501 -0.00000000000E+00 -0.00000000000E+00 -0.10946243428E+03  0.10946243428E+03  0.00000000000E+00 0.  1.
          6    2    1    2  503    0 -0.10504739419E+02  0.24525512875E+02  0.65124201837E+02  0.18697610784E+03  0.17322543955E+03 0.  0.
         24    2    3    3    0    0 -0.23858135934E+02 -0.48201315718E+02  0.18292321772E+02  0.99324411989E+02  0.81474856820E+02 0.  0.
         -6    2    1    2    0  501  0.10504739419E+02 -0.24525512875E+02  0.10517674899E+03  0.20224971154E+03  0.17067790413E+03 0.  0.
        -24    2    5    5    0    0 -0.10898285843E+02 -0.70062489853E+02  0.10238665893E+03  0.15163765404E+03  0.86506792085E+02 0.  0.
          2    1    4    4  502    0  0.53983290802E+01 -0.63380834862E+02  0.18900390341E+02  0.66358849746E+02  0.00000000000E+00 0. -1.
         -1    1    4    4    0  502 -0.29256465014E+02  0.15179519144E+02 -0.60806856854E+00  0.32965562242E+02  0.00000000000E+00 0.  1.
          5    1    3    3  503    0  0.13353396515E+02  0.72726828593E+02  0.46831880065E+02  0.87651695854E+02  0.47000000000E+01 0. -1.
         11    1    6    6    0    0 -0.39252878514E+02 -0.29456493427E+02  0.86806410513E+02  0.99718736368E+02  0.00000000000E+00 0. -1.
        -12    1    6    6    0    0  0.28354592670E+02 -0.40605996426E+02  0.15580248413E+02  0.51918917668E+02  0.00000000000E+00 0.  1.
         -5    1    5    5    0  501  0.21403025263E+02  0.45536976977E+02  0.27900900650E+01  0.50612057508E+02  0.47000000000E+01 0.  1.
<mgrwt>
<rscale>  2 0.17400483E+03</rscale>
<asrwt>0</asrwt>
<pdfrwt beam="1">  1        2 0.43040521E-01 0.17400483E+03</pdfrwt>
<pdfrwt beam="2">  1       -2 0.16840375E-01 0.17400483E+03</pdfrwt>
<totfact> 0.32519813E+03</totfact>
</mgrwt>
</event>
<event>
12    1  0.5759937E-002  0.3094129E+03  0.7546771E-02  0.1080628E+00
          1   -1    0    0  503    0  0.00000000000E+00  0.00000000000E+00  0.14095594397E+04  0.14095594397E+04  0.00000000000E+00 0.  1.
         -1   -1    0    0    0  501 -0.00000000000E+00 -0.00000000000E+00 -0.67930891405E+02  0.67930891405E+02  0.00000000000E+00 0. -1.
          6    2    1    2  503    0  0.24781830896E+03  0.51349283942E+02  0.65781300482E+03  0.72580050556E+03  0.17325634572E+03 0.  0.
         24    2    3    3    0    0  0.58160981878E+02 -0.17215991977E+02  0.25301534833E+03  0.27352367498E+03  0.84376205703E+02 0.  0.
         -6    2    1    2    0  501 -0.24781830896E+03 -0.51349283942E+02  0.68381554349E+03  0.75168982557E+03  0.18271079094E+03 0.  0.
        -24    2    5    5    0    0 -0.45580064107E+02 -0.96653772876E+01  0.31390315754E+03  0.32802118260E+03  0.83016517387E+02 0.  0.
          4    1    4    4  502    0  0.14187133056E+02  0.23157320052E+02  0.16470543800E+03  0.16692937885E+03  0.00000000000E+00 0. -1.
         -3    1    4    4    0  502  0.43973848821E+02 -0.40373312028E+02  0.88309910338E+02  0.10659429613E+03  0.00000000000E+00 0.  1.
          5    1    3    3  503    0  0.18965732708E+03  0.68565275919E+02  0.40479765649E+03  0.45227683058E+03  0.47000000000E+01 0. -1.
         13    1    6    6    0    0  0.21037498398E+02  0.85310148096E+01  0.45130464023E+02  0.50518445497E+02  0.00000000000E+00 0. -1.
        -14    1    6    6    0    0 -0.66617562505E+02 -0.18196392097E+02  0.26877269351E+03  0.27750273710E+03  0.00000000000E+00 0.  1.
         -5    1    5    5    0  501 -0.20223824485E+03 -0.41683906654E+02  0.36991238595E+03  0.42366864297E+03  0.47000000000E+01 0.  1.
<mgrwt>
<rscale>  2 0.30941295E+03</rscale>
<asrwt>0</asrwt>
<pdfrwt beam="1">  1        1 0.21685528E+00 0.30941295E+03</pdfrwt>
<pdfrwt beam="2">  1       -1 0.10450907E-01 0.30941295E+03</pdfrwt>
<totfact> 0.46719878E+02</totfact>
</mgrwt>
</event>
<event>
12    1  0.5759937E-002  0.2440657E+03  0.7546771E-02  0.1117114E+00
         -1   -1    0    0    0  501 -0.00000000000E+00  0.00000000000E+00  0.82589403499E+02  0.82589403499E+02  0.00000000000E+00 0. -1.
          1   -1    0    0  503    0  0.00000000000E+00 -0.00000000000E+00 -0.72280546131E+03  0.72280546131E+03  0.00000000000E+00 0.  1.
          6    2    1    2  503    0 -0.14302120313E+03 -0.80833211811E+02 -0.32702028825E+03  0.40429165623E+03  0.17181502173E+03 0.  0.
         24    2    3    3    0    0 -0.12827510435E+03 -0.12174295132E+03 -0.25227520843E+03  0.31768928228E+03  0.77510326370E+02 0.  0.
         -6    2    1    2    0  501  0.14302120313E+03  0.80833211811E+02 -0.31319576956E+03  0.40110320858E+03  0.18921712709E+03 0.  0.
        -24    2    5    5    0    0  0.12522291407E+03  0.10575364950E+02 -0.11017596755E+03  0.18548300047E+03  0.80452365313E+02 0.  0.
          2    1    4    4  502    0 -0.13366733037E+03 -0.12421204964E+03 -0.22457116459E+03  0.28935755814E+03  0.00000000000E+00 0. -1.
         -1    1    4    4    0  502  0.53922260232E+01  0.24690983155E+01 -0.27704043833E+02  0.28331724139E+02  0.00000000000E+00 0.  1.
          5    1    3    3  503    0 -0.14746098781E+02  0.40909739513E+02 -0.74745079821E+02  0.86602373950E+02  0.47000000000E+01 0. -1.
         11    1    6    6    0    0  0.32345106039E+02  0.36565769884E+02 -0.17879372835E+02  0.51989743074E+02  0.00000000000E+00 0. -1.
        -12    1    6    6    0    0  0.92877808029E+02 -0.25990404934E+02 -0.92296594718E+02  0.13349325739E+03  0.00000000000E+00 0.  1.
         -5    1    5    5    0  501  0.17798289064E+02  0.70257846861E+02 -0.20301980201E+03  0.21562020811E+03  0.47000000000E+01 0.  1.
<mgrwt>
<rscale>  2 0.24406569E+03</rscale>
<asrwt>0</asrwt>
<pdfrwt beam="2">  1        1 0.11120084E+00 0.24406569E+03</pdfrwt>
<pdfrwt beam="1">  1       -1 0.12706062E-01 0.24406569E+03</pdfrwt>
<totfact> 0.11265523E+03</totfact>
</mgrwt>
</event>
<event>
12    1  0.5759937E-002  0.2549699E+03  0.7546771E-02  0.1110204E+00
          1   -1    0    0  503    0  0.00000000000E+00  0.00000000000E+00  0.79535832292E+03  0.79535832292E+03  0.00000000000E+00 0. -1.
         -1   -1    0    0    0  501 -0.00000000000E+00 -0.00000000000E+00 -0.11453869964E+03  0.11453869964E+03  0.00000000000E+00 0.  1.
          6    2    1    2  503    0  0.18633010408E+03 -0.40417438701E+01  0.96816834637E+02  0.27260844443E+03  0.17380052108E+03 0.  0.
         24    2    3    3    0    0  0.12421087200E+03  0.57267545999E+02  0.89615710503E+02  0.18490682411E+03  0.86322914022E+02 0.  0.
         -6    2    1    2    0  501 -0.18633010408E+03  0.40417438701E+01  0.58400278864E+03  0.63728857813E+03  0.17419021582E+03 0.  0.
        -24    2    5    5    0    0 -0.17319040110E+02  0.44257374199E+01  0.26150723719E+03  0.27315898869E+03  0.76878226426E+02 0.  0.
          2    1    4    4  502    0  0.46507707829E+02  0.26309682468E+02  0.85922484885E+02  0.10118221033E+03  0.00000000000E+00 0. -1.
         -1    1    4    4    0  502  0.77703164166E+02  0.30957863532E+02  0.36932256180E+01  0.83724613773E+02  0.00000000000E+00 0.  1.
          5    1    3    3  503    0  0.62119232083E+02 -0.61309289870E+02  0.72011241338E+01  0.87701620325E+02  0.47000000000E+01 0. -1.
         13    1    6    6    0    0 -0.23255228211E+02 -0.33208229116E+02  0.12312146097E+03  0.12962440461E+03  0.00000000000E+00 0. -1.
        -14    1    6    6    0    0  0.59361881011E+01  0.37633966536E+02  0.13838577622E+03  0.14353458408E+03  0.00000000000E+00 0.  1.
         -5    1    5    5    0  501 -0.16901106397E+03 -0.38399354976E+00  0.32249555145E+03  0.36412958943E+03  0.47000000000E+01 0.  1.
<mgrwt>
<rscale>  2 0.25496987E+03</rscale>
<asrwt>0</asrwt>
<pdfrwt beam="1">  1        1 0.12236282E+00 0.25496987E+03</pdfrwt>
<pdfrwt beam="2">  1       -1 0.17621339E-01 0.25496987E+03</pdfrwt>
<totfact> 0.57961521E+02</totfact>
</mgrwt>
</event>
<event>
12    1  0.5759937E-002  0.1908718E+03  0.7546771E-02  0.1157677E+00
         -2   -1    0    0    0  501 -0.00000000000E+00  0.00000000000E+00  0.17697069224E+03  0.17697069224E+03  0.00000000000E+00 0. -1.
          2   -1    0    0  503    0  0.00000000000E+00 -0.00000000000E+00 -0.28296940509E+03  0.28296940509E+03  0.00000000000E+00 0.  1.
          6    2    1    2  503    0  0.16940510595E+02  0.79328322936E+02  0.66886743265E+02  0.20297733151E+03  0.17362602617E+03 0.  0.
         24    2    3    3    0    0  0.24702598181E+02  0.78906218478E+02  0.10960817491E+03  0.15930080581E+03  0.80786044929E+02 0.  0.
         -6    2    1    2    0  501 -0.16940510595E+02 -0.79328322936E+02 -0.17288545612E+03  0.25696276582E+03  0.17193172587E+03 0.  0.
        -24    2    5    5    0    0  0.53545039693E+02 -0.67123047564E+02 -0.96157997200E+02  0.15195622079E+03  0.80447236257E+02 0.  0.
          2    1    4    4  502    0 -0.80052539956E+01  0.78188820248E+02  0.56031367499E+02  0.96525073670E+02  0.00000000000E+00 0. -1.
         -1    1    4    4    0  502  0.32707852176E+02  0.71739823007E+00  0.53576807407E+02  0.62775732143E+02  0.00000000000E+00 0.  1.
          5    1    3    3  503    0 -0.77620875855E+01  0.42210445846E+00 -0.42721431641E+02  0.43676525701E+02  0.47000000000E+01 0. -1.
         13    1    6    6    0    0  0.67991456372E+02 -0.24805222231E+02 -0.52058183834E+02  0.89152631445E+02  0.00000000000E+00 0. -1.
        -14    1    6    6    0    0 -0.14446416679E+02 -0.42317825332E+02 -0.44099813366E+02  0.62803589345E+02  0.00000000000E+00 0.  1.
         -5    1    5    5    0  501 -0.70485550288E+02 -0.12205275372E+02 -0.76727458921E+02  0.10500654503E+03  0.47000000000E+01 0.  1.
<mgrwt>
<rscale>  2 0.19087180E+03</rscale>
<asrwt>0</asrwt>
<pdfrwt beam="2">  1        2 0.43533755E-01 0.19087180E+03</pdfrwt>
<pdfrwt beam="1">  1       -2 0.27226260E-01 0.19087180E+03</pdfrwt>
<totfact> 0.14101605E+03</totfact>
</mgrwt>
</event>
<event>
12    1  0.5759937E-002  0.1836338E+03  0.7546771E-02  0.1164332E+00
          2   -1    0    0  503    0  0.00000000000E+00  0.00000000000E+00  0.33509917647E+04  0.33509917647E+04  0.00000000000E+00 0.  1.
         -2   -1    0    0    0  501 -0.00000000000E+00 -0.00000000000E+00 -0.16064293328E+02  0.16064293328E+02  0.00000000000E+00 0. -1.
          6    2    1    2  503    0 -0.42348062573E+02 -0.50455672877E+02  0.26914885712E+04  0.26976870016E+04  0.17048547276E+03 0.  0.
         24    2    3    3    0    0  0.27444305502E+02  0.16453481856E+02  0.13573376706E+04  0.13600291511E+04  0.79308465300E+02 0.  0.
         -6    2    1    2    0  501  0.42348062573E+02  0.50455672877E+02  0.64343890023E+03  0.66936905647E+03  0.17234321022E+03 0.  0.
        -24    2    5    5    0    0  0.43686687392E+02 -0.14130593280E+02  0.18231836163E+03  0.20372174486E+03  0.78449754758E+02 0.  0.
          2    1    4    4  502    0  0.36729294710E+02  0.38075560993E+02  0.11734563062E+04  0.11746482418E+04  0.00000000000E+00 0. -1.
         -1    1    4    4    0  502 -0.92849892078E+01 -0.21622079137E+02  0.18388136448E+03  0.18538090930E+03  0.00000000000E+00 0.  1.
          5    1    3    3  503    0 -0.69792368075E+02 -0.66909154733E+02  0.13341509005E+04  0.13376578505E+04  0.47000000000E+01 0. -1.
         11    1    6    6    0    0  0.12435188007E+02  0.32476037040E+02  0.71138499940E+02  0.79183414023E+02  0.00000000000E+00 0. -1.
        -12    1    6    6    0    0  0.31251499385E+02 -0.46606630320E+02  0.11117986169E+03  0.12453833084E+03  0.00000000000E+00 0.  1.
         -5    1    5    5    0  501 -0.13386248192E+01  0.64586266157E+02  0.46112053860E+03  0.46564731161E+03  0.47000000000E+01 0.  1.
<mgrwt>
<rscale>  2 0.18363379E+03</rscale>
<asrwt>0</asrwt>
<pdfrwt beam="1">  1        2 0.51553664E+00 0.18363379E+03</pdfrwt>
<pdfrwt beam="2">  1       -2 0.24714324E-02 0.18363379E+03</pdfrwt>
<totfact> 0.73388849E+02</totfact>
</mgrwt>
</event>
<event>
12    1  0.5759937E-002  0.1998948E+03  0.7546771E-02  0.1149828E+00
          2   -1    0    0  503    0  0.00000000000E+00  0.00000000000E+00  0.17801214189E+04  0.17801214189E+04  0.00000000000E+00 0. -1.
         -2   -1    0    0    0  501 -0.00000000000E+00 -0.00000000000E+00 -0.36498618020E+02  0.36498618020E+02  0.00000000000E+00 0.  1.
          6    2    1    2  503    0  0.54333008064E+02 -0.82704960533E+02  0.14346297164E+04  0.14484494332E+04  0.17335267865E+03 0.  0.
         24    2    3    3    0    0 -0.89958711793E+01 -0.64190092842E+02  0.43711026881E+03  0.44873923243E+03  0.78103891739E+02 0.  0.
         -6    2    1    2    0  501 -0.54333008064E+02  0.82704960533E+02  0.30899308455E+03  0.36817060376E+03  0.17401345036E+03 0.  0.
        -24    2    5    5    0    0  0.83426673410E+01 -0.18010354938E+02  0.17290899478E+03  0.18758050285E+03  0.69963930628E+02 0.  0.
          4    1    4    4  502    0 -0.18067109350E+02 -0.69307284419E+02  0.43046917744E+03  0.43638702185E+03  0.00000000000E+00 0. -1.
         -3    1    4    4    0  502  0.90712381704E+01  0.51171915773E+01  0.66410913691E+01  0.12352210578E+02  0.00000000000E+00 0.  1.
          5    1    3    3  503    0  0.63328879243E+02 -0.18514867691E+02  0.99751944756E+03  0.99971020077E+03  0.47000000000E+01 0. -1.
         13    1    6    6    0    0  0.33492770543E+02  0.40313878891E+01  0.12270671900E+03  0.12725940694E+03  0.00000000000E+00 0. -1.
        -14    1    6    6    0    0 -0.25150103202E+02 -0.22041742827E+02  0.50202275782E+02  0.60321095908E+02  0.00000000000E+00 0.  1.
         -5    1    5    5    0  501 -0.62675675405E+02  0.10071531547E+03  0.13608408977E+03  0.18059010091E+03  0.47000000000E+01 0.  1.
<mgrwt>
<rscale>  2 0.19989482E+03</rscale>
<asrwt>0</asrwt>
<pdfrwt beam="1">  1        2 0.27386477E+00 0.19989482E+03</pdfrwt>
<pdfrwt beam="2">  1       -2 0.56151734E-02 0.19989482E+03</pdfrwt>
<totfact> 0.15970395E+03</totfact>
</mgrwt>
</event>
<event>
12    1  0.5759937E-002  0.1866087E+03  0.7546771E-02  0.1161556E+00
          1   -1    0    0  503    0  0.00000000000E+00  0.00000000000E+00  0.70188234672E+03  0.70188234672E+03  0.00000000000E+00 0. -1.
         -1   -1    0    0    0  501 -0.00000000000E+00 -0.00000000000E+00 -0.11536141345E+03  0.11536141345E+03  0.00000000000E+00 0.  1.
          6    2    1    2  503    0 -0.61745381888E+02  0.29046054014E+02 -0.15714226932E+02  0.18654288078E+03  0.17290212261E+03 0.  0.
         24    2    3    3    0    0  0.25321898653E+02  0.18839049615E+02 -0.38830039398E+02  0.95761136658E+02  0.81647504509E+02 0.  0.
         -6    2    1    2    0  501  0.61745381888E+02 -0.29046054014E+02  0.60223516020E+03  0.63070087939E+03  0.17447133186E+03 0.  0.
        -24    2    5    5    0    0  0.10373723124E+03 -0.36416130617E+02  0.52246414618E+03  0.54012970230E+03  0.81754287634E+02 0.  0.
          2    1    4    4  502    0  0.28410549668E+02 -0.86752866929E+01 -0.55851766273E+02  0.63260095854E+02  0.00000000000E+00 0. -1.
         -1    1    4    4    0  502 -0.30886510148E+01  0.27514336308E+02  0.17021726875E+02  0.32501040804E+02  0.00000000000E+00 0.  1.
          5    1    3    3  503    0 -0.87067280541E+02  0.10207004399E+02  0.23115812466E+02  0.90781744120E+02  0.47000000000E+01 0. -1.
         13    1    6    6    0    0  0.61864287730E+02  0.27670799604E+01  0.40165104444E+03  0.40639686063E+03  0.00000000000E+00 0. -1.
        -14    1    6    6    0    0  0.41872943512E+02 -0.39183210577E+02  0.12081310174E+03  0.13373284167E+03  0.00000000000E+00 0.  1.
         -5    1    5    5    0  501 -0.41991849354E+02  0.73700766034E+01  0.79771014015E+02  0.90571177083E+02  0.47000000000E+01 0.  1.
<mgrwt>
<rscale>  2 0.18660866E+03</rscale>
<asrwt>0</asrwt>
<pdfrwt beam="1">  1        1 0.10798190E+00 0.18660866E+03</pdfrwt>
<pdfrwt beam="2">  1       -1 0.17747910E-01 0.18660866E+03</pdfrwt>
<totfact> 0.69302376E+02</totfact>
</mgrwt>
</event>
<event>
12    1  0.5759937E-002  0.2277336E+03  0.7546771E-02  0.1128245E+00
         -2   -1    0    0    0  501 -0.00000000000E+00  0.00000000000E+00  0.17338864379E+03  0.17338864379E+03  0.00000000000E+00 0.  1.
          2   -1    0    0  503    0  0.00000000000E+00 -0.00000000000E+00 -0.29914204247E+03  0.29914204247E+03  0.00000000000E+00 0. -1.
          6    2    1    2  503    0  0.13973053938E+03 -0.41172832628E+02 -0.60685702063E+02  0.23420179334E+03  0.17305461504E+03 0.  0.
         24    2    3    3    0    0  0.12937562987E+03 -0.35047634865E+02 -0.10468577850E+03  0.18834507164E+03  0.80921959194E+02 0.  0.
         -6    2    1    2    0  501 -0.13973053938E+03  0.41172832628E+02 -0.65067696624E+02  0.23832889292E+03  0.17705092565E+03 0.  0.
        -24    2    5    5    0    0 -0.58431327039E+02 -0.41593690960E+02 -0.53650705455E+02  0.12165714380E+03  0.82327439747E+02 0.  0.
          4    1    4    4  502    0  0.56624765996E+02 -0.11005946905E+02 -0.94963080845E+02  0.11111022327E+03  0.00000000000E+00 0. -1.
         -3    1    4    4    0  502  0.72750863870E+02 -0.24041687960E+02 -0.97226976541E+01  0.77234848375E+02  0.00000000000E+00 0.  1.
          5    1    3    3  503    0  0.10354909515E+02 -0.61251977630E+01  0.44000076436E+02  0.45856721700E+02  0.47000000000E+01 0. -1.
         13    1    6    6    0    0  0.70079256556E+01 -0.48909678791E+01 -0.45375152686E+02  0.46172904068E+02  0.00000000000E+00 0. -1.
        -14    1    6    6    0    0 -0.65439252695E+02 -0.36702723081E+02 -0.82755527686E+01  0.75484239735E+02  0.00000000000E+00 0.  1.
         -5    1    5    5    0  501 -0.81299212342E+02  0.82766523588E+02 -0.11416991170E+02  0.11667174912E+03  0.47000000000E+01 0.  1.
<mgrwt>
<rscale>  2 0.22773356E+03</rscale>
<asrwt>0</asrwt>
<pdfrwt beam="2">  1        2 0.46021853E-01 0.22773356E+03</pdfrwt>
<pdfrwt beam="1">  1       -2 0.26675176E-01 0.22773356E+03</pdfrwt>
<totfact> 0.13830207E+03</totfact>
</mgrwt>
</event>
<event>
12    1  0.5759937E-002  0.1832441E+03  0.7546771E-02  0.1164700E+00
          2   -1    0    0  503    0  0.00000000000E+00  0.00000000000E+00  0.34353040551E+03  0.34353040551E+03  0.00000000000E+00 0. -1.
         -2   -1    0    0    0  501 -0.00000000000E+00 -0.00000000000E+00 -0.13069939543E+03  0.13069939543E+03  0.00000000000E+00 0.  1.
          6    2    1    2  503    0  0.57133256658E+02 -0.11861390237E+02  0.22583797776E+03  0.29135814973E+03  0.17459060005E+03 0.  0.
         24    2    3    3    0    0  0.89286102495E+02  0.35823622404E+02  0.16596626022E+03  0.20820540783E+03  0.80928068657E+02 0.  0.
         -6    2    1    2    0  501 -0.57133256658E+02  0.11861390237E+02 -0.13006967672E+02  0.18287165120E+03  0.17282348802E+03 0.  0.
        -24    2    5    5    0    0 -0.33284511122E+02  0.70813352591E+02  0.14503217611E+02  0.11342385193E+03  0.80822257331E+02 0.  0.
          2    1    4    4  502    0  0.73039445682E+02  0.50532942966E+02  0.16361025411E+03  0.18616297752E+03  0.00000000000E+00 0. -1.
         -1    1    4    4    0  502  0.16246656812E+02 -0.14709320562E+02  0.23560061109E+01  0.22042430305E+02  0.00000000000E+00 0.  1.
          5    1    3    3  503    0 -0.32152845837E+02 -0.47685012641E+02  0.59871717534E+02  0.83152741906E+02  0.47000000000E+01 0. -1.
         13    1    6    6    0    0  0.16952242272E+02 -0.49156226946E+01  0.14027382715E+02  0.22545716452E+02  0.00000000000E+00 0. -1.
        -14    1    6    6    0    0 -0.50236753393E+02  0.75728975286E+02  0.47583489623E+00  0.90878135479E+02  0.00000000000E+00 0.  1.
         -5    1    5    5    0  501 -0.23848745536E+02 -0.58951962355E+02 -0.27510185283E+02  0.69447799270E+02  0.47000000000E+01 0.  1.
<mgrwt>
<rscale>  2 0.18324414E+03</rscale>
<asrwt>0</asrwt>
<pdfrwt beam="1">  1        2 0.52850831E-01 0.18324414E+03</pdfrwt>
<pdfrwt beam="2">  1       -2 0.20107599E-01 0.18324414E+03</pdfrwt>
<totfact> 0.19403751E+03</totfact>
</mgrwt>
</event>
<event>
12    1  0.5759937E-002  0.2116089E+03  0.7546771E-02  0.1140298E+00
         -2   -1    0    0    0  501 -0.00000000000E+00  0.00000000000E+00  0.74528846000E+02  0.74528846000E+02  0.00000000000E+00 0.  1.
          2   -1    0    0  503    0  0.00000000000E+00 -0.00000000000E+00 -0.62640299136E+03  0.62640299136E+03  0.00000000000E+00 0. -1.
          6    2    1    2  503    0 -0.11880143444E+03  0.14707184412E+02 -0.20380831472E+03  0.29303730760E+03  0.17321360338E+03 0.  0.
         24    2    3    3    0    0 -0.57244441832E+02  0.71400702752E+02 -0.88254016146E+02  0.15028470944E+03  0.80135735171E+02 0.  0.
         -6    2    1    2    0  501  0.11880143444E+03 -0.14707184412E+02 -0.34806583063E+03  0.40789452976E+03  0.17577839132E+03 0.  0.
        -24    2    5    5    0    0 -0.52552196251E+01  0.42069206491E+01 -0.11098823885E+03  0.13961171012E+03  0.84425854603E+02 0.  0.
          4    1    4    4  502    0 -0.66626778403E+02  0.42327715459E+02 -0.29882388626E+02  0.84402134134E+02  0.00000000000E+00 0. -1.
         -3    1    4    4    0  502  0.93823365709E+01  0.29072987293E+02 -0.58371627520E+02  0.65882575306E+02  0.00000000000E+00 0.  1.
          5    1    3    3  503    0 -0.61556992607E+02 -0.56693518340E+02 -0.11555429858E+03  0.14275259816E+03  0.47000000000E+01 0. -1.
         13    1    6    6    0    0  0.27507038052E+02 -0.76618999602E+01 -0.98564618024E+02  0.10261737562E+03  0.00000000000E+00 0. -1.
        -14    1    6    6    0    0 -0.32762257677E+02  0.11868820609E+02 -0.12423620830E+02  0.36994334503E+02  0.00000000000E+00 0.  1.
         -5    1    5    5    0  501  0.12405665406E+03 -0.18914105061E+02 -0.23707759178E+03  0.26828281964E+03  0.47000000000E+01 0.  1.
<mgrwt>
<rscale>  2 0.21160894E+03</rscale>
<asrwt>0</asrwt>
<pdfrwt beam="2">  1        2 0.96369692E-01 0.21160894E+03</pdfrwt>
<pdfrwt beam="1">  1       -2 0.11465976E-01 0.21160894E+03</pdfrwt>
<totfact> 0.25329590E+03</totfact>
</mgrwt>
</event>
<event>
12    1  0.5759937E-002  0.1840064E+03  0.7546771E-02  0.1163981E+00
         -2   -1    0    0    0  501 -0.00000000000E+00  0.00000000000E+00  0.95675734922E+02  0.95675734922E+02  0.00000000000E+00 0.  1.
          2   -1    0    0  503    0  0.00000000000E+00 -0.00000000000E+00 -0.59226690458E+03  0.59226690458E+03  0.00000000000E+00 0. -1.
          6    2    1    2  503    0  0.13594038966E+02  0.43359902172E+02 -0.26486985337E+02  0.18138408278E+03  0.17359074307E+03 0.  0.
         24    2    3    3    0    0  0.17376222478E+02  0.66719822275E+02  0.38392513820E+02  0.11216392538E+03  0.79707548244E+02 0.  0.
         -6    2    1    2    0  501 -0.13594038966E+02 -0.43359902172E+02 -0.47010418433E+03  0.50655855673E+03  0.18313587378E+03 0.  0.
        -24    2    5    5    0    0  0.46395278316E+02 -0.26392665246E+02 -0.13941077988E+03  0.17000718909E+03  0.81350993641E+02 0.  0.
          4    1    4    4  502    0  0.30027763115E+02  0.69528481511E+02  0.44896218968E+01  0.75868524459E+02  0.00000000000E+00 0. -1.
         -3    1    4    4    0  502 -0.12651540637E+02 -0.28086592356E+01  0.33902891923E+02  0.36295400920E+02  0.00000000000E+00 0.  1.
          5    1    3    3  503    0 -0.37821835123E+01 -0.23359920103E+02 -0.64879499156E+02  0.69220157397E+02  0.47000000000E+01 0. -1.
         13    1    6    6    0    0  0.56489025180E+02 -0.29850802210E+02 -0.14464162324E+03  0.15812425346E+03  0.00000000000E+00 0. -1.
        -14    1    6    6    0    0 -0.10093746864E+02  0.34581369647E+01  0.52308433571E+01  0.11882935633E+02  0.00000000000E+00 0.  1.
         -5    1    5    5    0  501 -0.59989317282E+02 -0.16967236927E+02 -0.33069340444E+03  0.33655136764E+03  0.47000000000E+01 0.  1.
<mgrwt>
<rscale>  2 0.18400639E+03</rscale>
<asrwt>0</asrwt>
<pdfrwt beam="2">  1        2 0.91117985E-01 0.18400639E+03</pdfrwt>
<pdfrwt beam="1">  1       -2 0.14719344E-01 0.18400639E+03</pdfrwt>
<totfact> 0.17964359E+03</totfact>
</mgrwt>
</event>
<event>
12    1  0.5759937E-002  0.2761907E+03  0.7546771E-02  0.1097788E+00
          1   -1    0    0  503    0  0.00000000000E+00  0.00000000000E+00  0.22568739136E+04  0.22568739136E+04  0.00000000000E+00 0. -1.
         -1   -1    0    0    0  501 -0.00000000000E+00 -0.00000000000E+00 -0.36332171733E+02  0.36332171733E+02  0.00000000000E+00 0.  1.
          6    2    1    2  503    0  0.12578952282E+03  0.17559020591E+03  0.14142351140E+04  0.14410153814E+04  0.17265412636E+03 0.  0.
         24    2    3    3    0    0  0.78496751188E+02  0.18435012776E+03  0.12878972111E+04  0.13057500932E+04  0.78468911383E+02 0.  0.
         -6    2    1    2    0  501 -0.12578952282E+03 -0.17559020591E+03  0.80630662788E+03  0.85219070393E+03  0.17159164675E+03 0.  0.
        -24    2    5    5    0    0 -0.99271776706E+02 -0.15515447137E+03  0.78909433224E+03  0.81425439907E+03  0.80078496480E+02 0.  0.
          4    1    4    4  502    0  0.78769779993E+02  0.17983729295E+03  0.10735370253E+04  0.10913422354E+04  0.00000000000E+00 0. -1.
         -3    1    4    4    0  502 -0.27302880551E+00  0.45128348074E+01  0.21436018581E+03  0.21440785779E+03  0.00000000000E+00 0.  1.
          5    1    3    3  503    0  0.47292771631E+02 -0.87599218492E+01  0.12633790286E+03  0.13526528815E+03  0.47000000000E+01 0. -1.
         11    1    6    6    0    0 -0.13942252346E+02 -0.31069144306E+02  0.53612917195E+02  0.63513959242E+02  0.00000000000E+00 0. -1.
        -12    1    6    6    0    0 -0.85329524360E+02 -0.12408532706E+03  0.73548141504E+03  0.75074043983E+03  0.00000000000E+00 0.  1.
         -5    1    5    5    0  501 -0.26517746113E+02 -0.20435734539E+02  0.17212295643E+02  0.37936304859E+02  0.47000000000E+01 0.  1.
<mgrwt>
<rscale>  2 0.27619065E+03</rscale>
<asrwt>0</asrwt>
<pdfrwt beam="1">  1        1 0.34721126E+00 0.27619065E+03</pdfrwt>
<pdfrwt beam="2">  1       -1 0.55895667E-02 0.27619065E+03</pdfrwt>
<totfact> 0.34089304E+02</totfact>
</mgrwt>
</event>
<event>
12    1  0.5759937E-002  0.2044607E+03  0.7546771E-02  0.1146029E+00
         -1   -1    0    0    0  501 -0.00000000000E+00  0.00000000000E+00  0.17123517963E+03  0.17123517963E+03  0.00000000000E+00 0.  1.
          1   -1    0    0  503    0  0.00000000000E+00 -0.00000000000E+00 -0.32989959627E+03  0.32989959627E+03  0.00000000000E+00 0. -1.
          6    2    1    2  503    0 -0.59202369469E+02  0.90078707289E+02 -0.20706892109E+03  0.29094592067E+03  0.17364589432E+03 0.  0.
         24    2    3    3    0    0 -0.42132333715E+02  0.44237715888E+01 -0.33007479355E+02  0.96144407252E+02  0.79746787102E+02 0.  0.
         -6    2    1    2    0  501  0.59202369469E+02 -0.90078707289E+02  0.48404504453E+02  0.21018885523E+03  0.17383113862E+03 0.  0.
        -24    2    5    5    0    0  0.10488312919E+03 -0.47868822080E+02  0.46315502298E+02  0.14778004057E+03  0.80011997359E+02 0.  0.
          4    1    4    4  502    0 -0.47195395088E+02  0.31238301422E+02 -0.46472393740E+01  0.56787618607E+02  0.00000000000E+00 0. -1.
         -3    1    4    4    0  502  0.50630613734E+01 -0.26814529833E+02 -0.28360239981E+02  0.39356788645E+02  0.00000000000E+00 0.  1.
          5    1    3    3  503    0 -0.17070035754E+02  0.85654935700E+02 -0.17406144173E+03  0.19480151341E+03  0.47000000000E+01 0. -1.
         13    1    6    6    0    0  0.99552372926E+02 -0.57010386348E+02  0.60804090412E+02  0.12983834764E+03  0.00000000000E+00 0. -1.
        -14    1    6    6    0    0  0.53307562619E+01  0.91415642678E+01 -0.14488588115E+02  0.17941692928E+02  0.00000000000E+00 0.  1.
         -5    1    5    5    0  501 -0.45680759719E+02 -0.42209885209E+02  0.20890021551E+01  0.62408814665E+02  0.47000000000E+01 0.  1.
<mgrwt>
<rscale>  2 0.20446066E+03</rscale>
<asrwt>0</asrwt>
<pdfrwt beam="2">  1        1 0.50753784E-01 0.20446066E+03</pdfrwt>
<pdfrwt beam="1">  1       -1 0.26343874E-01 0.20446066E+03</pdfrwt>
<totfact> 0.98888916E+02</totfact>
</mgrwt>
</event>
<event>
12    1  0.5759937E-002  0.2437998E+03  0.7546771E-02  0.1117287E+00
         -2   -1    0    0    0  501 -0.00000000000E+00  0.00000000000E+00  0.18593389725E+03  0.18593389725E+03  0.00000000000E+00 0.  1.
          2   -1    0    0  503    0  0.00000000000E+00 -0.00000000000E+00 -0.35104381767E+03  0.35104381767E+03  0.00000000000E+00 0. -1.
          6    2    1    2  503    0  0.13577629648E+03 -0.10613004989E+03 -0.21674159495E+01  0.24339055062E+03  0.17185887310E+03 0.  0.
         24    2    3    3    0    0  0.85175235267E+02  0.39717733771E+01  0.24803587864E+02  0.11916332361E+03  0.79461210892E+02 0.  0.
         -6    2    1    2    0  501 -0.13577629648E+03  0.10613004989E+03 -0.16294250447E+03  0.29358716430E+03  0.17304442523E+03 0.  0.
        -24    2    5    5    0    0 -0.11805644321E+03  0.37658468883E+02 -0.16641197379E+03  0.22261901776E+03  0.80689515969E+02 0.  0.
          2    1    4    4  502    0  0.51441112562E+02 -0.36588424324E+02  0.19862313221E+02  0.66177128546E+02  0.00000000000E+00 0. -1.
         -1    1    4    4    0  502  0.33734122705E+02  0.40560197701E+02  0.49412746426E+01  0.52986195064E+02  0.00000000000E+00 0.  1.
          5    1    3    3  503    0  0.50601061215E+02 -0.11010182327E+03 -0.26971003813E+02  0.12422722701E+03  0.47000000000E+01 0. -1.
         13    1    6    6    0    0 -0.63970764109E+02  0.61203629321E+02 -0.92282981530E+02  0.12788389884E+03  0.00000000000E+00 0. -1.
        -14    1    6    6    0    0 -0.54085679097E+02 -0.23545160438E+02 -0.74128992255E+02  0.94735118917E+02  0.00000000000E+00 0.  1.
         -5    1    5    5    0  501 -0.17719853276E+02  0.68471581011E+02  0.34694693162E+01  0.70968146542E+02  0.47000000000E+01 0.  1.
<mgrwt>
<rscale>  2 0.24379984E+03</rscale>
<asrwt>0</asrwt>
<pdfrwt beam="2">  1        2 0.54006741E-01 0.24379984E+03</pdfrwt>
<pdfrwt beam="1">  1       -2 0.28605215E-01 0.24379984E+03</pdfrwt>
<totfact> 0.10276637E+03</totfact>
</mgrwt>
</event>
<event>
12    1  0.5759937E-002  0.2344267E+03  0.7546771E-02  0.1123562E+00
          4   -1    0    0  503    0  0.00000000000E+00  0.00000000000E+00  0.31680494884E+03  0.31680494884E+03  0.00000000000E+00 0. -1.
         -4   -1    0    0    0  501 -0.00000000000E+00 -0.00000000000E+00 -0.17601422402E+03  0.17601422402E+03  0.00000000000E+00 0.  1.
          6    2    1    2  503    0  0.54993787926E+02  0.15011303072E+03  0.99765758295E+02  0.25400554366E+03  0.17031550423E+03 0.  0.
         24    2    3    3    0    0 -0.25156885912E+02  0.11407474786E+03  0.34752025290E+02  0.14458998797E+03  0.77798742604E+02 0.  0.
         -6    2    1    2    0  501 -0.54993787926E+02 -0.15011303072E+03  0.41024966523E+02  0.23881362920E+03  0.17259971875E+03 0.  0.
        -24    2    5    5    0    0  0.13035775598E+02 -0.11020599997E+02  0.19744306747E+02  0.82449687461E+02  0.78209515046E+02 0.  0.
          2    1    4    4  502    0 -0.22775517740E+02  0.97439749934E+02 -0.62670024929E+01  0.10026217829E+03  0.00000000000E+00 0. -1.
         -1    1    4    4    0  502 -0.23813681720E+01  0.16634997923E+02  0.41019027783E+02  0.44327809674E+02  0.00000000000E+00 0.  1.
          5    1    3    3  503    0  0.80150673839E+02  0.36038282861E+02  0.65013733006E+02  0.10941555569E+03  0.47000000000E+01 0. -1.
         11    1    6    6    0    0 -0.15294670000E+02 -0.36846251965E+02  0.18801676831E+02  0.44103018785E+02  0.00000000000E+00 0. -1.
        -12    1    6    6    0    0  0.28330445598E+02  0.25825651969E+02  0.94262991616E+00  0.38346668676E+02  0.00000000000E+00 0.  1.
         -5    1    5    5    0  501 -0.68029563524E+02 -0.13909243072E+03  0.21280659776E+02  0.15636394174E+03  0.47000000000E+01 0.  1.
<mgrwt>
<rscale>  2 0.23442666E+03</rscale>
<asrwt>0</asrwt>
<pdfrwt beam="1">  1        4 0.48739223E-01 0.23442666E+03</pdfrwt>
<pdfrwt beam="2">  1       -4 0.27079112E-01 0.23442666E+03</pdfrwt>
<totfact> 0.95664697E+01</totfact>
</mgrwt>
</event>
<event>
12    1  0.5759937E-002  0.1951988E+03  0.7546771E-02  0.1153854E+00
         -1   -1    0    0    0  501 -0.00000000000E+00  0.00000000000E+00  0.47035756352E+02  0.47035756352E+02  0.00000000000E+00 0. -1.
          1   -1    0    0  503    0  0.00000000000E+00 -0.00000000000E+00 -0.12940168546E+04  0.12940168546E+04  0.00000000000E+00 0.  1.
          6    2    1    2  503    0  0.23397236895E+02  0.87425479366E+02 -0.21375090970E+03  0.28957468307E+03  0.17312827771E+03 0.  0.
         24    2    3    3    0    0 -0.50161088215E+02  0.54159943498E+02 -0.86741805499E+02  0.13900634105E+03  0.79681790775E+02 0.  0.
         -6    2    1    2    0  501 -0.23397236895E+02 -0.87425479366E+02 -0.10332301886E+04  0.10514779279E+04  0.17277316096E+03 0.  0.
        -24    2    5    5    0    0 -0.78990896945E+02 -0.35379488318E+02 -0.62030890267E+03  0.63156660562E+03  0.81252523760E+02 0.  0.
          4    1    4    4  502    0 -0.11152850950E+02  0.66304478906E+02 -0.47197478032E+02  0.82147866314E+02  0.00000000000E+00 0. -1.
         -3    1    4    4    0  502 -0.39008237265E+02 -0.12144535409E+02 -0.39544327467E+02  0.56858474739E+02  0.00000000000E+00 0.  1.
          5    1    3    3  503    0  0.73558325110E+02  0.33265535868E+02 -0.12700910420E+03  0.15056834202E+03  0.47000000000E+01 0. -1.
         13    1    6    6    0    0  0.92322768335E+01  0.12765607099E+02 -0.48571584600E+02  0.51062652602E+02  0.00000000000E+00 0. -1.
        -14    1    6    6    0    0 -0.88223173778E+02 -0.48145095417E+02 -0.57173731807E+03  0.58050395302E+03  0.00000000000E+00 0.  1.
         -5    1    5    5    0  501  0.55593660050E+02 -0.52045991048E+02 -0.41292128589E+03  0.41991132226E+03  0.47000000000E+01 0.  1.
<mgrwt>
<rscale>  2 0.19519882E+03</rscale>
<asrwt>0</asrwt>
<pdfrwt beam="2">  1        1 0.19907952E+00 0.19519882E+03</pdfrwt>
<pdfrwt beam="1">  1       -1 0.72362699E-02 0.19519882E+03</pdfrwt>
<totfact> 0.99487109E+02</totfact>
</mgrwt>
</event>
<event>
12    1  0.5759937E-002  0.3952201E+03  0.7546771E-02  0.1045447E+00
          1   -1    0    0  503    0  0.00000000000E+00  0.00000000000E+00  0.70988601114E+03  0.70988601114E+03  0.00000000000E+00 0.  1.
         -1   -1    0    0    0  501 -0.00000000000E+00 -0.00000000000E+00 -0.47103361745E+03  0.47103361745E+03  0.00000000000E+00 0. -1.
          6    2    1    2  503    0 -0.15806965233E+02 -0.35498818170E+03 -0.31160210230E+03  0.50325804007E+03  0.17293442526E+03 0.  0.
         24    2    3    3    0    0  0.43386636377E+02 -0.22676729452E+03 -0.25455794455E+03  0.35087495598E+03  0.70764973863E+02 0.  0.
         -6    2    1    2    0  501  0.15806965233E+02  0.35498818170E+03  0.55045449599E+03  0.67766158852E+03  0.17308554849E+03 0.  0.
        -24    2    5    5    0    0 -0.19714445624E+01  0.70924085307E+02  0.11500081307E+03  0.15742079554E+03  0.80758946188E+02 0.  0.
          2    1    4    4  502    0  0.38889283398E+02 -0.15547908801E+03 -0.21816989585E+03  0.27071059571E+03  0.00000000000E+00 0. -1.
         -1    1    4    4    0  502  0.44973529789E+01 -0.71288206505E+02 -0.36388048693E+02  0.80164360274E+02  0.00000000000E+00 0.  1.
          5    1    3    3  503    0 -0.59193601610E+02 -0.12822088719E+03 -0.57044157752E+02  0.15238308409E+03  0.47000000000E+01 0. -1.
         13    1    6    6    0    0  0.33916278796E+01  0.63131601823E+02  0.26724231676E+02  0.68638814435E+02  0.00000000000E+00 0. -1.
        -14    1    6    6    0    0 -0.53630724420E+01  0.77924834839E+01  0.88276581399E+02  0.88781981102E+02  0.00000000000E+00 0.  1.
         -5    1    5    5    0  501  0.17778409795E+02  0.28406409640E+03  0.43545368291E+03  0.52024079298E+03  0.47000000000E+01 0.  1.
<mgrwt>
<rscale>  2 0.39522010E+03</rscale>
<asrwt>0</asrwt>
<pdfrwt beam="1">  1        1 0.10921323E+00 0.39522010E+03</pdfrwt>
<pdfrwt beam="2">  1       -1 0.72466710E-01 0.39522010E+03</pdfrwt>
<totfact> 0.54647178E+01</totfact>
</mgrwt>
</event>
<event>
12    1  0.5759937E-002  0.2557262E+03  0.7546771E-02  0.1109739E+00
         -3   -1    0    0    0  501 -0.00000000000E+00  0.00000000000E+00  0.88081195448E+02  0.88081195448E+02  0.00000000000E+00 0. -1.
          3   -1    0    0  503    0  0.00000000000E+00 -0.00000000000E+00 -0.11386040672E+04  0.11386040672E+04  0.00000000000E+00 0.  1.
          6    2    1    2  503    0  0.15301122927E+03 -0.10553407486E+03 -0.16366818863E+03  0.30373647035E+03  0.17583711273E+03 0.  0.
         24    2    3    3    0    0  0.14065102177E+03 -0.14268527816E+03 -0.14573156950E+03  0.26041443275E+03  0.80225855605E+02 0.  0.
         -6    2    1    2    0  501 -0.15301122927E+03  0.10553407486E+03 -0.88685468316E+03  0.92294879234E+03  0.17542339351E+03 0.  0.
        -24    2    5    5    0    0 -0.17869226414E+03  0.11591900949E+03 -0.78592585640E+03  0.81818200136E+03  0.79838546913E+02 0.  0.
          2    1    4    4  502    0  0.11490115774E+03 -0.83533238462E+02 -0.13311543732E+03  0.19467870358E+03  0.00000000000E+00 0. -1.
         -1    1    4    4    0  502  0.25749864035E+02 -0.59152039697E+02 -0.12616132189E+02  0.65735729170E+02  0.00000000000E+00 0.  1.
          5    1    3    3  503    0  0.12360207495E+02  0.37151203301E+02 -0.17936619126E+02  0.43322037599E+02  0.47000000000E+01 0. -1.
         13    1    6    6    0    0 -0.10275379727E+03  0.19564324697E+02 -0.37831228075E+03  0.39250641705E+03  0.00000000000E+00 0. -1.
        -14    1    6    6    0    0 -0.75938466864E+02  0.96354684788E+02 -0.40761357564E+03  0.42567558431E+03  0.00000000000E+00 0.  1.
         -5    1    5    5    0  501  0.25681034870E+02 -0.10384934627E+02 -0.10092882676E+03  0.10476679098E+03  0.47000000000E+01 0.  1.
<mgrwt>
<rscale>  2 0.25572615E+03</rscale>
<asrwt>0</asrwt>
<pdfrwt beam="2">  1        3 0.17516986E+00 0.25572615E+03</pdfrwt>
<pdfrwt beam="1">  1       -3 0.13550953E-01 0.25572615E+03</pdfrwt>
<totfact> 0.25208305E+01</totfact>
</mgrwt>
</event>
<event>
12    1  0.5759937E-002  0.2592857E+03  0.7546771E-02  0.1107573E+00
         -1   -1    0    0    0  501 -0.00000000000E+00  0.00000000000E+00  0.85226934752E+03  0.85226934752E+03  0.00000000000E+00 0.  1.
          1   -1    0    0  503    0  0.00000000000E+00 -0.00000000000E+00 -0.15221967787E+03  0.15221967787E+03  0.00000000000E+00 0. -1.
          6    2    1    2  503    0  0.14763404809E+03 -0.12264964620E+03  0.69911387323E+03  0.74588560170E+03  0.17534644340E+03 0.  0.
         24    2    3    3    0    0  0.10213630150E+03 -0.29019962928E+02  0.53602251391E+03  0.55234634466E+03  0.80575223856E+02 0.  0.
         -6    2    1    2    0  501 -0.14763404809E+03  0.12264964620E+03  0.93579642731E+00  0.25860342369E+03  0.17330928181E+03 0.  0.
        -24    2    5    5    0    0 -0.12349923800E+03  0.16945084545E+02 -0.11130460979E+02  0.14940805758E+03  0.81606879809E+02 0.  0.
          4    1    4    4  502    0  0.11466136760E+03 -0.30483944867E+02  0.44882580209E+03  0.46424250208E+03  0.00000000000E+00 0. -1.
         -3    1    4    4    0  502 -0.12525066101E+02  0.14639819388E+01  0.87196711825E+02  0.88103842578E+02  0.00000000000E+00 0.  1.
          5    1    3    3  503    0  0.45497746594E+02 -0.93629683269E+02  0.16309135932E+03  0.19353925704E+03  0.47000000000E+01 0. -1.
         13    1    6    6    0    0 -0.13305112326E+03  0.26124843665E+02 -0.12063962007E+02  0.13612732289E+03  0.00000000000E+00 0. -1.
        -14    1    6    6    0    0  0.95518852677E+01 -0.91797591206E+01  0.93350102815E+00  0.13280734688E+02  0.00000000000E+00 0.  1.
         -5    1    5    5    0  501 -0.24134810095E+02  0.10570456165E+03  0.12066257406E+02  0.10919536611E+03  0.47000000000E+01 0.  1.
<mgrwt>
<rscale>  2 0.25928566E+03</rscale>
<asrwt>0</asrwt>
<pdfrwt beam="2">  1        1 0.23418412E-01 0.25928566E+03</pdfrwt>
<pdfrwt beam="1">  1       -1 0.13111836E+00 0.25928566E+03</pdfrwt>
<totfact> 0.11179882E+02</totfact>
</mgrwt>
</event>
<event>
12    1  0.5759937E-002  0.1841860E+03  0.7546771E-02  0.1163812E+00
         -1   -1    0    0    0  501 -0.00000000000E+00  0.00000000000E+00  0.81245297794E+02  0.81245297794E+02  0.00000000000E+00 0.  1.
          1   -1    0    0  503    0  0.00000000000E+00 -0.00000000000E+00 -0.63366495165E+03  0.63366495165E+03  0.00000000000E+00 0. -1.
          6    2    1    2  503    0 -0.69027715238E+02  0.20204526351E+01 -0.63628677300E+02  0.19112717486E+03  0.16646945875E+03 0.  0.
         24    2    3    3    0    0 -0.10310132018E+03 -0.39296612096E+01 -0.80648474070E+02  0.15229190879E+03  0.77738823339E+02 0.  0.
         -6    2    1    2    0  501  0.69027715238E+02 -0.20204526351E+01 -0.48879097656E+03  0.52378307458E+03  0.17510905960E+03 0.  0.
        -24    2    5    5    0    0  0.35482461912E+02 -0.77483861542E+02 -0.31938055285E+03  0.33525723612E+03  0.55952863501E+02 0.  0.
          2    1    4    4  502    0 -0.55721501939E+02 -0.66616018338E+01 -0.87896066036E+02  0.10428317766E+03  0.00000000000E+00 0. -1.
         -1    1    4    4    0  502 -0.47379818242E+02  0.27319406242E+01  0.72475919663E+01  0.48008731138E+02  0.00000000000E+00 0.  1.
          5    1    3    3  503    0  0.34073604943E+02  0.59501138447E+01  0.17019796770E+02  0.38835266069E+02  0.47000000000E+01 0. -1.
         11    1    6    6    0    0  0.49911991096E+02 -0.49852077946E+02 -0.23164623704E+03  0.24214957292E+03  0.00000000000E+00 0. -1.
        -12    1    6    6    0    0 -0.14429529184E+02 -0.27631783596E+02 -0.87734315808E+02  0.93107663205E+02  0.00000000000E+00 0.  1.
         -5    1    5    5    0  501  0.33545253326E+02  0.75463408906E+02 -0.16941042371E+03  0.18852583846E+03  0.47000000000E+01 0.  1.
<mgrwt>
<rscale>  2 0.18418595E+03</rscale>
<asrwt>0</asrwt>
<pdfrwt beam="2">  1        1 0.97486915E-01 0.18418595E+03</pdfrwt>
<pdfrwt beam="1">  1       -1 0.12499277E-01 0.18418595E+03</pdfrwt>
<totfact> 0.13941226E+03</totfact>
</mgrwt>
</event>
<event>
12    1  0.5759937E-002  0.1740521E+03  0.7546771E-02  0.1173687E+00
         -1   -1    0    0    0  501 -0.00000000000E+00  0.00000000000E+00  0.81096886958E+02  0.81096886958E+02  0.00000000000E+00 0.  1.
          1   -1    0    0  503    0  0.00000000000E+00 -0.00000000000E+00 -0.50437424644E+03  0.50437424644E+03  0.00000000000E+00 0. -1.
          6    2    1    2  503    0  0.65589932811E+01 -0.22877166453E+02 -0.62613882987E+02  0.18503527941E+03  0.17248527806E+03 0.  0.
         24    2    3    3    0    0 -0.16275755509E+02  0.46538178035E+02 -0.47878715183E+02  0.11034169888E+03  0.86326223778E+02 0.  0.
         -6    2    1    2    0  501 -0.65589932811E+01  0.22877166453E+02 -0.36066347650E+03  0.40043585399E+03  0.17234948431E+03 0.  0.
        -24    2    5    5    0    0 -0.65857505211E+02  0.19214454445E+02 -0.28351289648E+03  0.30294723427E+03  0.81798887717E+02 0.  0.
          4    1    4    4  502    0  0.20647422650E+02  0.50042726662E+02 -0.49308366207E+02  0.73225033505E+02  0.00000000000E+00 0. -1.
         -3    1    4    4    0  502 -0.36923178159E+02 -0.35045486274E+01  0.14296510241E+01  0.37116665374E+02  0.00000000000E+00 0.  1.
          5    1    3    3  503    0  0.22834748790E+02 -0.69415344488E+02 -0.14735167805E+02  0.74693580534E+02  0.47000000000E+01 0. -1.
         13    1    6    6    0    0 -0.20532814214E+02 -0.28681821806E+02 -0.57006075294E+02  0.67036825567E+02  0.00000000000E+00 0. -1.
        -14    1    6    6    0    0 -0.45324690998E+02  0.47896276251E+02 -0.22650682118E+03  0.23591040871E+03  0.00000000000E+00 0.  1.
         -5    1    5    5    0  501  0.59298511930E+02  0.36627120080E+01 -0.77150580018E+02  0.97488619713E+02  0.47000000000E+01 0.  1.
<mgrwt>
<rscale>  2 0.17405210E+03</rscale>
<asrwt>0</asrwt>
<pdfrwt beam="2">  1        1 0.77596038E-01 0.17405210E+03</pdfrwt>
<pdfrwt beam="1">  1       -1 0.12476444E-01 0.17405210E+03</pdfrwt>
<totfact> 0.19028593E+03</totfact>
</mgrwt>
</event>
<event>
12    1  0.5759937E-002  0.1911403E+03  0.7546771E-02  0.1157437E+00
          1   -1    0    0  503    0  0.00000000000E+00  0.00000000000E+00  0.67202740524E+03  0.67202740524E+03  0.00000000000E+00 0.  1.
         -1   -1    0    0    0  501 -0.00000000000E+00 -0.00000000000E+00 -0.10311491410E+03  0.10311491410E+03  0.00000000000E+00 0. -1.
          6    2    1    2  503    0 -0.65063668776E+02  0.47113478742E+02  0.55116944713E+03  0.58346572520E+03  0.17375710678E+03 0.  0.
         24    2    3    3    0    0 -0.18749882936E+02 -0.35649327144E+01  0.46387740033E+03  0.47231150989E+03  0.86785096525E+02 0.  0.
         -6    2    1    2    0  501  0.65063668776E+02 -0.47113478742E+02  0.17743044014E+02  0.19167659415E+03  0.17312463793E+03 0.  0.
        -24    2    5    5    0    0  0.57246644492E+02  0.32335546385E+02 -0.18186269152E+02  0.10400528181E+03  0.78508549809E+02 0.  0.
          4    1    4    4  502    0  0.31402817462E+02  0.12978735788E+02  0.23344171946E+03  0.23590171876E+03  0.00000000000E+00 0. -1.
         -3    1    4    4    0  502 -0.50152700398E+02 -0.16543668502E+02  0.23043568087E+03  0.23640979113E+03  0.00000000000E+00 0.  1.
          5    1    3    3  503    0 -0.46313785840E+02  0.50678411457E+02  0.87292046800E+02  0.11115421531E+03  0.47000000000E+01 0. -1.
         11    1    6    6    0    0  0.68691972301E+02  0.16220188309E+01 -0.18750766283E+02  0.71223656462E+02  0.00000000000E+00 0. -1.
        -12    1    6    6    0    0 -0.11445327809E+02  0.30713527554E+02  0.56449713050E+00  0.32781625348E+02  0.00000000000E+00 0.  1.
         -5    1    5    5    0  501  0.78170242836E+01 -0.79449025127E+02  0.35929313166E+02  0.87671312337E+02  0.47000000000E+01 0.  1.
<mgrwt>
<rscale>  2 0.19114035E+03</rscale>
<asrwt>0</asrwt>
<pdfrwt beam="1">  1        1 0.10338883E+00 0.19114035E+03</pdfrwt>
<pdfrwt beam="2">  1       -1 0.15863833E-01 0.19114035E+03</pdfrwt>
<totfact> 0.88211757E+02</totfact>
</mgrwt>
</event>
<event>
12    1  0.5759937E-002  0.1734195E+03  0.7546771E-02  0.1174328E+00
          3   -1    0    0  503    0  0.00000000000E+00  0.00000000000E+00  0.21465688344E+03  0.21465688344E+03  0.00000000000E+00 0. -1.
         -3   -1    0    0    0  501 -0.00000000000E+00 -0.00000000000E+00 -0.14014173612E+03  0.14014173612E+03  0.00000000000E+00 0.  1.
          6    2    1    2  503    0 -0.97934721813E+01 -0.26571795081E+01  0.34378443575E+02  0.17691098069E+03  0.17324157989E+03 0.  0.
         24    2    3    3    0    0  0.10092948571E+02 -0.29959767107E+02 -0.39437123960E+02  0.95598441490E+02  0.81143823013E+02 0.  0.
         -6    2    1    2    0  501  0.97934721813E+01  0.26571795081E+01  0.40136703747E+02  0.17788763888E+03  0.17300313401E+03 0.  0.
        -24    2    5    5    0    0  0.58365396057E+02  0.29504038768E+02 -0.60558891239E+01  0.10552859468E+03  0.82599048064E+02 0.  0.
          4    1    4    4  502    0  0.14802016719E+02  0.18392180482E+02 -0.40643406149E+02  0.47002749550E+02  0.00000000000E+00 0. -1.
         -3    1    4    4    0  502 -0.47090681478E+01 -0.48351947589E+02  0.12062821891E+01  0.48595691941E+02  0.00000000000E+00 0.  1.
          5    1    3    3  503    0 -0.19886420753E+02  0.27302587599E+02  0.73815567535E+02  0.81312539196E+02  0.47000000000E+01 0. -1.
         13    1    6    6    0    0  0.52933360312E+01  0.48362019542E+02  0.16629549198E+01  0.48679253893E+02  0.00000000000E+00 0. -1.
        -14    1    6    6    0    0  0.53072060026E+02 -0.18857980774E+02 -0.77188440437E+01  0.56849340784E+02  0.00000000000E+00 0.  1.
         -5    1    5    5    0  501 -0.48571923876E+02 -0.26846859260E+02  0.46192592871E+02  0.72359044198E+02  0.47000000000E+01 0.  1.
<mgrwt>
<rscale>  2 0.17341946E+03</rscale>
<asrwt>0</asrwt>
<pdfrwt beam="1">  1        3 0.33024136E-01 0.17341946E+03</pdfrwt>
<pdfrwt beam="2">  1       -3 0.21560267E-01 0.17341946E+03</pdfrwt>
<totfact> 0.42225442E+02</totfact>
</mgrwt>
</event>
<event>
12    1  0.5759937E-002  0.1899001E+03  0.7546771E-02  0.1158551E+00
         -2   -1    0    0    0  501 -0.00000000000E+00  0.00000000000E+00  0.68763153938E+02  0.68763153938E+02  0.00000000000E+00 0. -1.
          2   -1    0    0  503    0  0.00000000000E+00 -0.00000000000E+00 -0.68870156035E+03  0.68870156035E+03  0.00000000000E+00 0.  1.
          6    2    1    2  503    0  0.82841591177E+02  0.25238971555E+01 -0.12693519365E+03  0.22969905846E+03  0.17256886969E+03 0.  0.
         24    2    3    3    0    0 -0.47250503706E+01 -0.28575535297E+02 -0.21397862555E+02  0.89003253032E+02  0.81393016960E+02 0.  0.
         -6    2    1    2    0  501 -0.82841591177E+02 -0.25238971555E+01 -0.49300321277E+03  0.52776565583E+03  0.16916063488E+03 0.  0.
        -24    2    5    5    0    0  0.75294937869E+01  0.35290380806E+02 -0.18359680662E+03  0.20318705706E+03  0.79215456207E+02 0.  0.
          2    1    4    4  502    0  0.10931458624E+02 -0.50692521698E+02  0.38046043098E+01  0.51997149515E+02  0.00000000000E+00 0. -1.
         -1    1    4    4    0  502 -0.15656508995E+02  0.22116986401E+02 -0.25202466865E+02  0.37006103516E+02  0.00000000000E+00 0.  1.
          5    1    3    3  503    0  0.87566641548E+02  0.31099432452E+02 -0.10553733109E+03  0.14069580543E+03  0.47000000000E+01 0. -1.
         13    1    6    6    0    0  0.22657392576E+02 -0.99106308232E+00 -0.92987574818E+01  0.24511355227E+02  0.00000000000E+00 0. -1.
        -14    1    6    6    0    0 -0.15127898789E+02  0.36281443888E+02 -0.17429804914E+03  0.17867570184E+03  0.00000000000E+00 0.  1.
         -5    1    5    5    0  501 -0.90371084964E+02 -0.37814277961E+02 -0.30940640614E+03  0.32457859877E+03  0.47000000000E+01 0.  1.
<mgrwt>
<rscale>  2 0.18990015E+03</rscale>
<asrwt>0</asrwt>
<pdfrwt beam="2">  1        2 0.10595409E+00 0.18990015E+03</pdfrwt>
<pdfrwt beam="1">  1       -2 0.10578947E-01 0.18990015E+03</pdfrwt>
<totfact> 0.25686345E+03</totfact>
</mgrwt>
</event>
<event>
12    1  0.5759937E-002  0.2156182E+03  0.7546771E-02  0.1137193E+00
         -3   -1    0    0    0  501 -0.00000000000E+00  0.00000000000E+00  0.79160441222E+02  0.79160441222E+02  0.00000000000E+00 0.  1.
          3   -1    0    0  503    0  0.00000000000E+00 -0.00000000000E+00 -0.59944738814E+03  0.59944738814E+03  0.00000000000E+00 0. -1.
          6    2    1    2  503    0  0.63195440743E+02 -0.11220749306E+03 -0.21194557888E+03  0.30240197974E+03  0.17303711657E+03 0.  0.
         24    2    3    3    0    0  0.16815682029E+02  0.75767959223E+01 -0.49125563625E+02  0.94960891054E+02  0.79145908483E+02 0.  0.
         -6    2    1    2    0  501 -0.63195440743E+02  0.11220749306E+03 -0.30834136803E+03  0.37620584962E+03  0.17283592456E+03 0.  0.
        -24    2    5    5    0    0  0.33228643308E+02  0.44544316916E+02 -0.14772944833E+03  0.17697184614E+03  0.80041898516E+02 0.  0.
          4    1    4    4  502    0  0.47937534048E+02  0.96234546425E+01 -0.37715919997E+02  0.61750373853E+02  0.00000000000E+00 0. -1.
         -3    1    4    4    0  502 -0.31121852018E+02 -0.20466587202E+01 -0.11409643628E+02  0.33210517200E+02  0.00000000000E+00 0.  1.
          5    1    3    3  503    0  0.46379758713E+02 -0.11978428899E+03 -0.16282001526E+03  0.20744108869E+03  0.47000000000E+01 0. -1.
         13    1    6    6    0    0 -0.20147777083E+02 -0.62635107443E+01 -0.17822545560E+02  0.27618972075E+02  0.00000000000E+00 0. -1.
        -14    1    6    6    0    0  0.53376420391E+02  0.50807827660E+02 -0.12990690277E+03  0.14935287407E+03  0.00000000000E+00 0.  1.
         -5    1    5    5    0  501 -0.96424084051E+02  0.67663176149E+02 -0.16061191971E+03  0.19923400348E+03  0.47000000000E+01 0.  1.
<mgrwt>
<rscale>  2 0.21561823E+03</rscale>
<asrwt>0</asrwt>
<pdfrwt beam="2">  1        3 0.92222677E-01 0.21561823E+03</pdfrwt>
<pdfrwt beam="1">  1       -3 0.12178529E-01 0.21561823E+03</pdfrwt>
<totfact> 0.14199117E+02</totfact>
</mgrwt>
</event>
<event>
12    1  0.5759937E-002  0.2657401E+03  0.7546771E-02  0.1103743E+00
         -2   -1    0    0    0  501 -0.00000000000E+00  0.00000000000E+00  0.26827987262E+03  0.26827987262E+03  0.00000000000E+00 0. -1.
          2   -1    0    0  503    0  0.00000000000E+00 -0.00000000000E+00 -0.27347393601E+03  0.27347393601E+03  0.00000000000E+00 0.  1.
          6    2    1    2  503    0 -0.29978479304E+02  0.19931182521E+03 -0.55032222369E+02  0.27098547537E+03  0.17257076655E+03 0.  0.
         24    2    3    3    0    0  0.31771396923E+02  0.24537360203E+02 -0.12173171309E+02  0.80674810684E+02  0.68911067841E+02 0.  0.
         -6    2    1    2    0  501  0.29978479304E+02 -0.19931182521E+03  0.49838158978E+02  0.27076833326E+03  0.17380372641E+03 0.  0.
        -24    2    5    5    0    0 -0.71728177069E+01 -0.17237304928E+03 -0.14972289939E+02  0.19121708684E+03  0.81091845461E+02 0.  0.
          2    1    4    4  502    0  0.93514570943E+00 -0.15905414990E+02  0.15962384908E+02  0.22553369048E+02  0.00000000000E+00 0. -1.
         -1    1    4    4    0  502  0.30836251214E+02  0.40442775193E+02 -0.28135556217E+02  0.58121441636E+02  0.00000000000E+00 0.  1.
          5    1    3    3  503    0 -0.61749876227E+02  0.17477446501E+03 -0.42859051059E+02  0.19031066468E+03  0.47000000000E+01 0. -1.
         11    1    6    6    0    0 -0.97409265212E+01 -0.17921570807E+03 -0.59136082928E+01  0.17957763344E+03  0.00000000000E+00 0. -1.
        -12    1    6    6    0    0  0.25681088143E+01  0.68426587909E+01 -0.90586816459E+01  0.11639453397E+02  0.00000000000E+00 0.  1.
         -5    1    5    5    0  501  0.37151297011E+02 -0.26938775933E+02  0.64810448917E+02  0.79551246421E+02  0.47000000000E+01 0.  1.
<mgrwt>
<rscale>  2 0.26574008E+03</rscale>
<asrwt>0</asrwt>
<pdfrwt beam="2">  1        2 0.42072913E-01 0.26574008E+03</pdfrwt>
<pdfrwt beam="1">  1       -2 0.41273827E-01 0.26574008E+03</pdfrwt>
<totfact> 0.68004779E+02</totfact>
</mgrwt>
</event>
<event>
12    1  0.5759937E-002  0.1853786E+03  0.7546771E-02  0.1162697E+00
          2   -1    0    0  503    0  0.00000000000E+00  0.00000000000E+00  0.50696080595E+03  0.50696080595E+03  0.00000000000E+00 0.  1.
         -2   -1    0    0    0  501 -0.00000000000E+00 -0.00000000000E+00 -0.10454899042E+03  0.10454899042E+03  0.00000000000E+00 0. -1.
          6    2    1    2  503    0 -0.55454023559E+02  0.37585181540E+02  0.19938203224E+02  0.18650313428E+03  0.17291064903E+03 0.  0.
         24    2    3    3    0    0 -0.83839256035E+00 -0.25521998468E+02  0.47756368718E+02  0.98404759438E+02  0.82162951620E+02 0.  0.
         -6    2    1    2    0  501  0.55454023559E+02 -0.37585181540E+02  0.38247361231E+03  0.42500666209E+03  0.17279121537E+03 0.  0.
        -24    2    5    5    0    0  0.32534439777E+02 -0.23655393583E+02  0.77707872806E+02  0.11902693680E+03  0.80689719117E+02 0.  0.
          4    1    4    4  502    0  0.80011747753E+01  0.45385591891E-01  0.65542587163E+02  0.66029172263E+02  0.00000000000E+00 0. -1.
         -3    1    4    4    0  502 -0.88395673357E+01 -0.25567384060E+02 -0.17786218445E+02  0.32375587175E+02  0.00000000000E+00 0.  1.
          5    1    3    3  503    0 -0.54615630999E+02  0.63107180008E+02 -0.27818165495E+02  0.88098374840E+02  0.47000000000E+01 0. -1.
         13    1    6    6    0    0  0.28718011194E+02 -0.41698246060E+02  0.85210152928E+02  0.99117294422E+02  0.00000000000E+00 0. -1.
        -14    1    6    6    0    0  0.38164285833E+01  0.18042852478E+02 -0.75022801221E+01  0.19909642380E+02  0.00000000000E+00 0.  1.
         -5    1    5    5    0  501  0.22919583782E+02 -0.13929787957E+02  0.30476573950E+03  0.30597972529E+03  0.47000000000E+01 0.  1.
<mgrwt>
<rscale>  2 0.18537863E+03</rscale>
<asrwt>0</asrwt>
<pdfrwt beam="1">  1        2 0.77993969E-01 0.18537863E+03</pdfrwt>
<pdfrwt beam="2">  1       -2 0.16084460E-01 0.18537863E+03</pdfrwt>
<totfact> 0.18501479E+03</totfact>
</mgrwt>
</event>
<event>
12    1  0.5759937E-002  0.2181380E+03  0.7546771E-02  0.1135279E+00
          2   -1    0    0  503    0  0.00000000000E+00  0.00000000000E+00  0.11612482330E+04  0.11612482330E+04  0.00000000000E+00 0. -1.
         -2   -1    0    0    0  501 -0.00000000000E+00 -0.00000000000E+00 -0.82184343029E+02  0.82184343029E+02  0.00000000000E+00 0.  1.
          6    2    1    2  503    0 -0.47967757581E+02  0.12499318038E+03  0.97994373528E+03  0.10039601143E+04  0.17240065496E+03 0.  0.
         24    2    3    3    0    0 -0.32324757738E+02  0.15077455007E+03  0.92388571165E+03  0.94013242059E+03  0.80661670870E+02 0.  0.
         -6    2    1    2    0  501  0.47967757581E+02 -0.12499318038E+03  0.99120154649E+02  0.23947246171E+03  0.17204084966E+03 0.  0.
        -24    2    5    5    0    0  0.96317097098E+02 -0.77392988499E+02  0.56918001080E+02  0.15943154303E+03  0.83139041386E+02 0.  0.
          2    1    4    4  502    0  0.25327892947E+02  0.71436481914E+02  0.42262858859E+03  0.42937116461E+03  0.00000000000E+00 0. -1.
         -1    1    4    4    0  502 -0.57652650685E+02  0.79338068156E+02  0.50125712306E+03  0.51076125598E+03  0.00000000000E+00 0.  1.
          5    1    3    3  503    0 -0.15642999844E+02 -0.25781369693E+02  0.56058023632E+02  0.63827693683E+02  0.47000000000E+01 0. -1.
         11    1    6    6    0    0  0.28790541316E+01  0.13190458359E+02  0.20049329544E+02  0.24171321014E+02  0.00000000000E+00 0. -1.
        -12    1    6    6    0    0  0.93438042966E+02 -0.90583446858E+02  0.36868671536E+02  0.13526022201E+03  0.00000000000E+00 0.  1.
         -5    1    5    5    0  501 -0.48349339516E+02 -0.47600191877E+02  0.42202153569E+02  0.80040918687E+02  0.47000000000E+01 0.  1.
<mgrwt>
<rscale>  2 0.21813798E+03</rscale>
<asrwt>0</asrwt>
<pdfrwt beam="1">  1        2 0.17865356E+00 0.21813798E+03</pdfrwt>
<pdfrwt beam="2">  1       -2 0.12643746E-01 0.21813798E+03</pdfrwt>
<totfact> 0.95968911E+02</totfact>
</mgrwt>
</event>
<event>
12    1  0.5759937E-002  0.2034596E+03  0.7546771E-02  0.1146853E+00
          2   -1    0    0  503    0  0.00000000000E+00  0.00000000000E+00  0.15080834687E+04  0.15080834687E+04  0.00000000000E+00 0. -1.
         -2   -1    0    0    0  501 -0.00000000000E+00 -0.00000000000E+00 -0.27593174950E+02  0.27593174950E+02  0.00000000000E+00 0.  1.
          6    2    1    2  503    0 -0.98791149265E+02 -0.44889162991E+02  0.80137117567E+03  0.82720954636E+03  0.17408372775E+03 0.  0.
         24    2    3    3    0    0 -0.40995461525E+02 -0.62996039623E+02  0.17790526020E+03  0.20079112529E+03  0.54933282393E+02 0.  0.
         -6    2    1    2    0  501  0.98791149265E+02  0.44889162991E+02  0.67911911809E+03  0.70846709730E+03  0.17014148017E+03 0.  0.
        -24    2    5    5    0    0  0.38541707293E+02  0.38393579125E+02  0.60864742643E+03  0.61540509005E+03  0.72884875276E+02 0.  0.
          4    1    4    4  502    0  0.13052824151E+02 -0.55982504472E+01  0.24788058690E+02  0.28568592545E+02  0.00000000000E+00 0. -1.
         -3    1    4    4    0  502 -0.54048285676E+02 -0.57397789176E+02  0.15311720151E+03  0.17222253275E+03  0.00000000000E+00 0.  1.
          5    1    3    3  503    0 -0.57795687740E+02  0.18106876632E+02  0.62346591547E+03  0.62641842107E+03  0.47000000000E+01 0. -1.
         11    1    6    6    0    0  0.45500899798E+02  0.10816246212E+02  0.52449837981E+03  0.52657940853E+03  0.00000000000E+00 0. -1.
        -12    1    6    6    0    0 -0.69591925052E+01  0.27577332913E+02  0.84149046614E+02  0.88825681517E+02  0.00000000000E+00 0.  1.
         -5    1    5    5    0  501  0.60249441972E+02  0.64955838659E+01  0.70471691666E+02  0.93062007253E+02  0.47000000000E+01 0.  1.
<mgrwt>
<rscale>  2 0.20345958E+03</rscale>
<asrwt>0</asrwt>
<pdfrwt beam="1">  1        2 0.23201278E+00 0.20345958E+03</pdfrwt>
<pdfrwt beam="2">  1       -2 0.42451050E-02 0.20345958E+03</pdfrwt>
<totfact> 0.33855576E+03</totfact>
</mgrwt>
</event>
<event>
12    1  0.5759937E-002  0.1898235E+03  0.7546771E-02  0.1158621E+00
          1   -1    0    0  503    0  0.00000000000E+00  0.00000000000E+00  0.21633593987E+03  0.21633593987E+03  0.00000000000E+00 0.  1.
         -1   -1    0    0    0  501 -0.00000000000E+00 -0.00000000000E+00 -0.16693548717E+03  0.16693548717E+03  0.00000000000E+00 0. -1.
          6    2    1    2  503    0  0.33021281619E+02  0.70150482099E+02  0.33847207194E+02  0.19443747227E+03  0.17506799253E+03 0.  0.
         24    2    3    3    0    0 -0.18964529683E+02 -0.20636047198E+02  0.24690329008E+02  0.89315367566E+02  0.81130282304E+02 0.  0.
         -6    2    1    2    0  501 -0.33021281619E+02 -0.70150482099E+02  0.15553245505E+02  0.18883395477E+03  0.17147846468E+03 0.  0.
        -24    2    5    5    0    0 -0.40816175353E+02 -0.10219437669E+03 -0.22121933054E+02  0.13854398928E+03  0.81212106534E+02 0.  0.
          4    1    4    4  502    0 -0.40887794438E+02 -0.41748965167E+00 -0.11446114846E+02  0.42461742506E+02  0.00000000000E+00 0. -1.
         -3    1    4    4    0  502  0.21923264755E+02 -0.20218557546E+02  0.36136443854E+02  0.46853625059E+02  0.00000000000E+00 0.  1.
          5    1    3    3  503    0  0.51985811302E+02  0.90786529297E+02  0.91568781857E+01  0.10512210470E+03  0.47000000000E+01 0. -1.
         11    1    6    6    0    0 -0.80261951075E+01  0.84253298105E+01  0.13471481666E+02  0.17801314800E+02  0.00000000000E+00 0. -1.
        -12    1    6    6    0    0 -0.32789980246E+02 -0.11061970650E+03 -0.35593414720E+02  0.12074267448E+03  0.00000000000E+00 0.  1.
         -5    1    5    5    0  501  0.77948937340E+01  0.32043894588E+02  0.37675178560E+02  0.50289965482E+02  0.47000000000E+01 0.  1.
<mgrwt>
<rscale>  2 0.18982350E+03</rscale>
<asrwt>0</asrwt>
<pdfrwt beam="1">  1        1 0.33282452E-01 0.18982350E+03</pdfrwt>
<pdfrwt beam="2">  1       -1 0.25682383E-01 0.18982350E+03</pdfrwt>
<totfact> 0.17472702E+03</totfact>
</mgrwt>
</event>
<event>
12    1  0.5759937E-002  0.1812925E+03  0.7546771E-02  0.1166558E+00
         -2   -1    0    0    0  501 -0.00000000000E+00  0.00000000000E+00  0.27970400823E+02  0.27970400823E+02  0.00000000000E+00 0. -1.
          2   -1    0    0  503    0  0.00000000000E+00 -0.00000000000E+00 -0.12360101894E+04  0.12360101894E+04  0.00000000000E+00 0.  1.
          6    2    1    2  503    0 -0.55992457437E+02  0.32034058684E+02 -0.76245518143E+03  0.78520577090E+03  0.17620687487E+03 0.  0.
         24    2    3    3    0    0 -0.52962998298E+02 -0.47335306141E+02 -0.40649482845E+03  0.42046128967E+03  0.80647009567E+02 0.  0.
         -6    2    1    2    0  501  0.55992457437E+02 -0.32034058684E+02 -0.44558460710E+03  0.47877481929E+03  0.16284455560E+03 0.  0.
        -24    2    5    5    0    0  0.75967162412E+02  0.13367680412E+02 -0.38295251237E+03  0.39874247556E+03  0.79957679048E+02 0.  0.
          4    1    4    4  502    0 -0.94779497501E+01 -0.60019661831E+02 -0.19854043189E+03  0.20763066833E+03  0.00000000000E+00 0. -1.
         -3    1    4    4    0  502 -0.43485048548E+02  0.12684355690E+02 -0.20795439657E+03  0.21283062134E+03  0.00000000000E+00 0.  1.
          5    1    3    3  503    0 -0.30294591390E+01  0.79369364825E+02 -0.35596035298E+03  0.36474448123E+03  0.47000000000E+01 0. -1.
         11    1    6    6    0    0  0.77630674215E+02  0.17625494642E+02 -0.19350698091E+03  0.20924180104E+03  0.00000000000E+00 0. -1.
        -12    1    6    6    0    0 -0.16635118023E+01 -0.42578142298E+01 -0.18944553146E+03  0.18950067452E+03  0.00000000000E+00 0.  1.
         -5    1    5    5    0  501 -0.19974704975E+02 -0.45401739096E+02 -0.62632094730E+02  0.80032343724E+02  0.47000000000E+01 0.  1.
<mgrwt>
<rscale>  2 0.18129250E+03</rscale>
<asrwt>0</asrwt>
<pdfrwt beam="2">  1        2 0.19015541E+00 0.18129250E+03</pdfrwt>
<pdfrwt beam="1">  1       -2 0.43031387E-02 0.18129250E+03</pdfrwt>
<totfact> 0.46445542E+03</totfact>
</mgrwt>
</event>
<event>
12    1  0.5759937E-002  0.3362118E+03  0.7546771E-02  0.1068421E+00
         -2   -1    0    0    0  501 -0.00000000000E+00  0.00000000000E+00  0.11148592453E+03  0.11148592453E+03  0.00000000000E+00 0.  1.
          2   -1    0    0  503    0  0.00000000000E+00 -0.00000000000E+00 -0.13732379830E+04  0.13732379830E+04  0.00000000000E+00 0. -1.
          6    2    1    2  503    0 -0.24519932501E+03  0.15264498063E+03 -0.10105349483E+04  0.10649802276E+04  0.17198489560E+03 0.  0.
         24    2    3    3    0    0 -0.47691200582E+02  0.57411720196E+02 -0.23554596253E+03  0.25955558731E+03  0.79477331404E+02 0.  0.
         -6    2    1    2    0  501  0.24519932501E+03 -0.15264498063E+03 -0.25121711010E+03  0.41974367987E+03  0.17219617096E+03 0.  0.
        -24    2    5    5    0    0  0.90764629132E+02 -0.13023222765E+03 -0.10650646423E+03  0.20686890962E+03  0.79072547844E+02 0.  0.
          2    1    4    4  502    0  0.15425552355E+02  0.15659096314E+02 -0.11604030806E+03  0.11810380205E+03  0.00000000000E+00 0. -1.
         -1    1    4    4    0  502 -0.63116752936E+02  0.41752623882E+02 -0.11950565447E+03  0.14145178526E+03  0.00000000000E+00 0.  1.
          5    1    3    3  503    0 -0.19750812442E+03  0.95233260434E+02 -0.77498898581E+03  0.80542464032E+03  0.47000000000E+01 0. -1.
         11    1    6    6    0    0  0.63487129689E+02 -0.57549182943E+02 -0.95751175776E+02  0.12849440360E+03  0.00000000000E+00 0. -1.
        -12    1    6    6    0    0  0.27277499443E+02 -0.72683044708E+02 -0.10755288456E+02  0.78374506019E+02  0.00000000000E+00 0.  1.
         -5    1    5    5    0  501  0.15443469587E+03 -0.22412752979E+02 -0.14471064586E+03  0.21287477026E+03  0.47000000000E+01 0.  1.
<mgrwt>
<rscale>  2 0.33621177E+03</rscale>
<asrwt>0</asrwt>
<pdfrwt beam="2">  1        2 0.21126737E+00 0.33621177E+03</pdfrwt>
<pdfrwt beam="1">  1       -2 0.17151682E-01 0.33621177E+03</pdfrwt>
<totfact> 0.43574771E+02</totfact>
</mgrwt>
</event>
<event>
12    1  0.5759937E-002  0.2291607E+03  0.7546771E-02  0.1127232E+00
          2   -1    0    0  503    0  0.00000000000E+00  0.00000000000E+00  0.19153101470E+04  0.19153101470E+04  0.00000000000E+00 0.  1.
         -2   -1    0    0    0  501 -0.00000000000E+00 -0.00000000000E+00 -0.28424266695E+02  0.28424266695E+02  0.00000000000E+00 0. -1.
          6    2    1    2  503    0 -0.76125634974E+02  0.12920929178E+03  0.76126996970E+03  0.79506115506E+03  0.17349386196E+03 0.  0.
         24    2    3    3    0    0 -0.39045353354E+02  0.21066564684E+01  0.39621798123E+03  0.40671199325E+03  0.83048053495E+02 0.  0.
         -6    2    1    2    0  501  0.76125634974E+02 -0.12920929178E+03  0.11256159106E+04  0.11486732586E+04  0.17305757282E+03 0.  0.
        -24    2    5    5    0    0  0.11450642834E+03 -0.75849568750E+02  0.88561498056E+03  0.89978998928E+03  0.80269868611E+02 0.  0.
          4    1    4    4  502    0  0.19767569349E+02  0.19190272886E+02  0.17572232436E+03  0.17786893672E+03  0.00000000000E+00 0. -1.
         -3    1    4    4    0  502 -0.58812922703E+02 -0.17083616418E+02  0.22049565686E+03  0.22884305653E+03  0.00000000000E+00 0.  1.
          5    1    3    3  503    0 -0.37080281621E+02  0.12710263531E+03  0.36505198848E+03  0.38834916181E+03  0.47000000000E+01 0. -1.
         11    1    6    6    0    0  0.70611790779E+01 -0.12850450544E+02  0.33256964953E+03  0.33289272464E+03  0.00000000000E+00 0. -1.
        -12    1    6    6    0    0  0.10744524926E+03 -0.62999118206E+02  0.55304533103E+03  0.56689726464E+03  0.00000000000E+00 0.  1.
         -5    1    5    5    0  501 -0.38380793368E+02 -0.53359723030E+02  0.24000093004E+03  0.24888326935E+03  0.47000000000E+01 0.  1.
<mgrwt>
<rscale>  2 0.22916069E+03</rscale>
<asrwt>0</asrwt>
<pdfrwt beam="1">  1        2 0.29466300E+00 0.22916069E+03</pdfrwt>
<pdfrwt beam="2">  1       -2 0.43729656E-02 0.22916069E+03</pdfrwt>
<totfact> 0.19809328E+03</totfact>
</mgrwt>
</event>
<event>
12    1  0.5759937E-002  0.2117619E+03  0.7546771E-02  0.1140178E+00
          2   -1    0    0  503    0  0.00000000000E+00  0.00000000000E+00  0.47099009965E+03  0.47099009965E+03  0.00000000000E+00 0.  1.
         -2   -1    0    0    0  501 -0.00000000000E+00 -0.00000000000E+00 -0.12381153497E+03  0.12381153497E+03  0.00000000000E+00 0. -1.
          6    2    1    2  503    0  0.36923626397E+02 -0.11956899643E+03  0.31650768518E+02  0.21566621249E+03  0.17277165557E+03 0.  0.
         24    2    3    3    0    0  0.75140178033E+02 -0.27679670961E+02  0.23823970386E+02  0.11572872341E+03  0.80083364797E+02 0.  0.
         -6    2    1    2    0  501 -0.36923626397E+02  0.11956899643E+03  0.31552779617E+03  0.37913542213E+03  0.16889576391E+03 0.  0.
        -24    2    5    5    0    0 -0.82555344814E+02  0.89066287674E+02  0.25868937103E+03  0.29998136008E+03  0.91216430288E+02 0.  0.
          2    1    4    4  502    0  0.37109437930E+02 -0.29758459965E+02 -0.25054833446E+02  0.53762635742E+02  0.00000000000E+00 0. -1.
         -1    1    4    4    0  502  0.38030740104E+02  0.20787890039E+01  0.48878803832E+02  0.61966087666E+02  0.00000000000E+00 0.  1.
          5    1    3    3  503    0 -0.38216551636E+02 -0.91889325472E+02  0.78267981317E+01  0.99937489081E+02  0.47000000000E+01 0. -1.
         11    1    6    6    0    0 -0.87979028035E+02  0.34168577306E+02  0.13690306454E+03  0.16628364361E+03  0.00000000000E+00 0. -1.
        -12    1    6    6    0    0  0.54236832207E+01  0.54897710368E+02  0.12178630648E+03  0.13369771647E+03  0.00000000000E+00 0.  1.
         -5    1    5    5    0  501  0.45631718417E+02  0.30502708760E+02  0.56838425137E+02  0.79154062053E+02  0.47000000000E+01 0.  1.
<mgrwt>
<rscale>  2 0.21176195E+03</rscale>
<asrwt>0</asrwt>
<pdfrwt beam="1">  1        2 0.72460015E-01 0.21176195E+03</pdfrwt>
<pdfrwt beam="2">  1       -2 0.19047929E-01 0.21176195E+03</pdfrwt>
<totfact> 0.15156264E+03</totfact>
</mgrwt>
</event>
<event>
12    1  0.5759937E-002  0.2163418E+03  0.7546771E-02  0.1136640E+00
          1   -1    0    0  503    0  0.00000000000E+00  0.00000000000E+00  0.21849698052E+03  0.21849698052E+03  0.00000000000E+00 0.  1.
         -1   -1    0    0    0  501 -0.00000000000E+00 -0.00000000000E+00 -0.27571163531E+03  0.27571163531E+03  0.00000000000E+00 0. -1.
          6    2    1    2  503    0  0.73945047558E+02  0.10702515835E+03 -0.14540417021E+03  0.26141247217E+03  0.17398808383E+03 0.  0.
         24    2    3    3    0    0  0.11470876494E+03  0.95119735610E+02 -0.87654253787E+02  0.18957541633E+03  0.77779852229E+02 0.  0.
         -6    2    1    2    0  501 -0.73945047558E+02 -0.10702515835E+03  0.88189515426E+02  0.23279614365E+03  0.17173933530E+03 0.  0.
        -24    2    5    5    0    0  0.32849773092E+01 -0.84851797507E+02  0.44091111401E+01  0.11661791499E+03  0.79810270143E+02 0.  0.
          4    1    4    4  502    0  0.29919427151E+02  0.26204146383E+02 -0.67679723606E+02  0.78500792328E+02  0.00000000000E+00 0. -1.
         -3    1    4    4    0  502  0.84789337786E+02  0.68915589227E+02 -0.19974530181E+02  0.11107462400E+03  0.00000000000E+00 0.  1.
          5    1    3    3  503    0 -0.40763717380E+02  0.11905422739E+02 -0.57749916427E+02  0.71837055845E+02  0.47000000000E+01 0. -1.
         11    1    6    6    0    0 -0.33636274061E+02 -0.67520434499E+02  0.69361317758E+01  0.75753006090E+02  0.00000000000E+00 0. -1.
        -12    1    6    6    0    0  0.36921251370E+02 -0.17331363008E+02 -0.25270206357E+01  0.40864908904E+02  0.00000000000E+00 0.  1.
         -5    1    5    5    0  501 -0.77230024867E+02 -0.22173360842E+02  0.83780404286E+02  0.11617822866E+03  0.47000000000E+01 0.  1.
<mgrwt>
<rscale>  2 0.21634178E+03</rscale>
<asrwt>0</asrwt>
<pdfrwt beam="1">  1        1 0.33614920E-01 0.21634178E+03</pdfrwt>
<pdfrwt beam="2">  1       -1 0.42417175E-01 0.21634178E+03</pdfrwt>
<totfact> 0.72920024E+02</totfact>
</mgrwt>
</event>
<event>
12    1  0.5759937E-002  0.1805156E+03  0.7546771E-02  0.1167305E+00
          2   -1    0    0  503    0  0.00000000000E+00  0.00000000000E+00  0.94447846200E+03  0.94447846200E+03  0.00000000000E+00 0.  1.
         -2   -1    0    0    0  501 -0.00000000000E+00 -0.00000000000E+00 -0.34811907103E+02  0.34811907103E+02  0.00000000000E+00 0. -1.
          6    2    1    2  503    0  0.32525757320E+01  0.54932091274E+02  0.50233086173E+03  0.53395488527E+03  0.17246278137E+03 0.  0.
         24    2    3    3    0    0 -0.60582832612E+02  0.12945781841E+02  0.33684190717E+03  0.35161867488E+03  0.79594907017E+02 0.  0.
         -6    2    1    2    0  501 -0.32525757320E+01 -0.54932091274E+02  0.40733569317E+03  0.44533548384E+03  0.17138614977E+03 0.  0.
        -24    2    5    5    0    0 -0.14782634949E+02  0.27206034807E+02  0.16425332667E+03  0.18844885334E+03  0.87035167485E+02 0.  0.
          2    1    4    4  502    0 -0.17631485108E+02  0.19153186739E+02  0.22840154576E+02  0.34632159771E+02  0.00000000000E+00 0. -1.
         -1    1    4    4    0  502 -0.42951347504E+02 -0.62074048978E+01  0.31400175260E+03  0.31698651511E+03  0.00000000000E+00 0.  1.
          5    1    3    3  503    0  0.63835408344E+02  0.41986309433E+02  0.16548895455E+03  0.18233621038E+03  0.47000000000E+01 0. -1.
         11    1    6    6    0    0 -0.16267933745E+02 -0.24311060514E+02  0.20456874169E+02  0.35695336284E+02  0.00000000000E+00 0. -1.
        -12    1    6    6    0    0  0.14852987962E+01  0.51517095321E+02  0.14379645250E+03  0.15275351706E+03  0.00000000000E+00 0.  1.
         -5    1    5    5    0  501  0.11530059217E+02 -0.82138126081E+02  0.24308236651E+03  0.25688663050E+03  0.47000000000E+01 0.  1.
<mgrwt>
<rscale>  2 0.18051565E+03</rscale>
<asrwt>0</asrwt>
<pdfrwt beam="1">  1        2 0.14530436E+00 0.18051565E+03</pdfrwt>
<pdfrwt beam="2">  1       -2 0.53556787E-02 0.18051565E+03</pdfrwt>
<totfact> 0.49399573E+03</totfact>
</mgrwt>
</event>
<event>
12    1  0.5759937E-002  0.2184845E+03  0.7546771E-02  0.1135018E+00
          1   -1    0    0  503    0  0.00000000000E+00  0.00000000000E+00  0.13118947182E+03  0.13118947182E+03  0.00000000000E+00 0.  1.
         -1   -1    0    0    0  501 -0.00000000000E+00 -0.00000000000E+00 -0.36743686565E+03  0.36743686565E+03  0.00000000000E+00 0. -1.
          6    2    1    2  503    0 -0.69173808453E+02  0.11499517303E+03 -0.93088478509E+02  0.23666324478E+03  0.17127498650E+03 0.  0.
         24    2    3    3    0    0 -0.71763964505E+02  0.93661774163E+01 -0.58004245580E+02  0.12523081223E+03  0.84145540267E+02 0.  0.
         -6    2    1    2    0  501  0.69173808453E+02 -0.11499517303E+03 -0.14315891532E+03  0.26196309270E+03  0.17355483659E+03 0.  0.
        -24    2    5    5    0    0  0.25758155798E+02  0.13444744806E+02 -0.64110446788E+02  0.10495200466E+03  0.77849406820E+02 0.  0.
          4    1    4    4  502    0 -0.73642723426E+02  0.89030827263E+01 -0.76544011010E+02  0.10659034298E+03  0.00000000000E+00 0. -1.
         -3    1    4    4    0  502  0.18787589207E+01  0.46309468991E+00  0.18539765430E+02  0.18640469253E+02  0.00000000000E+00 0.  1.
          5    1    3    3  503    0  0.25901560521E+01  0.10562899561E+03 -0.35084232929E+02  0.11143243254E+03  0.47000000000E+01 0. -1.
         11    1    6    6    0    0 -0.86209345953E+01 -0.23348134561E+02 -0.44353940530E+02  0.50859885384E+02  0.00000000000E+00 0. -1.
        -12    1    6    6    0    0  0.34379090393E+02  0.36792879368E+02 -0.19756506258E+02  0.54092119278E+02  0.00000000000E+00 0.  1.
         -5    1    5    5    0  501  0.43415652655E+02 -0.12843991783E+03 -0.79048468533E+02  0.15701108803E+03  0.47000000000E+01 0.  1.
<mgrwt>
<rscale>  2 0.21848453E+03</rscale>
<asrwt>0</asrwt>
<pdfrwt beam="1">  1        1 0.20182996E-01 0.21848453E+03</pdfrwt>
<pdfrwt beam="2">  1       -1 0.56528748E-01 0.21848453E+03</pdfrwt>
<totfact> 0.82179145E+02</totfact>
</mgrwt>
</event>
<event>
12    1  0.5759937E-002  0.1795714E+03  0.7546771E-02  0.1168218E+00
         -2   -1    0    0    0  501 -0.00000000000E+00  0.00000000000E+00  0.30430330162E+02  0.30430330162E+02  0.00000000000E+00 0.  1.
          2   -1    0    0  503    0  0.00000000000E+00 -0.00000000000E+00 -0.12334933658E+04  0.12334933658E+04  0.00000000000E+00 0. -1.
          6    2    1    2  503    0 -0.13419399292E+02 -0.43579812719E+02 -0.83753413790E+03  0.85647886032E+03  0.17324354436E+03 0.  0.
         24    2    3    3    0    0 -0.29653404086E+02 -0.67790791796E+02 -0.80586836813E+03  0.81318307074E+03  0.79799523591E+02 0.  0.
         -6    2    1    2    0  501  0.13419399292E+02  0.43579812719E+02 -0.36552889770E+03  0.40744483561E+03  0.17412822476E+03 0.  0.
        -24    2    5    5    0    0  0.70298998609E+02  0.80696052751E+00 -0.24275304857E+03  0.26545608664E+03  0.81211396711E+02 0.  0.
          2    1    4    4  502    0  0.11519975743E+02 -0.47688909522E+02 -0.61244923101E+03  0.61441110219E+03  0.00000000000E+00 0. -1.
         -1    1    4    4    0  502 -0.41173379828E+02 -0.20101882274E+02 -0.19341913712E+03  0.19877196855E+03  0.00000000000E+00 0.  1.
          5    1    3    3  503    0  0.16234004794E+02  0.24210979077E+02 -0.31665769774E+02  0.43295789575E+02  0.47000000000E+01 0. -1.
         11    1    6    6    0    0  0.85049725935E+01 -0.28559338023E+01 -0.16869759441E+03  0.16893599165E+03  0.00000000000E+00 0. -1.
        -12    1    6    6    0    0  0.61794026015E+02  0.36628943298E+01 -0.74055454161E+02  0.96520094991E+02  0.00000000000E+00 0.  1.
         -5    1    5    5    0  501 -0.56879599317E+02  0.42772852191E+02 -0.12277584914E+03  0.14198874897E+03  0.47000000000E+01 0.  1.
<mgrwt>
<rscale>  2 0.17957142E+03</rscale>
<asrwt>0</asrwt>
<pdfrwt beam="2">  1        2 0.18976820E+00 0.17957142E+03</pdfrwt>
<pdfrwt beam="1">  1       -2 0.46815896E-02 0.17957142E+03</pdfrwt>
<totfact> 0.41036932E+03</totfact>
</mgrwt>
</event>
<event>
12    1  0.5759937E-002  0.3960914E+03  0.7546771E-02  0.1045142E+00
         -3   -1    0    0    0  501 -0.00000000000E+00  0.00000000000E+00  0.12859635895E+04  0.12859635895E+04  0.00000000000E+00 0.  1.
          3   -1    0    0  503    0  0.00000000000E+00 -0.00000000000E+00 -0.12568538865E+03  0.12568538865E+03  0.00000000000E+00 0. -1.
          6    2    1    2  503    0 -0.11240067511E+03  0.33789687135E+03  0.70073010928E+03  0.80483890180E+03  0.17301665919E+03 0.  0.
         24    2    3    3    0    0 -0.13017522849E+03  0.34246642281E+03  0.68324611171E+03  0.77905914774E+03  0.76675065273E+02 0.  0.
         -6    2    1    2    0  501  0.11240067511E+03 -0.33789687135E+03  0.45954809156E+03  0.60681007635E+03  0.17385572428E+03 0.  0.
        -24    2    5    5    0    0  0.14647923431E+03 -0.24651793796E+03  0.33158411711E+03  0.44584944010E+03  0.81279989524E+02 0.  0.
          2    1    4    4  502    0 -0.98758959286E+02  0.17205935937E+03  0.41048360504E+03  0.45591067677E+03  0.00000000000E+00 0. -1.
         -1    1    4    4    0  502 -0.31416269206E+02  0.17040706344E+03  0.27276250667E+03  0.32314847097E+03  0.00000000000E+00 0.  1.
          5    1    3    3  503    0  0.17774553378E+02 -0.45695514626E+01  0.17483997570E+02  0.25779754060E+02  0.47000000000E+01 0. -1.
         13    1    6    6    0    0  0.15204051801E+03 -0.21043863497E+03  0.30588110904E+03  0.40120317929E+03  0.00000000000E+00 0. -1.
        -14    1    6    6    0    0 -0.55612836966E+01 -0.36079302987E+02  0.25703008071E+02  0.44646260809E+02  0.00000000000E+00 0.  1.
         -5    1    5    5    0  501 -0.34078559196E+02 -0.91378933389E+02  0.12796397445E+03  0.16096063624E+03  0.47000000000E+01 0.  1.
<mgrwt>
<rscale>  2 0.39609144E+03</rscale>
<asrwt>0</asrwt>
<pdfrwt beam="2">  1        3 0.19336215E-01 0.39609144E+03</pdfrwt>
<pdfrwt beam="1">  1       -3 0.19784054E+00 0.39609144E+03</pdfrwt>
<totfact> 0.97409633E+00</totfact>
</mgrwt>
</event>
<event>
12    1  0.5759937E-002  0.2344261E+03  0.7546771E-02  0.1123563E+00
          2   -1    0    0  503    0  0.00000000000E+00  0.00000000000E+00  0.38584435656E+03  0.38584435656E+03  0.00000000000E+00 0. -1.
         -2   -1    0    0    0  501 -0.00000000000E+00 -0.00000000000E+00 -0.28282598624E+03  0.28282598624E+03  0.00000000000E+00 0.  1.
          6    2    1    2  503    0  0.31985446492E+02 -0.15770374891E+03 -0.18401733746E+03  0.29825627110E+03  0.17088265435E+03 0.  0.
         24    2    3    3    0    0  0.29575442807E+02 -0.16387198524E+03 -0.93831395444E+02  0.20770545998E+03  0.81292637868E+02 0.  0.
         -6    2    1    2    0  501 -0.31985446492E+02  0.15770374891E+03  0.28703570778E+03  0.37041407170E+03  0.17006923814E+03 0.  0.
        -24    2    5    5    0    0 -0.62011356825E+02  0.54654136460E+02  0.21088808500E+03  0.23872759413E+03  0.75396265138E+02 0.  0.
          2    1    4    4  502    0 -0.26574077900E+02 -0.49492262552E+02 -0.16053216735E+02  0.58424065558E+02  0.00000000000E+00 0. -1.
         -1    1    4    4    0  502  0.56149520707E+02 -0.11437972269E+03 -0.77778178710E+02  0.14928139442E+03  0.00000000000E+00 0.  1.
          5    1    3    3  503    0  0.24100036853E+01  0.61682363263E+01 -0.90185942018E+02  0.90550811122E+02  0.47000000000E+01 0. -1.
         13    1    6    6    0    0  0.44654912926E+01  0.21451258603E+02  0.11678902820E+03  0.11882665617E+03  0.00000000000E+00 0. -1.
        -14    1    6    6    0    0 -0.66476848117E+02  0.33202877856E+02  0.94099056802E+02  0.11990093796E+03  0.00000000000E+00 0.  1.
         -5    1    5    5    0  501  0.30025910332E+02  0.10304961245E+03  0.76147622780E+02  0.13168647756E+03  0.47000000000E+01 0.  1.
<mgrwt>
<rscale>  2 0.23442606E+03</rscale>
<asrwt>0</asrwt>
<pdfrwt beam="1">  1        2 0.59360670E-01 0.23442606E+03</pdfrwt>
<pdfrwt beam="2">  1       -2 0.43511690E-01 0.23442606E+03</pdfrwt>
<totfact> 0.42306745E+02</totfact>
</mgrwt>
</event>
<event>
12    1  0.5759937E-002  0.2314308E+03  0.7546771E-02  0.1125637E+00
         -1   -1    0    0    0  501 -0.00000000000E+00  0.00000000000E+00  0.32833151131E+02  0.32833151131E+02  0.00000000000E+00 0.  1.
          1   -1    0    0  503    0  0.00000000000E+00 -0.00000000000E+00 -0.21614942526E+04  0.21614942526E+04  0.00000000000E+00 0. -1.
          6    2    1    2  503    0  0.34109789231E+02  0.15132621629E+03 -0.15986853472E+04  0.16149858470E+04  0.16828946834E+03 0.  0.
         24    2    3    3    0    0  0.48276163863E+02  0.71458870339E+02 -0.52214967342E+03  0.53538840995E+03  0.81015491820E+02 0.  0.
         -6    2    1    2    0  501 -0.34109789231E+02 -0.15132621629E+03 -0.52997575423E+03  0.57934155671E+03  0.17521197960E+03 0.  0.
        -24    2    5    5    0    0  0.17272606348E+02 -0.59318979459E+02 -0.13459450580E+03  0.17013023744E+03  0.83734893835E+02 0.  0.
          2    1    4    4  502    0 -0.13762574894E+02 -0.90271453866E+01 -0.85478582762E+02  0.87048756066E+02  0.00000000000E+00 0. -1.
         -1    1    4    4    0  502  0.62038738758E+02  0.80486015726E+02 -0.43667109065E+03  0.44833965389E+03  0.00000000000E+00 0.  1.
          5    1    3    3  503    0 -0.14166374632E+02  0.79867345952E+02 -0.10765356738E+04  0.10795974370E+04  0.47000000000E+01 0. -1.
         11    1    6    6    0    0 -0.13077741988E+02 -0.35825681223E+02 -0.12483127436E+03  0.13052721490E+03  0.00000000000E+00 0. -1.
        -12    1    6    6    0    0  0.30350348336E+02 -0.23493298236E+02 -0.97632314366E+01  0.39603022539E+02  0.00000000000E+00 0.  1.
         -5    1    5    5    0  501 -0.51382395579E+02 -0.92007236832E+02 -0.39538124843E+03  0.40921131927E+03  0.47000000000E+01 0.  1.
<mgrwt>
<rscale>  2 0.23143076E+03</rscale>
<asrwt>0</asrwt>
<pdfrwt beam="2">  1        1 0.33253756E+00 0.23143076E+03</pdfrwt>
<pdfrwt beam="1">  1       -1 0.50512543E-02 0.23143076E+03</pdfrwt>
<totfact> 0.46206742E+02</totfact>
</mgrwt>
</event>
<event>
12    1  0.5759937E-002  0.2094629E+03  0.7546771E-02  0.1141992E+00
         -2   -1    0    0    0  501 -0.00000000000E+00  0.00000000000E+00  0.33227477973E+02  0.33227477973E+02  0.00000000000E+00 0. -1.
          2   -1    0    0  503    0  0.00000000000E+00 -0.00000000000E+00 -0.13214264457E+04  0.13214264457E+04  0.00000000000E+00 0.  1.
          6    2    1    2  503    0 -0.78643496640E+02  0.85386497993E+02 -0.62168300671E+03  0.65556176297E+03  0.17261463042E+03 0.  0.
         24    2    3    3    0    0 -0.23767554667E+02  0.15627515250E+02 -0.13894750430E+03  0.16471215263E+03  0.83753020161E+02 0.  0.
         -6    2    1    2    0  501  0.78643496640E+02 -0.85386497993E+02 -0.66651596106E+03  0.69909216075E+03  0.17609846469E+03 0.  0.
        -24    2    5    5    0    0  0.43888079324E+02 -0.50864212582E+02 -0.16420856982E+03  0.19437983425E+03  0.79408651496E+02 0.  0.
          2    1    4    4  502    0 -0.96036573137E+01 -0.43781275556E+01  0.95327339793E+01  0.14222209808E+02  0.00000000000E+00 0. -1.
         -1    1    4    4    0  502 -0.14163897353E+02  0.20005642806E+02 -0.14848023828E+03  0.15048994282E+03  0.00000000000E+00 0.  1.
          5    1    3    3  503    0 -0.54875941973E+02  0.69758982742E+02 -0.48273550241E+03  0.49084961034E+03  0.47000000000E+01 0. -1.
         13    1    6    6    0    0  0.66068243980E+02 -0.26855141736E+02 -0.11129804336E+03  0.13218723825E+03  0.00000000000E+00 0. -1.
        -14    1    6    6    0    0 -0.22180164655E+02 -0.24009070846E+02 -0.52910526470E+02  0.62192596009E+02  0.00000000000E+00 0.  1.
         -5    1    5    5    0  501  0.34755417316E+02 -0.34522285411E+02 -0.50230739124E+03  0.50471232649E+03  0.47000000000E+01 0.  1.
<mgrwt>
<rscale>  2 0.20946286E+03</rscale>
<asrwt>0</asrwt>
<pdfrwt beam="2">  1        2 0.20329639E+00 0.20946286E+03</pdfrwt>
<pdfrwt beam="1">  1       -2 0.51119193E-02 0.20946286E+03</pdfrwt>
<totfact> 0.32215543E+03</totfact>
</mgrwt>
</event>
<event>
12    1  0.5759937E-002  0.1866493E+03  0.7546771E-02  0.1161519E+00
          1   -1    0    0  503    0  0.00000000000E+00  0.00000000000E+00  0.81903588977E+02  0.81903588977E+02  0.00000000000E+00 0.  1.
         -1   -1    0    0    0  501 -0.00000000000E+00 -0.00000000000E+00 -0.47527014308E+03  0.47527014308E+03  0.00000000000E+00 0. -1.
          6    2    1    2  503    0 -0.61119142392E+02  0.32886589734E+02 -0.28692093084E+03  0.34226162914E+03  0.17321179197E+03 0.  0.
         24    2    3    3    0    0 -0.80719267920E+02  0.19724063793E+02 -0.99224113876E+02  0.15302737720E+03  0.81653625103E+02 0.  0.
         -6    2    1    2    0  501  0.61119142392E+02 -0.32886589734E+02 -0.10644562327E+03  0.21491210292E+03  0.17331896583E+03 0.  0.
        -24    2    5    5    0    0  0.16991289044E+02  0.11252177207E+02 -0.12036901177E+03  0.15079152170E+03  0.88510274138E+02 0.  0.
          4    1    4    4  502    0  0.19046655214E+01  0.31871154133E+02 -0.37071768817E+02  0.48925599227E+02  0.00000000000E+00 0. -1.
         -3    1    4    4    0  502 -0.82623933441E+02 -0.12147090339E+02 -0.62152345059E+02  0.10410177797E+03  0.00000000000E+00 0.  1.
          5    1    3    3  503    0  0.19600125528E+02  0.13162525940E+02 -0.18769681696E+03  0.18923425194E+03  0.47000000000E+01 0. -1.
         11    1    6    6    0    0  0.51921222327E+02  0.16319189534E+02 -0.84169087847E+02  0.10023255272E+03  0.00000000000E+00 0. -1.
        -12    1    6    6    0    0 -0.34929933283E+02 -0.50670123274E+01 -0.36199923921E+02  0.50558968986E+02  0.00000000000E+00 0.  1.
         -5    1    5    5    0  501  0.44127853348E+02 -0.44138766941E+02  0.13923388500E+02  0.64120581216E+02  0.47000000000E+01 0.  1.
<mgrwt>
<rscale>  2 0.18664932E+03</rscale>
<asrwt>0</asrwt>
<pdfrwt beam="1">  1        1 0.12600552E-01 0.18664932E+03</pdfrwt>
<pdfrwt beam="2">  1       -1 0.73118484E-01 0.18664932E+03</pdfrwt>
<totfact> 0.91743782E+02</totfact>
</mgrwt>
</event>
<event>
12    1  0.5759937E-002  0.3300090E+03  0.7546771E-02  0.1071133E+00
         -1   -1    0    0    0  501 -0.00000000000E+00  0.00000000000E+00  0.11160457656E+03  0.11160457656E+03  0.00000000000E+00 0. -1.
          1   -1    0    0  503    0  0.00000000000E+00 -0.00000000000E+00 -0.11965143644E+04  0.11965143644E+04  0.00000000000E+00 0.  1.
          6    2    1    2  503    0 -0.12775897607E+03 -0.25009841114E+03 -0.82326183382E+03  0.88691567615E+03  0.17316985408E+03 0.  0.
         24    2    3    3    0    0 -0.58378348216E+02 -0.18254325787E+03 -0.69863618888E+03  0.72902010424E+03  0.81533523362E+02 0.  0.
         -6    2    1    2    0  501  0.12775897607E+03  0.25009841114E+03 -0.26164795404E+03  0.42120326484E+03  0.17343865553E+03 0.  0.
        -24    2    5    5    0    0  0.60295379842E+02  0.62042353890E+02 -0.43185689588E+02  0.12512174148E+03  0.79408185336E+02 0.  0.
          2    1    4    4  502    0 -0.30116071885E+02 -0.13826755146E+03 -0.36860166694E+03  0.39483171408E+03  0.00000000000E+00 0. -1.
         -1    1    4    4    0  502 -0.28262276331E+02 -0.44275706406E+02 -0.33003452195E+03  0.33418839016E+03  0.00000000000E+00 0.  1.
          5    1    3    3  503    0 -0.69380627854E+02 -0.67555153272E+02 -0.12462564493E+03  0.15789557191E+03  0.47000000000E+01 0. -1.
         11    1    6    6    0    0  0.79574233857E+02  0.49322947044E+02 -0.39994764283E+02  0.10180566276E+03  0.00000000000E+00 0. -1.
        -12    1    6    6    0    0 -0.19278854015E+02  0.12719406846E+02 -0.31909253047E+01  0.23316078721E+02  0.00000000000E+00 0.  1.
         -5    1    5    5    0  501  0.67463596228E+02  0.18805605725E+03 -0.21846226446E+03  0.29608152336E+03  0.47000000000E+01 0.  1.
<mgrwt>
<rscale>  2 0.33000901E+03</rscale>
<asrwt>0</asrwt>
<pdfrwt beam="2">  1        1 0.18407913E+00 0.33000901E+03</pdfrwt>
<pdfrwt beam="1">  1       -1 0.17169935E-01 0.33000901E+03</pdfrwt>
<totfact> 0.29724195E+02</totfact>
</mgrwt>
</event>
<event>
12    1  0.5759937E-002  0.2593393E+03  0.7546771E-02  0.1107541E+00
          2   -1    0    0  503    0  0.00000000000E+00  0.00000000000E+00  0.83188954245E+03  0.83188954245E+03  0.00000000000E+00 0. -1.
         -2   -1    0    0    0  501 -0.00000000000E+00 -0.00000000000E+00 -0.13532620754E+03  0.13532620754E+03  0.00000000000E+00 0.  1.
          6    2    1    2  503    0  0.12419302821E+03 -0.14821346283E+03  0.41525961615E+02  0.26274700575E+03  0.17297527199E+03 0.  0.
         24    2    3    3    0    0  0.43395341687E+02 -0.13666509023E+03  0.66941368659E+02  0.17713354902E+03  0.79590481740E+02 0.  0.
         -6    2    1    2    0  501 -0.12419302821E+03  0.14821346283E+03  0.65503737329E+03  0.70446874424E+03  0.17265894818E+03 0.  0.
        -24    2    5    5    0    0 -0.80310187213E+02  0.23244885362E+02  0.40750398213E+03  0.42368819145E+03  0.80387419744E+02 0.  0.
          4    1    4    4  502    0  0.93450055555E+01 -0.97119208568E+02  0.76621899137E+02  0.12405799140E+03  0.00000000000E+00 0. -1.
         -3    1    4    4    0  502  0.34050336132E+02 -0.39545881663E+02 -0.96805304777E+01  0.53075557628E+02  0.00000000000E+00 0.  1.
          5    1    3    3  503    0  0.80797686523E+02 -0.11548372601E+02 -0.25415407044E+02  0.85613456725E+02  0.47000000000E+01 0. -1.
         13    1    6    6    0    0 -0.28437981011E+02  0.48508666680E+02  0.16150965683E+03  0.17101806558E+03  0.00000000000E+00 0. -1.
        -14    1    6    6    0    0 -0.51872206202E+02 -0.25263781318E+02  0.24599432530E+03  0.25267012586E+03  0.00000000000E+00 0.  1.
         -5    1    5    5    0  501 -0.43882840997E+02  0.12496857747E+03  0.24753339116E+03  0.28078055279E+03  0.47000000000E+01 0.  1.
<mgrwt>
<rscale>  2 0.25933934E+03</rscale>
<asrwt>0</asrwt>
<pdfrwt beam="1">  1        2 0.12798300E+00 0.25933934E+03</pdfrwt>
<pdfrwt beam="2">  1       -2 0.20819417E-01 0.25933934E+03</pdfrwt>
<totfact> 0.66429624E+02</totfact>
</mgrwt>
</event>
<event>
12    1  0.5759937E-002  0.1986878E+03  0.7546771E-02  0.1150851E+00
         -1   -1    0    0    0  501 -0.00000000000E+00  0.00000000000E+00  0.10003028381E+03  0.10003028381E+03  0.00000000000E+00 0. -1.
          1   -1    0    0  503    0  0.00000000000E+00 -0.00000000000E+00 -0.46005597665E+03  0.46005597665E+03  0.00000000000E+00 0.  1.
          6    2    1    2  503    0  0.94702006307E+02  0.27173482828E+02 -0.73947769817E+02  0.21142929423E+03  0.17183482077E+03 0.  0.
         24    2    3    3    0    0  0.19448416632E+02  0.65838338999E+02 -0.63691166245E+02  0.12607496348E+03  0.84412107935E+02 0.  0.
         -6    2    1    2    0  501 -0.94702006307E+02 -0.27173482828E+02 -0.28607792302E+03  0.34865696623E+03  0.17324616561E+03 0.  0.
        -24    2    5    5    0    0 -0.39999740325E+02  0.93528687381E+01 -0.49911556722E+02  0.10345673207E+03  0.80775469899E+02 0.  0.
          2    1    4    4  502    0 -0.32562564329E+02  0.29404826502E+02 -0.36186411938E+02  0.56871968722E+02  0.00000000000E+00 0. -1.
         -1    1    4    4    0  502  0.52010980961E+02  0.36433512497E+02 -0.27504754306E+02  0.69202994753E+02  0.00000000000E+00 0.  1.
          5    1    3    3  503    0  0.75253589675E+02 -0.38664856171E+02 -0.10256603572E+02  0.85354330754E+02  0.47000000000E+01 0. -1.
         13    1    6    6    0    0 -0.54504737139E+02 -0.13452486332E+01 -0.46270669563E+01  0.54717326444E+02  0.00000000000E+00 0. -1.
        -14    1    6    6    0    0  0.14504996815E+02  0.10698117371E+02 -0.45284489765E+02  0.48739405630E+02  0.00000000000E+00 0.  1.
         -5    1    5    5    0  501 -0.54702265982E+02 -0.36526351566E+02 -0.23616636630E+03  0.24520023416E+03  0.47000000000E+01 0.  1.
<mgrwt>
<rscale>  2 0.19868779E+03</rscale>
<asrwt>0</asrwt>
<pdfrwt beam="2">  1        1 0.70777843E-01 0.19868779E+03</pdfrwt>
<pdfrwt beam="1">  1       -1 0.15389274E-01 0.19868779E+03</pdfrwt>
<totfact> 0.15479745E+03</totfact>
</mgrwt>
</event>
<event>
12    1  0.5759937E-002  0.2022080E+03  0.7546771E-02  0.1147889E+00
         -1   -1    0    0    0  501 -0.00000000000E+00  0.00000000000E+00  0.21720185237E+02  0.21720185237E+02  0.00000000000E+00 0. -1.
          1   -1    0    0  503    0  0.00000000000E+00 -0.00000000000E+00 -0.26976451370E+04  0.26976451370E+04  0.00000000000E+00 0.  1.
          6    2    1    2  503    0 -0.43595383241E+02  0.97010919481E+02 -0.20814673819E+04  0.20911850195E+04  0.17098727406E+03 0.  0.
         24    2    3    3    0    0  0.14985516802E+02  0.83609107865E+02 -0.84726444883E+03  0.85551099273E+03  0.82625442835E+02 0.  0.
         -6    2    1    2    0  501  0.43595383241E+02 -0.97010919481E+02 -0.59445756980E+03  0.62818030268E+03  0.17297113761E+03 0.  0.
        -24    2    5    5    0    0  0.74309500086E+01 -0.10422557958E+03 -0.25937117536E+03  0.29103804890E+03  0.80694168561E+02 0.  0.
          2    1    4    4  502    0  0.43289593349E+02  0.44332470201E+02 -0.31411877421E+03  0.32017176815E+03  0.00000000000E+00 0. -1.
         -1    1    4    4    0  502 -0.28304076547E+02  0.39276637664E+02 -0.53314567462E+03  0.53533922458E+03  0.00000000000E+00 0.  1.
          5    1    3    3  503    0 -0.58580900044E+02  0.13401811616E+02 -0.12342029331E+04  0.12356740268E+04  0.47000000000E+01 0. -1.
         11    1    6    6    0    0  0.37720362978E+02 -0.57686071914E+02 -0.93774313822E+02  0.11637925334E+03  0.00000000000E+00 0. -1.
        -12    1    6    6    0    0 -0.30289412969E+02 -0.46539507664E+02 -0.16559686154E+03  0.17465879555E+03  0.00000000000E+00 0.  1.
         -5    1    5    5    0  501  0.36164433233E+02  0.72146600972E+01 -0.33508639444E+03  0.33714225379E+03  0.47000000000E+01 0.  1.
<mgrwt>
<rscale>  2 0.20220802E+03</rscale>
<asrwt>0</asrwt>
<pdfrwt beam="2">  1        1 0.41502247E+00 0.20220802E+03</pdfrwt>
<pdfrwt beam="1">  1       -1 0.33415658E-02 0.20220802E+03</pdfrwt>
<totfact> 0.38121434E+02</totfact>
</mgrwt>
</event>
<event>
12    1  0.5759937E-002  0.2532766E+03  0.7546771E-02  0.1111251E+00
         -4   -1    0    0    0  501 -0.00000000000E+00  0.00000000000E+00  0.82327423314E+03  0.82327423314E+03  0.00000000000E+00 0.  1.
          4   -1    0    0  503    0  0.00000000000E+00 -0.00000000000E+00 -0.83914142071E+02  0.83914142071E+02  0.00000000000E+00 0. -1.
          6    2    1    2  503    0 -0.11549896871E+03  0.14321301290E+03  0.24864778856E+03  0.35503689871E+03  0.17428567886E+03 0.  0.
         24    2    3    3    0    0 -0.12537784191E+03  0.16185716789E+03  0.23708920072E+03  0.33052388983E+03  0.10543911329E+03 0.  0.
         -6    2    1    2    0  501  0.11549896871E+03 -0.14321301290E+03  0.49071230252E+03  0.55215147650E+03  0.17384680132E+03 0.  0.
        -24    2    5    5    0    0  0.11918942292E+02 -0.11630125511E+03  0.23152658567E+03  0.27170114151E+03  0.80925319290E+02 0.  0.
          2    1    4    4  502    0 -0.11953342945E+03  0.10350303357E+03  0.11640481171E+03  0.19634459225E+03  0.00000000000E+00 0. -1.
         -1    1    4    4    0  502 -0.58444124611E+01  0.58354134323E+02  0.12068438902E+03  0.13417929759E+03  0.00000000000E+00 0.  1.
          5    1    3    3  503    0  0.98788732071E+01 -0.18644154997E+02  0.11558587834E+02  0.24513008875E+02  0.47000000000E+01 0. -1.
         11    1    6    6    0    0 -0.20957932659E+02 -0.26256148959E+01  0.18801533615E+02  0.28277667181E+02  0.00000000000E+00 0. -1.
        -12    1    6    6    0    0  0.32876874951E+02 -0.11367564021E+03  0.21272505205E+03  0.24342347433E+03  0.00000000000E+00 0.  1.
         -5    1    5    5    0  501  0.10358002642E+03 -0.26911757789E+02  0.25918571685E+03  0.28045033499E+03  0.47000000000E+01 0.  1.
<mgrwt>
<rscale>  2 0.25327660E+03</rscale>
<asrwt>0</asrwt>
<pdfrwt beam="2">  1        4 0.12909869E-01 0.25327660E+03</pdfrwt>
<pdfrwt beam="1">  1       -4 0.12665757E+00 0.25327660E+03</pdfrwt>
<totfact> 0.43345217E+01</totfact>
</mgrwt>
</event>
<event>
12    1  0.5759937E-002  0.2010992E+03  0.7546771E-02  0.1148815E+00
          2   -1    0    0  503    0  0.00000000000E+00  0.00000000000E+00  0.11354993858E+04  0.11354993858E+04  0.00000000000E+00 0.  1.
         -2   -1    0    0    0  501 -0.00000000000E+00 -0.00000000000E+00 -0.39183664199E+02  0.39183664199E+02  0.00000000000E+00 0. -1.
          6    2    1    2  503    0  0.96559729359E+02  0.36360042145E+02  0.72634374820E+03  0.75376971457E+03  0.17305406106E+03 0.  0.
         24    2    3    3    0    0  0.13353781229E+03  0.30887451758E+02  0.50717199575E+03  0.53138339544E+03  0.79740188661E+02 0.  0.
         -6    2    1    2    0  501 -0.96559729359E+02 -0.36360042145E+02  0.36997197344E+03  0.42091333547E+03  0.17217125441E+03 0.  0.
        -24    2    5    5    0    0 -0.30646912617E+02  0.36011608294E+02  0.24543080069E+03  0.26243699998E+03  0.80005198896E+02 0.  0.
          4    1    4    4  502    0  0.10695685346E+03 -0.41031010397E+01  0.27512341238E+03  0.29521093472E+03  0.00000000000E+00 0. -1.
         -3    1    4    4    0  502  0.26580958837E+02  0.34990552797E+02  0.23204858337E+03  0.23617246072E+03  0.00000000000E+00 0.  1.
          5    1    3    3  503    0 -0.36978082934E+02  0.54725903871E+01  0.21917175245E+03  0.22238631913E+03  0.47000000000E+01 0. -1.
         11    1    6    6    0    0 -0.11710181695E+02 -0.16101366450E+02  0.13706279466E+02  0.24171149201E+02  0.00000000000E+00 0. -1.
        -12    1    6    6    0    0 -0.18936730923E+02  0.52112974744E+02  0.23172452122E+03  0.23826585078E+03  0.00000000000E+00 0.  1.
         -5    1    5    5    0  501 -0.65912816741E+02 -0.72371650438E+02  0.12454117275E+03  0.15847633548E+03  0.47000000000E+01 0.  1.
<mgrwt>
<rscale>  2 0.20109916E+03</rscale>
<asrwt>0</asrwt>
<pdfrwt beam="1">  1        2 0.17469219E+00 0.20109916E+03</pdfrwt>
<pdfrwt beam="2">  1       -2 0.60282569E-02 0.20109916E+03</pdfrwt>
<totfact> 0.31818128E+03</totfact>
</mgrwt>
</event>
<event>
12    1  0.5759937E-002  0.1974613E+03  0.7546771E-02  0.1151899E+00
         -1   -1    0    0    0  501 -0.00000000000E+00  0.00000000000E+00  0.49125159075E+03  0.49125159075E+03  0.00000000000E+00 0.  1.
          1   -1    0    0  503    0  0.00000000000E+00 -0.00000000000E+00 -0.80504093299E+02  0.80504093299E+02  0.00000000000E+00 0. -1.
          6    2    1    2  503    0 -0.81488866668E+01  0.94738996929E+02  0.23919109657E+03  0.31010234357E+03  0.17294276774E+03 0.  0.
         24    2    3    3    0    0  0.17029358512E+02  0.79426355054E+02  0.25267285594E+03  0.27735682682E+03  0.80527587358E+02 0.  0.
         -6    2    1    2    0  501  0.81488866668E+01 -0.94738996929E+02  0.17155640088E+03  0.26165334049E+03  0.17317329474E+03 0.  0.
        -24    2    5    5    0    0  0.26916505693E+02 -0.12742989028E+03  0.15821179651E+03  0.22139062202E+03  0.83785200065E+02 0.  0.
          4    1    4    4  502    0  0.40578784393E+02  0.80338613699E+02  0.18579035738E+03  0.20644366663E+03  0.00000000000E+00 0. -1.
         -3    1    4    4    0  502 -0.23549425882E+02 -0.91225864461E+00  0.66882498557E+02  0.70913160192E+02  0.00000000000E+00 0.  1.
          5    1    3    3  503    0 -0.25178245179E+02  0.15312641875E+02 -0.13481759367E+02  0.32745516748E+02  0.47000000000E+01 0. -1.
         13    1    6    6    0    0  0.39606406233E+02 -0.86887219076E+02  0.55990757405E+02  0.11069336551E+03  0.00000000000E+00 0. -1.
        -14    1    6    6    0    0 -0.12689900540E+02 -0.40542671206E+02  0.10222103910E+03  0.11069725651E+03  0.00000000000E+00 0.  1.
         -5    1    5    5    0  501 -0.18767619026E+02  0.32690893352E+02  0.13344604374E+02  0.40262718462E+02  0.47000000000E+01 0.  1.
<mgrwt>
<rscale>  2 0.19746128E+03</rscale>
<asrwt>0</asrwt>
<pdfrwt beam="2">  1        1 0.12385245E-01 0.19746128E+03</pdfrwt>
<pdfrwt beam="1">  1       -1 0.75577166E-01 0.19746128E+03</pdfrwt>
<totfact> 0.87869316E+02</totfact>
</mgrwt>
</event>
<event>
12    1  0.5759937E-002  0.1739703E+03  0.7546771E-02  0.1173770E+00
         -3   -1    0    0    0  501 -0.00000000000E+00  0.00000000000E+00  0.15809991930E+03  0.15809991930E+03  0.00000000000E+00 0. -1.
          3   -1    0    0  503    0  0.00000000000E+00 -0.00000000000E+00 -0.49035269336E+03  0.49035269336E+03  0.00000000000E+00 0.  1.
          6    2    1    2  503    0 -0.20065552412E+02 -0.56589105276E+01  0.86675753356E+02  0.19518546513E+03  0.17363763968E+03 0.  0.
         24    2    3    3    0    0 -0.78542810714E+02 -0.46029485252E+01  0.49345382538E+02  0.12564158416E+03  0.84620805022E+02 0.  0.
         -6    2    1    2    0  501  0.20065552412E+02  0.56589105276E+01 -0.41892852742E+03  0.45326714753E+03  0.17180030934E+03 0.  0.
        -24    2    5    5    0    0  0.73387764597E+01 -0.19958005458E+02 -0.41762808260E+03  0.42425028403E+03  0.71574496172E+02 0.  0.
          2    1    4    4  502    0 -0.68572930458E+02  0.32862373122E+02  0.39281488914E+02  0.85587485827E+02  0.00000000000E+00 0. -1.
         -1    1    4    4    0  502 -0.99698802557E+01 -0.37465321648E+02  0.10063893625E+02  0.40054098334E+02  0.00000000000E+00 0.  1.
          5    1    3    3  503    0  0.58477258302E+02 -0.10559620024E+01  0.37330370818E+02  0.69543880965E+02  0.47000000000E+01 0. -1.
         11    1    6    6    0    0  0.24245273435E+02  0.19206606859E+01 -0.50180015545E+02  0.55763394637E+02  0.00000000000E+00 0. -1.
        -12    1    6    6    0    0 -0.16906496975E+02 -0.21878666144E+02 -0.36744806706E+03  0.36848688940E+03  0.00000000000E+00 0.  1.
         -5    1    5    5    0  501  0.12726775952E+02  0.25616915986E+02 -0.13004448150E+01  0.29016863501E+02  0.47000000000E+01 0.  1.
<mgrwt>
<rscale>  2 0.17397033E+03</rscale>
<asrwt>0</asrwt>
<pdfrwt beam="2">  1        3 0.75438875E-01 0.17397033E+03</pdfrwt>
<pdfrwt beam="1">  1       -3 0.24323065E-01 0.17397033E+03</pdfrwt>
<totfact> 0.64663805E+01</totfact>
</mgrwt>
</event>
<event>
12    1  0.5759937E-002  0.1737883E+03  0.7546771E-02  0.1173954E+00
         -2   -1    0    0    0  501 -0.00000000000E+00  0.00000000000E+00  0.21736635254E+02  0.21736635254E+02  0.00000000000E+00 0.  1.
          2   -1    0    0  503    0  0.00000000000E+00 -0.00000000000E+00 -0.13937372050E+04  0.13937372050E+04  0.00000000000E+00 0. -1.
          6    2    1    2  503    0  0.75918359792E+01  0.96650658064E+01 -0.72205693943E+03  0.74249988193E+03  0.17259432615E+03 0.  0.
         24    2    3    3    0    0 -0.76564884699E+00  0.45738905711E+02 -0.20504463036E+03  0.22414190986E+03  0.78125934258E+02 0.  0.
         -6    2    1    2    0  501 -0.75918359792E+01 -0.96650658064E+01 -0.64994363030E+03  0.67297395830E+03  0.17411541149E+03 0.  0.
        -24    2    5    5    0    0 -0.44805542320E+02 -0.17726986464E+01 -0.61240675174E+03  0.61932457200E+03  0.80685914636E+02 0.  0.
          4    1    4    4  502    0 -0.64070222445E+01  0.32898318710E+02 -0.20725153675E+03  0.20994415637E+03  0.00000000000E+00 0. -1.
         -3    1    4    4    0  502  0.56413733975E+01  0.12840587000E+02  0.22069063950E+01  0.14197753490E+02  0.00000000000E+00 0.  1.
          5    1    3    3  503    0  0.83574848262E+01 -0.36073839904E+02 -0.51701230908E+03  0.51835797207E+03  0.47000000000E+01 0. -1.
         13    1    6    6    0    0 -0.32616753924E+02 -0.24032675247E+02 -0.55596975232E+03  0.55744397710E+03  0.00000000000E+00 0. -1.
        -14    1    6    6    0    0 -0.12188788396E+02  0.22259976600E+02 -0.56436999426E+02  0.61880594899E+02  0.00000000000E+00 0.  1.
         -5    1    5    5    0  501  0.37213706340E+02 -0.78923671600E+01 -0.37536878558E+02  0.53649386304E+02  0.47000000000E+01 0.  1.
<mgrwt>
<rscale>  2 0.17378834E+03</rscale>
<asrwt>0</asrwt>
<pdfrwt beam="2">  1        2 0.21442114E+00 0.17378834E+03</pdfrwt>
<pdfrwt beam="1">  1       -2 0.33440972E-02 0.17378834E+03</pdfrwt>
<totfact> 0.55478439E+03</totfact>
</mgrwt>
</event>
<event>
12    1  0.5759937E-002  0.2050278E+03  0.7546771E-02  0.1145565E+00
         -2   -1    0    0    0  501 -0.00000000000E+00  0.00000000000E+00  0.22797574311E+03  0.22797574311E+03  0.00000000000E+00 0. -1.
          2   -1    0    0  503    0  0.00000000000E+00 -0.00000000000E+00 -0.18615891657E+03  0.18615891657E+03  0.00000000000E+00 0.  1.
          6    2    1    2  503    0  0.61032751104E+02  0.92541438225E+02  0.41089543015E+02  0.20906051325E+03  0.17242109255E+03 0.  0.
         24    2    3    3    0    0 -0.24038687667E+02  0.49614983400E+02 -0.15675299762E+02  0.98046245721E+02  0.79547760464E+02 0.  0.
         -6    2    1    2    0  501 -0.61032751104E+02 -0.92541438225E+02  0.72728352870E+00  0.20507414644E+03  0.17252814872E+03 0.  0.
        -24    2    5    5    0    0 -0.25328401925E+02 -0.78918758739E+02  0.64915489627E+02  0.13022367050E+03  0.76645189928E+02 0.  0.
          2    1    4    4  502    0 -0.49455866637E+02  0.20134190526E+02  0.55937805344E+01  0.53689465947E+02  0.00000000000E+00 0. -1.
         -1    1    4    4    0  502  0.25417178970E+02  0.29480792874E+02 -0.21269080296E+02  0.44356779774E+02  0.00000000000E+00 0.  1.
          5    1    3    3  503    0  0.85071438771E+02  0.42926454825E+02  0.56764842777E+02  0.11101426752E+03  0.47000000000E+01 0. -1.
         13    1    6    6    0    0  0.21828302446E+02 -0.30027849749E+02  0.47152546451E+02  0.60012575224E+02  0.00000000000E+00 0. -1.
        -14    1    6    6    0    0 -0.47156704371E+02 -0.48890908990E+02  0.17762943175E+02  0.70211095272E+02  0.00000000000E+00 0.  1.
         -5    1    5    5    0  501 -0.35704349179E+02 -0.13622679486E+02 -0.64188206098E+02  0.74850475942E+02  0.47000000000E+01 0.  1.
<mgrwt>
<rscale>  2 0.20502782E+03</rscale>
<asrwt>0</asrwt>
<pdfrwt beam="2">  1        2 0.28639833E-01 0.20502782E+03</pdfrwt>
<pdfrwt beam="1">  1       -2 0.35073191E-01 0.20502782E+03</pdfrwt>
<totfact> 0.14020033E+03</totfact>
</mgrwt>
</event>
<event>
12    1  0.5759937E-002  0.2051474E+03  0.7546771E-02  0.1145467E+00
          2   -1    0    0  503    0  0.00000000000E+00  0.00000000000E+00  0.55143828246E+02  0.55143828246E+02  0.00000000000E+00 0. -1.
         -2   -1    0    0    0  501 -0.00000000000E+00 -0.00000000000E+00 -0.93264611186E+03  0.93264611186E+03  0.00000000000E+00 0.  1.
          6    2    1    2  503    0 -0.20454201102E+02  0.10726137793E+03 -0.65011836529E+03  0.68186403301E+03  0.17424492272E+03 0.  0.
         24    2    3    3    0    0 -0.27784882967E+01  0.18447554499E+02 -0.49834597395E+03  0.50506676259E+03  0.79973074596E+02 0.  0.
         -6    2    1    2    0  501  0.20454201102E+02 -0.10726137793E+03 -0.22738391832E+03  0.30592590709E+03  0.17310065505E+03 0.  0.
        -24    2    5    5    0    0  0.14176869262E+02 -0.42177510667E+01 -0.40148791220E+02  0.92065025318E+02  0.81518527981E+02 0.  0.
          2    1    4    4  502    0 -0.29269550099E+02 -0.13193808429E+02 -0.11163097218E+03  0.11615617545E+03  0.00000000000E+00 0. -1.
         -1    1    4    4    0  502  0.26491061802E+02  0.31641362927E+02 -0.38671500177E+03  0.38891058715E+03  0.00000000000E+00 0.  1.
          5    1    3    3  503    0 -0.17675712805E+02  0.88813823427E+02 -0.15177239134E+03  0.17679727042E+03  0.47000000000E+01 0. -1.
         11    1    6    6    0    0  0.22390984085E+02 -0.39810875648E+02 -0.27972334671E+02  0.53560372432E+02  0.00000000000E+00 0. -1.
        -12    1    6    6    0    0 -0.82141148224E+01  0.35593124581E+02 -0.12176456549E+02  0.38504652886E+02  0.00000000000E+00 0.  1.
         -5    1    5    5    0  501  0.62773318400E+01 -0.10304362686E+03 -0.18723512710E+03  0.21386088177E+03  0.47000000000E+01 0.  1.
<mgrwt>
<rscale>  2 0.20514744E+03</rscale>
<asrwt>0</asrwt>
<pdfrwt beam="1">  1        2 0.84836664E-02 0.20514744E+03</pdfrwt>
<pdfrwt beam="2">  1       -2 0.14348401E+00 0.20514744E+03</pdfrwt>
<totfact> 0.27987443E+02</totfact>
</mgrwt>
</event>
<event>
12    1  0.5759937E-002  0.2274108E+03  0.7546771E-02  0.1128476E+00
         -1   -1    0    0    0  501 -0.00000000000E+00  0.00000000000E+00  0.45894303256E+02  0.45894303256E+02  0.00000000000E+00 0. -1.
          1   -1    0    0  503    0  0.00000000000E+00 -0.00000000000E+00 -0.11552641584E+04  0.11552641584E+04  0.00000000000E+00 0.  1.
          6    2    1    2  503    0 -0.13424600923E+03 -0.56332308981E+02 -0.46204059999E+03  0.51525955901E+03  0.17554366149E+03 0.  0.
         24    2    3    3    0    0 -0.72656132469E+02  0.26328729894E+02 -0.15226488053E+03  0.18874884459E+03  0.80432685449E+02 0.  0.
         -6    2    1    2    0  501  0.13424600923E+03  0.56332308981E+02 -0.64732925514E+03  0.68589890262E+03  0.17385862082E+03 0.  0.
        -24    2    5    5    0    0  0.15100023396E+03  0.83443642956E+02 -0.59409925239E+03  0.62367951923E+03  0.79109473642E+02 0.  0.
          4    1    4    4  502    0 -0.13351262538E+01 -0.24091393358E+02 -0.30261317973E+02  0.38703038143E+02  0.00000000000E+00 0. -1.
         -3    1    4    4    0  502 -0.71321006215E+02  0.50420123251E+02 -0.12200356255E+03  0.15004580644E+03  0.00000000000E+00 0.  1.
          5    1    3    3  503    0 -0.61589876761E+02 -0.82661038874E+02 -0.30977571946E+03  0.32651071443E+03  0.47000000000E+01 0. -1.
         11    1    6    6    0    0  0.76205428439E+02  0.61862103576E+02 -0.21047775850E+03  0.23223926026E+03  0.00000000000E+00 0. -1.
        -12    1    6    6    0    0  0.74794805523E+02  0.21581539380E+02 -0.38362149388E+03  0.39144025897E+03  0.00000000000E+00 0.  1.
         -5    1    5    5    0  501 -0.16754224732E+02 -0.27111333976E+02 -0.53230002752E+02  0.62219383389E+02  0.47000000000E+01 0.  1.
<mgrwt>
<rscale>  2 0.22741082E+03</rscale>
<asrwt>0</asrwt>
<pdfrwt beam="2">  1        1 0.17773294E+00 0.22741082E+03</pdfrwt>
<pdfrwt beam="1">  1       -1 0.70606624E-02 0.22741082E+03</pdfrwt>
<totfact> 0.12861715E+03</totfact>
</mgrwt>
</event>
<event>
12    1  0.5759937E-002  0.2148969E+03  0.7546771E-02  0.1137746E+00
          4   -1    0    0  503    0  0.00000000000E+00  0.00000000000E+00  0.30953275185E+02  0.30953275185E+02  0.00000000000E+00 0. -1.
         -4   -1    0    0    0  501 -0.00000000000E+00 -0.00000000000E+00 -0.15716293840E+04  0.15716293840E+04  0.00000000000E+00 0.  1.
          6    2    1    2  503    0 -0.28065491541E+02  0.12487897742E+03 -0.59017281254E+03  0.62810611900E+03  0.17271629121E+03 0.  0.
         24    2    3    3    0    0 -0.67500735173E+02  0.26656793288E+02 -0.31393826615E+03  0.33225083256E+03  0.81033615907E+02 0.  0.
         -6    2    1    2    0  501  0.28065491541E+02 -0.12487897742E+03 -0.95050329628E+03  0.97447654018E+03  0.17252704229E+03 0.  0.
        -24    2    5    5    0    0 -0.13579056420E+02 -0.93717687652E+02 -0.34395790396E+03  0.36568700570E+03  0.80327770357E+02 0.  0.
          4    1    4    4  502    0 -0.48815690983E+02  0.17215179549E+02 -0.30521160162E+03  0.30956979157E+03  0.00000000000E+00 0. -1.
         -3    1    4    4    0  502 -0.18685044191E+02  0.94416137393E+01 -0.87266645319E+01  0.22681040987E+02  0.00000000000E+00 0.  1.
          5    1    3    3  503    0  0.39435243632E+02  0.98222184131E+02 -0.27623454639E+03  0.29585528644E+03  0.47000000000E+01 0. -1.
         13    1    6    6    0    0  0.10017130422E+02 -0.38624046283E+02 -0.42368822965E+02  0.58200317977E+02  0.00000000000E+00 0. -1.
        -14    1    6    6    0    0 -0.23596186842E+02 -0.55093641369E+02 -0.30158908099E+03  0.30748668772E+03  0.00000000000E+00 0.  1.
         -5    1    5    5    0  501  0.41644547960E+02 -0.31161289768E+02 -0.60654539232E+03  0.60878953448E+03  0.47000000000E+01 0.  1.
<mgrwt>
<rscale>  2 0.21489688E+03</rscale>
<asrwt>0</asrwt>
<pdfrwt beam="1">  1        4 0.47620424E-02 0.21489688E+03</pdfrwt>
<pdfrwt beam="2">  1       -4 0.24178913E+00 0.21489688E+03</pdfrwt>
<totfact> 0.37458800E+01</totfact>
</mgrwt>
</event>
<event>
12    1  0.5759937E-002  0.1916526E+03  0.7546771E-02  0.1156979E+00
          2   -1    0    0  503    0  0.00000000000E+00  0.00000000000E+00  0.29530705112E+04  0.29530705112E+04  0.00000000000E+00 0. -1.
         -2   -1    0    0    0  501 -0.00000000000E+00 -0.00000000000E+00 -0.12491421227E+02  0.12491421227E+02  0.00000000000E+00 0.  1.
          6    2    1    2  503    0  0.79406862492E+02  0.97592486246E+01  0.13690848117E+04  0.13823531202E+04  0.17351148217E+03 0.  0.
         24    2    3    3    0    0  0.81244714863E+02  0.56128385908E+02  0.67254323015E+03  0.68425159501E+03  0.78324641401E+02 0.  0.
         -6    2    1    2    0  501 -0.79406862492E+02 -0.97592486246E+01  0.15714942782E+04  0.15832088122E+04  0.17480041147E+03 0.  0.
        -24    2    5    5    0    0 -0.47716721110E+02  0.33617939236E+02  0.13983004472E+04  0.14018141083E+04  0.80197271875E+02 0.  0.
          4    1    4    4  502    0  0.92885750153E+02  0.62587128349E+02  0.62081961394E+03  0.63084221821E+03  0.00000000000E+00 0. -1.
         -3    1    4    4    0  502 -0.11641035290E+02 -0.64587424411E+01  0.51723616210E+02  0.53409376802E+02  0.00000000000E+00 0.  1.
          5    1    3    3  503    0 -0.18378523714E+01 -0.46369137284E+02  0.69654158158E+03  0.69810152519E+03  0.47000000000E+01 0. -1.
         13    1    6    6    0    0 -0.23298790241E+02  0.42841388310E+02  0.37213755746E+03  0.37531930386E+03  0.00000000000E+00 0. -1.
        -14    1    6    6    0    0 -0.24417930869E+02 -0.92234490748E+01  0.10261628897E+04  0.10264948045E+04  0.00000000000E+00 0.  1.
         -5    1    5    5    0  501 -0.31690141382E+02 -0.43377187860E+02  0.17319383107E+03  0.18139470391E+03  0.47000000000E+01 0.  1.
<mgrwt>
<rscale>  2 0.19165259E+03</rscale>
<asrwt>0</asrwt>
<pdfrwt beam="1">  1        2 0.45431798E+00 0.19165259E+03</pdfrwt>
<pdfrwt beam="2">  1       -2 0.19217595E-02 0.19165259E+03</pdfrwt>
<totfact> 0.18424611E+03</totfact>
</mgrwt>
</event>
<event>
12    1  0.5759937E-002  0.1754542E+03  0.7546771E-02  0.1172276E+00
          1   -1    0    0  503    0  0.00000000000E+00  0.00000000000E+00  0.22281205742E+03  0.22281205742E+03  0.00000000000E+00 0.  1.
         -1   -1    0    0    0  501 -0.00000000000E+00 -0.00000000000E+00 -0.15490533093E+03  0.15490533093E+03  0.00000000000E+00 0. -1.
          6    2    1    2  503    0  0.27947005643E+02  0.11718516761E+02  0.96093129728E+02  0.20030151041E+03  0.17311397036E+03 0.  0.
         24    2    3    3    0    0  0.76022649444E+02  0.29941163382E+02  0.37401481603E+02  0.12213417749E+03  0.82716201508E+02 0.  0.
         -6    2    1    2    0  501 -0.27947005643E+02 -0.11718516761E+02 -0.28186403231E+02  0.17741587794E+03  0.17252119191E+03 0.  0.
        -24    2    5    5    0    0  0.49064496651E+01 -0.64082295619E+02 -0.45453120923E+02  0.11306104593E+03  0.81155406758E+02 0.  0.
          2    1    4    4  502    0  0.28040205398E+02 -0.27500141030E+01 -0.24447690448E+02  0.37302885472E+02  0.00000000000E+00 0. -1.
         -1    1    4    4    0  502  0.47982444047E+02  0.32691177485E+02  0.61849172051E+02  0.84831292018E+02  0.00000000000E+00 0.  1.
          5    1    3    3  503    0 -0.48075643801E+02 -0.18222646621E+02  0.58691648125E+02  0.78167332923E+02  0.47000000000E+01 0. -1.
         13    1    6    6    0    0  0.15224223619E+02 -0.15296023117E+02 -0.57793454216E+02  0.61691398576E+02  0.00000000000E+00 0. -1.
        -14    1    6    6    0    0 -0.10317773954E+02 -0.48786272502E+02  0.12340333293E+02  0.51369647359E+02  0.00000000000E+00 0.  1.
         -5    1    5    5    0  501 -0.32853455308E+02  0.52363778858E+02  0.17266717692E+02  0.64354832001E+02  0.47000000000E+01 0.  1.
<mgrwt>
<rscale>  2 0.17545425E+03</rscale>
<asrwt>0</asrwt>
<pdfrwt beam="1">  1        1 0.34278778E-01 0.17545425E+03</pdfrwt>
<pdfrwt beam="2">  1       -1 0.23831589E-01 0.17545425E+03</pdfrwt>
<totfact> 0.19012108E+03</totfact>
</mgrwt>
</event>
<event>
12    1  0.5759937E-002  0.1867887E+03  0.7546771E-02  0.1161390E+00
          2   -1    0    0  503    0  0.00000000000E+00  0.00000000000E+00  0.42745859642E+02  0.42745859642E+02  0.00000000000E+00 0. -1.
         -2   -1    0    0    0  501 -0.00000000000E+00 -0.00000000000E+00 -0.10768433675E+04  0.10768433675E+04  0.00000000000E+00 0.  1.
          6    2    1    2  503    0  0.31398706547E+01 -0.74807410714E+02 -0.24417468246E+03  0.30815497550E+03  0.17243029283E+03 0.  0.
         24    2    3    3    0    0 -0.10261444236E+02 -0.68136539652E+02 -0.26445600368E+03  0.28251286654E+03  0.71614639603E+02 0.  0.
         -6    2    1    2    0  501 -0.31398706547E+01  0.74807410714E+02 -0.78992282539E+03  0.81143425163E+03  0.16982775734E+03 0.  0.
        -24    2    5    5    0    0 -0.95429269858E+01  0.11740818097E+03 -0.54536077335E+03  0.56306253011E+03  0.75797699734E+02 0.  0.
          2    1    4    4  502    0  0.25928410678E+02 -0.51842578101E+02 -0.18189496902E+03  0.19090760891E+03  0.00000000000E+00 0. -1.
         -1    1    4    4    0  502 -0.36189854914E+02 -0.16293961551E+02 -0.82561034653E+02  0.91605257626E+02  0.00000000000E+00 0.  1.
          5    1    3    3  503    0  0.13401314891E+02 -0.66708710619E+01  0.20281321220E+02  0.25642108961E+02  0.47000000000E+01 0. -1.
         11    1    6    6    0    0  0.24284610505E+02  0.78232505897E+02 -0.24654261481E+03  0.25979478094E+03  0.00000000000E+00 0. -1.
        -12    1    6    6    0    0 -0.33827537491E+02  0.39175675071E+02 -0.29881815854E+03  0.30326774916E+03  0.00000000000E+00 0.  1.
         -5    1    5    5    0  501  0.64030563311E+01 -0.42600770254E+02 -0.24456205203E+03  0.24837172152E+03  0.47000000000E+01 0.  1.
<mgrwt>
<rscale>  2 0.18678865E+03</rscale>
<asrwt>0</asrwt>
<pdfrwt beam="1">  1        2 0.65762869E-02 0.18678865E+03</pdfrwt>
<pdfrwt beam="2">  1       -2 0.16566819E+00 0.18678865E+03</pdfrwt>
<totfact> 0.26625385E+02</totfact>
</mgrwt>
</event>
<event>
12    1  0.5759937E-002  0.2451634E+03  0.7546771E-02  0.1116400E+00
         -2   -1    0    0    0  501 -0.00000000000E+00  0.00000000000E+00  0.76614518040E+02  0.76614518040E+02  0.00000000000E+00 0.  1.
          2   -1    0    0  503    0  0.00000000000E+00 -0.00000000000E+00 -0.84905056175E+03  0.84905056175E+03  0.00000000000E+00 0. -1.
          6    2    1    2  503    0 -0.12155721228E+03 -0.12411729403E+03 -0.51355377111E+03  0.56899248450E+03  0.17272438469E+03 0.  0.
         24    2    3    3    0    0 -0.73604482803E+01 -0.93479482594E+02 -0.21862738900E+03  0.25121388664E+03  0.80733461180E+02 0.  0.
         -6    2    1    2    0  501  0.12155721228E+03  0.12411729403E+03 -0.25888227260E+03  0.35667259529E+03  0.17324563667E+03 0.  0.
        -24    2    5    5    0    0  0.10284223183E+03  0.10985900406E+03 -0.27780756657E+03  0.32611435453E+03  0.80796056642E+02 0.  0.
          2    1    4    4  502    0 -0.27360165046E+02 -0.36720963783E+02 -0.34024749179E+02  0.57049902447E+02  0.00000000000E+00 0. -1.
         -1    1    4    4    0  502  0.19999716766E+02 -0.56758518811E+02 -0.18460263982E+03  0.19416398419E+03  0.00000000000E+00 0.  1.
          5    1    3    3  503    0 -0.11419676400E+03 -0.30637811436E+02 -0.29492638210E+03  0.31777859786E+03  0.47000000000E+01 0. -1.
         13    1    6    6    0    0  0.54216107801E+01 -0.12841663204E+02 -0.27191231019E+02  0.30555935947E+02  0.00000000000E+00 0. -1.
        -14    1    6    6    0    0  0.97420621052E+02  0.12270066726E+03 -0.25061633555E+03  0.29555841859E+03  0.00000000000E+00 0.  1.
         -5    1    5    5    0  501  0.18714980450E+02  0.14258289972E+02  0.18925293966E+02  0.30558240753E+02  0.47000000000E+01 0.  1.
<mgrwt>
<rscale>  2 0.24516336E+03</rscale>
<asrwt>0</asrwt>
<pdfrwt beam="2">  1        2 0.13062317E+00 0.24516336E+03</pdfrwt>
<pdfrwt beam="1">  1       -2 0.11786849E-01 0.24516336E+03</pdfrwt>
<totfact> 0.16697447E+03</totfact>
</mgrwt>
</event>
<event>
12    1  0.5759937E-002  0.1857765E+03  0.7546771E-02  0.1162327E+00
         -2   -1    0    0    0  501 -0.00000000000E+00  0.00000000000E+00  0.58805018715E+02  0.58805018715E+02  0.00000000000E+00 0.  1.
          2   -1    0    0  503    0  0.00000000000E+00 -0.00000000000E+00 -0.59584992914E+03  0.59584992914E+03  0.00000000000E+00 0. -1.
          6    2    1    2  503    0  0.45449681217E+02 -0.48939633346E+02 -0.30877640041E+03  0.36040815781E+03  0.17346588578E+03 0.  0.
         24    2    3    3    0    0  0.60844645787E+02  0.14039841781E+02 -0.26011373762E+03  0.27920739444E+03  0.79990152730E+02 0.  0.
         -6    2    1    2    0  501 -0.45449681217E+02  0.48939633346E+02 -0.22826851001E+03  0.29424679004E+03  0.17324520067E+03 0.  0.
        -24    2    5    5    0    0  0.30247622957E+02  0.54854110006E+01 -0.16532345496E+03  0.18653178991E+03  0.80729520361E+02 0.  0.
          2    1    4    4  502    0  0.26664576769E+02  0.46379315180E+02 -0.15700534427E+03  0.16586958329E+03  0.00000000000E+00 0. -1.
         -1    1    4    4    0  502  0.34180069018E+02 -0.32339473398E+02 -0.10310839335E+03  0.11333781116E+03  0.00000000000E+00 0.  1.
          5    1    3    3  503    0 -0.15394964570E+02 -0.62979475127E+02 -0.48662662789E+02  0.81200763365E+02  0.47000000000E+01 0. -1.
         11    1    6    6    0    0  0.41567274189E+02  0.31781257805E+02 -0.13521009727E+03  0.14498157481E+03  0.00000000000E+00 0. -1.
        -12    1    6    6    0    0 -0.11319651232E+02 -0.26295846804E+02 -0.30113357693E+02  0.41550215098E+02  0.00000000000E+00 0.  1.
         -5    1    5    5    0  501 -0.75697304174E+02  0.43454222345E+02 -0.62945055047E+02  0.10771500013E+03  0.47000000000E+01 0.  1.
<mgrwt>
<rscale>  2 0.18577647E+03</rscale>
<asrwt>0</asrwt>
<pdfrwt beam="2">  1        2 0.91669225E-01 0.18577647E+03</pdfrwt>
<pdfrwt beam="1">  1       -2 0.90469255E-02 0.18577647E+03</pdfrwt>
<totfact> 0.38953650E+03</totfact>
</mgrwt>
</event>
<event>
12    1  0.5759937E-002  0.1893496E+03  0.7546771E-02  0.1159049E+00
         -2   -1    0    0    0  501 -0.00000000000E+00  0.00000000000E+00  0.35429620615E+02  0.35429620615E+02  0.00000000000E+00 0. -1.
          2   -1    0    0  503    0  0.00000000000E+00 -0.00000000000E+00 -0.12100081971E+04  0.12100081971E+04  0.00000000000E+00 0.  1.
          6    2    1    2  503    0 -0.88397812702E+01 -0.74297045500E+02 -0.83784667683E+03  0.85886016142E+03  0.17336530882E+03 0.  0.
         24    2    3    3    0    0  0.15273208197E+02 -0.10950625497E+03 -0.73077801778E+03  0.74350457013E+03  0.80855697131E+02 0.  0.
         -6    2    1    2    0  501  0.88397812702E+01  0.74297045500E+02 -0.33673189961E+03  0.38657765625E+03  0.17451567091E+03 0.  0.
        -24    2    5    5    0    0 -0.50455378653E+02  0.40076210688E+02 -0.11143839428E+03  0.15106494944E+03  0.79058556339E+02 0.  0.
          2    1    4    4  502    0  0.32046000848E+02 -0.99999225576E+02 -0.45101861444E+03  0.46308161468E+03  0.00000000000E+00 0. -1.
         -1    1    4    4    0  502 -0.16772792652E+02 -0.95070293984E+01 -0.27975940334E+03  0.28042295544E+03  0.00000000000E+00 0.  1.
          5    1    3    3  503    0 -0.24112989467E+02  0.35209209475E+02 -0.10706865904E+03  0.11535559129E+03  0.47000000000E+01 0. -1.
         11    1    6    6    0    0 -0.71069120214E+02  0.36304896697E+02 -0.97032471663E+02  0.12563505056E+03  0.00000000000E+00 0. -1.
        -12    1    6    6    0    0  0.20613741562E+02  0.37713139911E+01 -0.14405922617E+02  0.25429898876E+02  0.00000000000E+00 0.  1.
         -5    1    5    5    0  501  0.59295159923E+02  0.34220834811E+02 -0.22529350533E+03  0.23551270681E+03  0.47000000000E+01 0.  1.
<mgrwt>
<rscale>  2 0.18934957E+03</rscale>
<asrwt>0</asrwt>
<pdfrwt beam="2">  1        2 0.18615512E+00 0.18934957E+03</pdfrwt>
<pdfrwt beam="1">  1       -2 0.54507106E-02 0.18934957E+03</pdfrwt>
<totfact> 0.33629624E+03</totfact>
</mgrwt>
</event>
<event>
12    1  0.5759937E-002  0.4080893E+03  0.7546771E-02  0.1041014E+00
          1   -1    0    0  503    0  0.00000000000E+00  0.00000000000E+00  0.25884627392E+03  0.25884627392E+03  0.00000000000E+00 0. -1.
         -1   -1    0    0    0  501 -0.00000000000E+00 -0.00000000000E+00 -0.68241746858E+03  0.68241746858E+03  0.00000000000E+00 0.  1.
          6    2    1    2  503    0  0.26235238608E+03  0.26156407560E+03 -0.32412019214E+03  0.52078307196E+03  0.17004872526E+03 0.  0.
         24    2    3    3    0    0  0.13141681729E+03  0.57730184688E+02 -0.12054336404E+03  0.20430559536E+03  0.81282960014E+02 0.  0.
         -6    2    1    2    0  501 -0.26235238608E+03 -0.26156407560E+03 -0.99451002523E+02  0.42048067055E+03  0.17224677726E+03 0.  0.
        -24    2    5    5    0    0 -0.23935908252E+03 -0.15891872530E+03 -0.10215434092E+03  0.31515186164E+03  0.79606877162E+02 0.  0.
          4    1    4    4  502    0  0.13963889920E+03  0.39765135151E+02 -0.10548662175E+03  0.17946508159E+03  0.00000000000E+00 0. -1.
         -3    1    4    4    0  502 -0.82220819047E+01  0.17965049536E+02 -0.15056742293E+02  0.24840513766E+02  0.00000000000E+00 0.  1.
          5    1    3    3  503    0  0.13093556878E+03  0.20383389091E+03 -0.20357682809E+03  0.31647747660E+03  0.47000000000E+01 0. -1.
         11    1    6    6    0    0 -0.89791394970E+02 -0.47337713558E+02  0.18494150920E+01  0.10152228362E+03  0.00000000000E+00 0. -1.
        -12    1    6    6    0    0 -0.14956768755E+03 -0.11158101174E+03 -0.10400375601E+03  0.21362957802E+03  0.00000000000E+00 0.  1.
         -5    1    5    5    0  501 -0.22993303558E+02 -0.10264535031E+03  0.27033383952E+01  0.10532880891E+03  0.47000000000E+01 0.  1.
<mgrwt>
<rscale>  2 0.40808930E+03</rscale>
<asrwt>0</asrwt>
<pdfrwt beam="1">  1        1 0.39822504E-01 0.40808930E+03</pdfrwt>
<pdfrwt beam="2">  1       -1 0.10498730E+00 0.40808930E+03</pdfrwt>
<totfact> 0.94592414E+01</totfact>
</mgrwt>
</event>
<event>
12    1  0.5759937E-002  0.1912251E+03  0.7546771E-02  0.1157361E+00
         -2   -1    0    0    0  501 -0.00000000000E+00  0.00000000000E+00  0.59867158329E+03  0.59867158329E+03  0.00000000000E+00 0.  1.
          2   -1    0    0  503    0  0.00000000000E+00 -0.00000000000E+00 -0.81144975114E+02  0.81144975114E+02  0.00000000000E+00 0. -1.
          6    2    1    2  503    0 -0.60210622847E+02 -0.34890443934E+02  0.41386380213E+03  0.45103045385E+03  0.16523486741E+03 0.  0.
         24    2    3    3    0    0 -0.30368309872E+02  0.15629779836E+02  0.36305117997E+03  0.37326883592E+03  0.79730422834E+02 0.  0.
         -6    2    1    2    0  501  0.60210622847E+02  0.34890443934E+02  0.10366280605E+03  0.22878610455E+03  0.19171448067E+03 0.  0.
        -24    2    5    5    0    0 -0.20852781206E+02  0.73409623989E+02  0.89356935790E+02  0.13778198029E+03  0.71940258138E+02 0.  0.
          2    1    4    4  502    0 -0.35959123168E+02 -0.21347890986E+02  0.26589594837E+03  0.26916434821E+03  0.00000000000E+00 0. -1.
         -1    1    4    4    0  502  0.55908132965E+01  0.36977670822E+02  0.97155231606E+02  0.10410448771E+03  0.00000000000E+00 0.  1.
          5    1    3    3  503    0 -0.29842312976E+02 -0.50520223769E+02  0.50812622154E+02  0.77761617933E+02  0.47000000000E+01 0. -1.
         13    1    6    6    0    0  0.24302157384E+02  0.42829313913E+02  0.32518402481E+02  0.59011791056E+02  0.00000000000E+00 0. -1.
        -14    1    6    6    0    0 -0.45154938589E+02  0.30580310077E+02  0.56838533308E+02  0.78770189235E+02  0.00000000000E+00 0.  1.
         -5    1    5    5    0  501  0.81063404053E+02 -0.38519180056E+02  0.14305870260E+02  0.91004124262E+02  0.47000000000E+01 0.  1.
<mgrwt>
<rscale>  2 0.19122510E+03</rscale>
<asrwt>0</asrwt>
<pdfrwt beam="2">  1        2 0.12483843E-01 0.19122510E+03</pdfrwt>
<pdfrwt beam="1">  1       -2 0.92103318E-01 0.19122510E+03</pdfrwt>
<totfact> 0.50246988E+02</totfact>
</mgrwt>
</event>
<event>
12    1  0.5759937E-002  0.1736240E+03  0.7546771E-02  0.1174120E+00
         -2   -1    0    0    0  501 -0.00000000000E+00  0.00000000000E+00  0.13337246920E+03  0.13337246920E+03  0.00000000000E+00 0.  1.
          2   -1    0    0  503    0  0.00000000000E+00 -0.00000000000E+00 -0.22711881732E+03  0.22711881732E+03  0.00000000000E+00 0. -1.
          6    2    1    2  503    0 -0.21949948331E+02 -0.37106840768E+00 -0.34717727559E+02  0.17818251299E+03  0.17338324430E+03 0.  0.
         24    2    3    3    0    0  0.48737092188E+02  0.14281208607E+02  0.63605251968E+01  0.94990808059E+02  0.80022123570E+02 0.  0.
         -6    2    1    2    0  501  0.21949948331E+02  0.37106840768E+00 -0.59028620562E+02  0.18230877354E+03  0.17108527973E+03 0.  0.
        -24    2    5    5    0    0  0.43388782574E+01 -0.53821448523E+02  0.48240325386E+01  0.96598622518E+02  0.79952788549E+02 0.  0.
          2    1    4    4  502    0  0.59160453391E+02  0.12062006105E+02 -0.22338125425E+02  0.64377349155E+02  0.00000000000E+00 0. -1.
         -1    1    4    4    0  502 -0.10423361203E+02  0.22192025017E+01  0.28698650622E+02  0.30613458904E+02  0.00000000000E+00 0.  1.
          5    1    3    3  503    0 -0.70687040520E+02 -0.14652277015E+02 -0.41078252756E+02  0.83191704927E+02  0.47000000000E+01 0. -1.
         11    1    6    6    0    0 -0.30089782753E+02 -0.28998377428E+02 -0.21151417743E+02  0.46836773930E+02  0.00000000000E+00 0. -1.
        -12    1    6    6    0    0  0.34428661011E+02 -0.24823071095E+02  0.25975450282E+02  0.49761848588E+02  0.00000000000E+00 0.  1.
         -5    1    5    5    0  501  0.17611070074E+02  0.54192516931E+02 -0.63852653100E+02  0.85710151023E+02  0.47000000000E+01 0.  1.
<mgrwt>
<rscale>  2 0.17362402E+03</rscale>
<asrwt>0</asrwt>
<pdfrwt beam="2">  1        2 0.34941356E-01 0.17362402E+03</pdfrwt>
<pdfrwt beam="1">  1       -2 0.20518841E-01 0.17362402E+03</pdfrwt>
<totfact> 0.29151377E+03</totfact>
</mgrwt>
</event>
<event>
12    1  0.5759937E-002  0.2465652E+03  0.7546771E-02  0.1115495E+00
          2   -1    0    0  503    0  0.00000000000E+00  0.00000000000E+00  0.45302587613E+03  0.45302587613E+03  0.00000000000E+00 0. -1.
         -2   -1    0    0    0  501 -0.00000000000E+00 -0.00000000000E+00 -0.19487433280E+03  0.19487433280E+03  0.00000000000E+00 0.  1.
          6    2    1    2  503    0 -0.11641881782E+03  0.13236573151E+03  0.30962862420E+03  0.39544332200E+03  0.17155613649E+03 0.  0.
         24    2    3    3    0    0 -0.59541117852E+01  0.44935835966E+02  0.18292173574E+03  0.20590925251E+03  0.82967331285E+02 0.  0.
         -6    2    1    2    0  501  0.11641881782E+03 -0.13236573151E+03 -0.51477080876E+02  0.25245688694E+03  0.17323556761E+03 0.  0.
        -24    2    5    5    0    0  0.31731009890E+02 -0.13754505626E+03 -0.16422677555E+02  0.16053435755E+03  0.74673128530E+02 0.  0.
          4    1    4    4  502    0  0.30536260394E+02  0.36578475013E+02  0.14497603819E+03  0.15260570003E+03  0.00000000000E+00 0. -1.
         -3    1    4    4    0  502 -0.36490372179E+02  0.83573609533E+01  0.37945697554E+02  0.53303552478E+02  0.00000000000E+00 0.  1.
          5    1    3    3  503    0 -0.11046470603E+03  0.87429895540E+02  0.12670688846E+03  0.18953406949E+03  0.47000000000E+01 0. -1.
         11    1    6    6    0    0 -0.14006409947E+02 -0.68620940096E+02  0.15739689470E+02  0.71782663394E+02  0.00000000000E+00 0. -1.
        -12    1    6    6    0    0  0.45737419837E+02 -0.68924116167E+02 -0.32162367025E+02  0.88751694155E+02  0.00000000000E+00 0.  1.
         -5    1    5    5    0  501  0.84687807929E+02  0.51793247562E+01 -0.35054403322E+02  0.91922529388E+02  0.47000000000E+01 0.  1.
<mgrwt>
<rscale>  2 0.24656515E+03</rscale>
<asrwt>0</asrwt>
<pdfrwt beam="1">  1        2 0.69696288E-01 0.24656515E+03</pdfrwt>
<pdfrwt beam="2">  1       -2 0.29980667E-01 0.24656515E+03</pdfrwt>
<totfact> 0.71448365E+02</totfact>
</mgrwt>
</event>
<event>
12    1  0.5759937E-002  0.1821229E+03  0.7546771E-02  0.1165764E+00
         -2   -1    0    0    0  501 -0.00000000000E+00  0.00000000000E+00  0.75317505568E+03  0.75317505568E+03  0.00000000000E+00 0.  1.
          2   -1    0    0  503    0  0.00000000000E+00 -0.00000000000E+00 -0.44484874875E+02  0.44484874875E+02  0.00000000000E+00 0. -1.
          6    2    1    2  503    0 -0.13681774388E+02 -0.51135594269E+02  0.39769943045E+03  0.43820638275E+03  0.17623267845E+03 0.  0.
         24    2    3    3    0    0 -0.30902911263E+02 -0.10280517420E+03  0.33268896229E+03  0.35326661577E+03  0.50906408414E+02 0.  0.
         -6    2    1    2    0  501  0.13681774388E+02  0.51135594269E+02  0.31099075035E+03  0.35945354780E+03  0.17230660542E+03 0.  0.
        -24    2    5    5    0    0  0.12510423726E+02 -0.34837174545E+02  0.90793713059E+02  0.12301853713E+03  0.74296182362E+02 0.  0.
          2    1    4    4  502    0 -0.28684670966E+01 -0.54437171484E+02  0.99337573190E+02  0.11331190224E+03  0.00000000000E+00 0. -1.
         -1    1    4    4    0  502 -0.28034444166E+02 -0.48368002716E+02  0.23335138910E+03  0.23995471352E+03  0.00000000000E+00 0.  1.
          5    1    3    3  503    0  0.17221136875E+02  0.51669579930E+02  0.65010468162E+02  0.84939766989E+02  0.47000000000E+01 0. -1.
         11    1    6    6    0    0  0.64373365041E+01 -0.31074743474E+02  0.10360156310E+03  0.10835295501E+03  0.00000000000E+00 0. -1.
        -12    1    6    6    0    0  0.60730872221E+01 -0.37624310710E+01 -0.12807850043E+02  0.14665582112E+02  0.00000000000E+00 0.  1.
         -5    1    5    5    0  501  0.11713506621E+01  0.85972768814E+02  0.22019703729E+03  0.23643501068E+03  0.47000000000E+01 0.  1.
<mgrwt>
<rscale>  2 0.18212289E+03</rscale>
<asrwt>0</asrwt>
<pdfrwt beam="2">  1        2 0.68438274E-02 0.18212289E+03</pdfrwt>
<pdfrwt beam="1">  1       -2 0.11587308E+00 0.18212289E+03</pdfrwt>
<totfact> 0.62179382E+02</totfact>
</mgrwt>
</event>
<event>
12    1  0.5759937E-002  0.2108717E+03  0.7546771E-02  0.1140878E+00
         -2   -1    0    0    0  501 -0.00000000000E+00  0.00000000000E+00  0.18140657226E+02  0.18140657226E+02  0.00000000000E+00 0.  1.
          2   -1    0    0  503    0  0.00000000000E+00 -0.00000000000E+00 -0.30998957226E+04  0.30998957226E+04  0.00000000000E+00 0. -1.
          6    2    1    2  503    0  0.85371909513E+02  0.84662567903E+02 -0.82909991892E+03  0.85555517626E+03  0.17352772324E+03 0.  0.
         24    2    3    3    0    0  0.40927089398E+02  0.12112861982E+03 -0.55950253977E+03  0.57985615228E+03  0.82721799697E+02 0.  0.
         -6    2    1    2    0  501 -0.85371909513E+02 -0.84662567903E+02 -0.22526551465E+04  0.22624812036E+04  0.17294471458E+03 0.  0.
        -24    2    5    5    0    0 -0.31223362615E+02  0.92755497775E+01 -0.13619219587E+04  0.13651606717E+04  0.88154999039E+02 0.  0.
          4    1    4    4  502    0  0.41044507459E+02  0.69947592718E+02 -0.46832991925E+03  0.47530014789E+03  0.00000000000E+00 0. -1.
         -3    1    4    4    0  502 -0.11741806133E+00  0.51181027102E+02 -0.91172620526E+02  0.10455600440E+03  0.00000000000E+00 0.  1.
          5    1    3    3  503    0  0.44444820116E+02 -0.36466051917E+02 -0.26959737915E+03  0.27569902397E+03  0.47000000000E+01 0. -1.
         11    1    6    6    0    0  0.26974663231E+02 -0.28046475360E+01 -0.71492059920E+03  0.71543480602E+03  0.00000000000E+00 0. -1.
        -12    1    6    6    0    0 -0.58198025846E+02  0.12080197314E+02 -0.64700135952E+03  0.64972586573E+03  0.00000000000E+00 0.  1.
         -5    1    5    5    0  501 -0.54148546899E+02 -0.93938117681E+02 -0.89073318777E+03  0.89732053185E+03  0.47000000000E+01 0.  1.
<mgrwt>
<rscale>  2 0.21087169E+03</rscale>
<asrwt>0</asrwt>
<pdfrwt beam="2">  1        2 0.47690705E+00 0.21087169E+03</pdfrwt>
<pdfrwt beam="1">  1       -2 0.27908702E-02 0.21087169E+03</pdfrwt>
<totfact> 0.86800686E+02</totfact>
</mgrwt>
</event>
<event>
12    1  0.5759937E-002  0.1798991E+03  0.7546771E-02  0.1167901E+00
          2   -1    0    0  503    0  0.00000000000E+00  0.00000000000E+00  0.14915210430E+03  0.14915210430E+03  0.00000000000E+00 0. -1.
         -2   -1    0    0    0  501 -0.00000000000E+00 -0.00000000000E+00 -0.29407506246E+03  0.29407506246E+03  0.00000000000E+00 0.  1.
          6    2    1    2  503    0 -0.10539219548E+02  0.46090033224E+02 -0.18604762766E+03  0.25908220209E+03  0.17399569354E+03 0.  0.
         24    2    3    3    0    0 -0.25589391125E+02  0.40116305338E+02 -0.25674270674E+02  0.97824964361E+02  0.81525582398E+02 0.  0.
         -6    2    1    2    0  501  0.10539219548E+02 -0.46090033224E+02  0.41124669511E+02  0.18414496467E+03  0.17315531542E+03 0.  0.
        -24    2    5    5    0    0  0.61111087931E+02 -0.71811383896E+02  0.32604778051E+02  0.12657952102E+03  0.77896493271E+02 0.  0.
          4    1    4    4  502    0 -0.11194187370E+02 -0.21377397865E+01  0.26686978320E+02  0.29018521226E+02  0.00000000000E+00 0. -1.
         -3    1    4    4    0  502 -0.14395203755E+02  0.42254045124E+02 -0.52361248995E+02  0.68806443134E+02  0.00000000000E+00 0.  1.
          5    1    3    3  503    0  0.15050171577E+02  0.59737278857E+01 -0.16037335699E+03  0.16125723773E+03  0.47000000000E+01 0. -1.
         13    1    6    6    0    0 -0.14439792579E+02 -0.10656601747E+02 -0.98959540603E+01  0.20493918056E+02  0.00000000000E+00 0. -1.
        -14    1    6    6    0    0  0.75550880510E+02 -0.61154782149E+02  0.42500732111E+02  0.10608560296E+03  0.00000000000E+00 0.  1.
         -5    1    5    5    0  501 -0.50571868383E+02  0.25721350672E+02  0.85198914607E+01  0.57565443650E+02  0.47000000000E+01 0.  1.
<mgrwt>
<rscale>  2 0.17989905E+03</rscale>
<asrwt>0</asrwt>
<pdfrwt beam="1">  1        2 0.22946478E-01 0.17989905E+03</pdfrwt>
<pdfrwt beam="2">  1       -2 0.45242317E-01 0.17989905E+03</pdfrwt>
<totfact> 0.11006837E+03</totfact>
</mgrwt>
</event>
<event>
12    1  0.5759937E-002  0.2105957E+03  0.7546771E-02  0.1141095E+00
         -2   -1    0    0    0  501 -0.00000000000E+00  0.00000000000E+00  0.32291647254E+02  0.32291647254E+02  0.00000000000E+00 0.  1.
          2   -1    0    0  503    0  0.00000000000E+00 -0.00000000000E+00 -0.16086363092E+04  0.16086363092E+04  0.00000000000E+00 0. -1.
          6    2    1    2  503    0  0.11706455582E+03  0.25450932741E+02 -0.11018373820E+04  0.11217790722E+04  0.17317855030E+03 0.  0.
         24    2    3    3    0    0  0.43170645826E+02  0.66554405479E+02 -0.42749273353E+03  0.44213754882E+03  0.80264446089E+02 0.  0.
         -6    2    1    2    0  501 -0.11706455582E+03 -0.25450932741E+02 -0.47450727991E+03  0.51914888420E+03  0.17322397372E+03 0.  0.
        -24    2    5    5    0    0 -0.11122772521E+03 -0.16912381943E+02 -0.48470385173E+03  0.50388338328E+03  0.79391463889E+02 0.  0.
          4    1    4    4  502    0  0.12390390043E+01  0.58142610366E+02 -0.33781228587E+03  0.34278161976E+03  0.00000000000E+00 0. -1.
         -3    1    4    4    0  502  0.41931606822E+02  0.84117951126E+01 -0.89680447661E+02  0.99355929065E+02  0.00000000000E+00 0.  1.
          5    1    3    3  503    0  0.73893909997E+02 -0.41103472738E+02 -0.67434464848E+03  0.67964152341E+03  0.47000000000E+01 0. -1.
         11    1    6    6    0    0 -0.66784496774E+02 -0.25941984588E+02 -0.15126566576E+03  0.16737519892E+03  0.00000000000E+00 0. -1.
        -12    1    6    6    0    0 -0.44443228439E+02  0.90296026447E+01 -0.33343818597E+03  0.33650818436E+03  0.00000000000E+00 0.  1.
         -5    1    5    5    0  501 -0.58368306106E+01 -0.85385507983E+01  0.10196571827E+02  0.15265500920E+02  0.47000000000E+01 0.  1.
<mgrwt>
<rscale>  2 0.21059567E+03</rscale>
<asrwt>0</asrwt>
<pdfrwt beam="2">  1        2 0.24748247E+00 0.21059567E+03</pdfrwt>
<pdfrwt beam="1">  1       -2 0.49679466E-02 0.21059567E+03</pdfrwt>
<totfact> 0.23631729E+03</totfact>
</mgrwt>
</event>
<event>
12    1  0.5759937E-002  0.1741547E+03  0.7546771E-02  0.1173583E+00
         -2   -1    0    0    0  501 -0.00000000000E+00  0.00000000000E+00  0.62102277296E+02  0.62102277296E+02  0.00000000000E+00 0.  1.
          2   -1    0    0  503    0  0.00000000000E+00 -0.00000000000E+00 -0.54651713592E+03  0.54651713592E+03  0.00000000000E+00 0. -1.
          6    2    1    2  503    0 -0.11860794756E+02 -0.15336635010E+02 -0.34243658829E+03  0.38454104084E+03  0.17387669271E+03 0.  0.
         24    2    3    3    0    0 -0.70637067882E+02 -0.33585050032E+02 -0.24658478297E+03  0.27053527995E+03  0.79169006314E+02 0.  0.
         -6    2    1    2    0  501  0.11860794756E+02  0.15336635010E+02 -0.14197827033E+03  0.22407837237E+03  0.17227128865E+03 0.  0.
        -24    2    5    5    0    0  0.61502157528E+02  0.30151125046E+02 -0.36565183540E+02  0.10652947668E+03  0.72937720222E+02 0.  0.
          2    1    4    4  502    0 -0.87896696803E+02 -0.32352555590E+02 -0.21514221066E+03  0.23464587780E+03  0.00000000000E+00 0. -1.
         -1    1    4    4    0  502  0.17259628921E+02 -0.12324944415E+01 -0.31442572305E+02  0.35889402143E+02  0.00000000000E+00 0.  1.
          5    1    3    3  503    0  0.58776273126E+02  0.18248415022E+02 -0.95851805327E+02  0.11400576090E+03  0.47000000000E+01 0. -1.
         13    1    6    6    0    0  0.49668660092E+02  0.52743695553E+02 -0.17083546345E+02  0.74436017973E+02  0.00000000000E+00 0. -1.
        -14    1    6    6    0    0  0.11833497436E+02 -0.22592570507E+02 -0.19481637195E+02  0.32093458703E+02  0.00000000000E+00 0.  1.
         -5    1    5    5    0  501 -0.49641362773E+02 -0.14814490036E+02 -0.10541308679E+03  0.11754889570E+03  0.47000000000E+01 0.  1.
<mgrwt>
<rscale>  2 0.17415473E+03</rscale>
<asrwt>0</asrwt>
<pdfrwt beam="2">  1        2 0.84079560E-01 0.17415473E+03</pdfrwt>
<pdfrwt beam="1">  1       -2 0.95541965E-02 0.17415473E+03</pdfrwt>
<totfact> 0.39346088E+03</totfact>
</mgrwt>
</event>
<event>
12    1  0.5759937E-002  0.2876529E+03  0.7546771E-02  0.1091581E+00
          1   -1    0    0  503    0  0.00000000000E+00  0.00000000000E+00  0.66830255555E+03  0.66830255555E+03  0.00000000000E+00 0. -1.
         -1   -1    0    0    0  501 -0.00000000000E+00 -0.00000000000E+00 -0.23707295779E+03  0.23707295779E+03  0.00000000000E+00 0.  1.
          6    2    1    2  503    0  0.34449002199E+02  0.22467628769E+03  0.52927285382E+03  0.60334286521E+03  0.17951794119E+03 0.  0.
         24    2    3    3    0    0  0.46195237656E+02  0.75882160166E+02  0.35366395796E+03  0.37282553238E+03  0.77643932250E+02 0.  0.
         -6    2    1    2    0  501 -0.34449002199E+02 -0.22467628769E+03 -0.98043256051E+02  0.30203264813E+03  0.17304644600E+03 0.  0.
        -24    2    5    5    0    0  0.28971593290E+02 -0.11295363695E+03  0.85389129372E+01  0.13504171614E+03  0.67568296887E+02 0.  0.
          4    1    4    4  502    0  0.66231627099E+01  0.23128239273E+02  0.24162080671E+03  0.24281555957E+03  0.00000000000E+00 0. -1.
         -3    1    4    4    0  502  0.39572074946E+02  0.52753920893E+02  0.11204315126E+03  0.13000997280E+03  0.00000000000E+00 0.  1.
          5    1    3    3  503    0 -0.11746235457E+02  0.14879412753E+03  0.17560889585E+03  0.23051733283E+03  0.47000000000E+01 0. -1.
         13    1    6    6    0    0  0.49232830777E+02 -0.62709604898E+02 -0.24436370720E+01  0.79764262266E+02  0.00000000000E+00 0. -1.
        -14    1    6    6    0    0 -0.20261237486E+02 -0.50244032055E+02  0.10982550009E+02  0.55277453869E+02  0.00000000000E+00 0.  1.
         -5    1    5    5    0  501 -0.63420595489E+02 -0.11172265074E+03 -0.10658216899E+03  0.16699093199E+03  0.47000000000E+01 0.  1.
<mgrwt>
<rscale>  2 0.28765289E+03</rscale>
<asrwt>0</asrwt>
<pdfrwt beam="1">  1        1 0.10281578E+00 0.28765289E+03</pdfrwt>
<pdfrwt beam="2">  1       -1 0.36472763E-01 0.28765289E+03</pdfrwt>
<totfact> 0.22108777E+02</totfact>
</mgrwt>
</event>
<event>
12    1  0.5759937E-002  0.1746796E+03  0.7546771E-02  0.1173054E+00
          1   -1    0    0  503    0  0.00000000000E+00  0.00000000000E+00  0.74068676331E+03  0.74068676331E+03  0.00000000000E+00 0. -1.
         -1   -1    0    0    0  501 -0.00000000000E+00 -0.00000000000E+00 -0.44530490232E+02  0.44530490232E+02  0.00000000000E+00 0.  1.
          6    2    1    2  503    0 -0.11932292429E+02  0.24259729639E+02  0.24024654467E+03  0.29691344665E+03  0.17236089607E+03 0.  0.
         24    2    3    3    0    0 -0.32154236783E+01 -0.22052021633E+01  0.35800302338E+02  0.90523688140E+02  0.83052240192E+02 0.  0.
         -6    2    1    2    0  501  0.11932292429E+02 -0.24259729639E+02  0.45590972841E+03  0.48830380689E+03  0.17278892696E+03 0.  0.
        -24    2    5    5    0    0 -0.33080372213E+02  0.43947776725E+02  0.19895789732E+03  0.21862856256E+03  0.72031141577E+02 0.  0.
          2    1    4    4  502    0  0.25578885460E+02 -0.57816103328E+01 -0.16308187702E+02  0.30881440795E+02  0.00000000000E+00 0. -1.
         -1    1    4    4    0  502 -0.28794309138E+02  0.35764081695E+01  0.52108490040E+02  0.59642247345E+02  0.00000000000E+00 0.  1.
          5    1    3    3  503    0 -0.87168687511E+01  0.26464931802E+02  0.20444624233E+03  0.20638975851E+03  0.47000000000E+01 0. -1.
         11    1    6    6    0    0 -0.28378094950E+02 -0.77099493066E+01  0.12422402086E+03  0.12765722443E+03  0.00000000000E+00 0. -1.
        -12    1    6    6    0    0 -0.47022772635E+01  0.51657726032E+02  0.74733876462E+02  0.90971338131E+02  0.00000000000E+00 0.  1.
         -5    1    5    5    0  501  0.45012664643E+02 -0.68207506364E+02  0.25695183109E+03  0.26967524433E+03  0.47000000000E+01 0.  1.
<mgrwt>
<rscale>  2 0.17467962E+03</rscale>
<asrwt>0</asrwt>
<pdfrwt beam="1">  1        1 0.11395180E+00 0.17467962E+03</pdfrwt>
<pdfrwt beam="2">  1       -1 0.68508452E-02 0.17467962E+03</pdfrwt>
<totfact> 0.27959581E+03</totfact>
</mgrwt>
</event>
<event>
12    1  0.5759937E-002  0.2088496E+03  0.7546771E-02  0.1142480E+00
          2   -1    0    0  503    0  0.00000000000E+00  0.00000000000E+00  0.19612639803E+04  0.19612639803E+04  0.00000000000E+00 0. -1.
         -2   -1    0    0    0  501 -0.00000000000E+00 -0.00000000000E+00 -0.32955561474E+02  0.32955561474E+02  0.00000000000E+00 0.  1.
          6    2    1    2  503    0 -0.69602429606E+02  0.87482578732E+02  0.15323944082E+04  0.15465463555E+04  0.17628189818E+03 0.  0.
         24    2    3    3    0    0 -0.64675823586E+02  0.11863848309E+03  0.93066704769E+03  0.94397447745E+03  0.81783914058E+02 0.  0.
         -6    2    1    2    0  501  0.69602429606E+02 -0.87482578732E+02  0.39591401064E+03  0.44767318629E+03  0.17653803589E+03 0.  0.
        -24    2    5    5    0    0  0.30006365116E+01  0.18662790225E+02  0.14032638217E+03  0.16298078383E+03  0.80708975989E+02 0.  0.
          2    1    4    4  502    0  0.66667157041E+01  0.71377128036E+02  0.38099383151E+03  0.38767955730E+03  0.00000000000E+00 0. -1.
         -1    1    4    4    0  502 -0.71342539290E+02  0.47261355054E+02  0.54967321619E+03  0.55629492015E+03  0.00000000000E+00 0.  1.
          5    1    3    3  503    0 -0.49266060204E+01 -0.31155904358E+02  0.60172736050E+03  0.60257187803E+03  0.47000000000E+01 0. -1.
         11    1    6    6    0    0 -0.27251465626E+02 -0.24908529793E+01  0.11500656302E+03  0.11821741101E+03  0.00000000000E+00 0. -1.
        -12    1    6    6    0    0  0.30252102137E+02  0.21153643204E+02  0.25319819153E+02  0.44763372823E+02  0.00000000000E+00 0.  1.
         -5    1    5    5    0  501  0.66601793095E+02 -0.10614536896E+03  0.25558762847E+03  0.28469240246E+03  0.47000000000E+01 0.  1.
<mgrwt>
<rscale>  2 0.20884963E+03</rscale>
<asrwt>0</asrwt>
<pdfrwt beam="1">  1        2 0.30173283E+00 0.20884963E+03</pdfrwt>
<pdfrwt beam="2">  1       -2 0.50700879E-02 0.20884963E+03</pdfrwt>
<totfact> 0.15008020E+03</totfact>
</mgrwt>
</event>
<event>
12    1  0.5759937E-002  0.1891171E+03  0.7546771E-02  0.1159260E+00
         -2   -1    0    0    0  501 -0.00000000000E+00  0.00000000000E+00  0.26182514598E+02  0.26182514598E+02  0.00000000000E+00 0.  1.
          2   -1    0    0  503    0  0.00000000000E+00 -0.00000000000E+00 -0.16517766804E+04  0.16517766804E+04  0.00000000000E+00 0. -1.
          6    2    1    2  503    0 -0.30639806070E+02 -0.69102991006E+02 -0.46333884595E+03  0.50039620207E+03  0.17320349823E+03 0.  0.
         24    2    3    3    0    0  0.31122272085E+01 -0.10798518752E+03 -0.32464576954E+03  0.35237970164E+03  0.84297637966E+02 0.  0.
         -6    2    1    2    0  501  0.30639806070E+02  0.69102991006E+02 -0.11622553198E+04  0.11775629929E+04  0.17350260143E+03 0.  0.
        -24    2    5    5    0    0  0.35434636768E+02  0.11229182668E+03 -0.97048287372E+03  0.98087281263E+03  0.80058719407E+02 0.  0.
          2    1    4    4  502    0  0.18880316949E+02 -0.26352638767E+02 -0.19960760535E+03  0.20222295629E+03  0.00000000000E+00 0. -1.
         -1    1    4    4    0  502 -0.15768089741E+02 -0.81632548750E+02 -0.12503816419E+03  0.15015674535E+03  0.00000000000E+00 0.  1.
          5    1    3    3  503    0 -0.33752033279E+02  0.38882196511E+02 -0.13869307641E+03  0.14801650044E+03  0.47000000000E+01 0. -1.
         13    1    6    6    0    0 -0.20126146226E+02  0.49887531448E+02 -0.26094046511E+03  0.26642776486E+03  0.00000000000E+00 0. -1.
        -14    1    6    6    0    0  0.55560782993E+02  0.62404295236E+02 -0.70954240861E+03  0.71444504778E+03  0.00000000000E+00 0.  1.
         -5    1    5    5    0  501 -0.47948306974E+01 -0.43188835679E+02 -0.19177244611E+03  0.19669018028E+03  0.47000000000E+01 0.  1.
<mgrwt>
<rscale>  2 0.18911712E+03</rscale>
<asrwt>0</asrwt>
<pdfrwt beam="2">  1        2 0.25411947E+00 0.18911712E+03</pdfrwt>
<pdfrwt beam="1">  1       -2 0.40280795E-02 0.18911712E+03</pdfrwt>
<totfact> 0.30776114E+03</totfact>
</mgrwt>
</event>
<event>
12    1  0.5759937E-002  0.2427145E+03  0.7546771E-02  0.1117998E+00
          2   -1    0    0  503    0  0.00000000000E+00  0.00000000000E+00  0.85406224855E+03  0.85406224855E+03  0.00000000000E+00 0. -1.
         -2   -1    0    0    0  501 -0.00000000000E+00 -0.00000000000E+00 -0.83285167276E+02  0.83285167276E+02  0.00000000000E+00 0.  1.
          6    2    1    2  503    0  0.16991036295E+03  0.10689494475E+02  0.18948055004E+03  0.30692473733E+03  0.17121950475E+03 0.  0.
         24    2    3    3    0    0  0.64835535939E+02  0.52633612082E+02  0.43448777858E+02  0.12213459484E+03  0.77814645906E+02 0.  0.
         -6    2    1    2    0  501 -0.16991036295E+03 -0.10689494475E+02  0.58129653123E+03  0.63042267850E+03  0.17476641442E+03 0.  0.
        -24    2    5    5    0    0 -0.37668896663E+02  0.38108230677E+02  0.31003340842E+03  0.32468619853E+03  0.80182480360E+02 0.  0.
          2    1    4    4  502    0  0.21635295549E+02  0.29376115906E+02 -0.20253640820E+02  0.41728313718E+02  0.00000000000E+00 0. -1.
         -1    1    4    4    0  502  0.43200240390E+02  0.23257496176E+02  0.63702418678E+02  0.80406281121E+02  0.00000000000E+00 0.  1.
          5    1    3    3  503    0  0.10507482702E+03 -0.41944117607E+02  0.14603177219E+03  0.18479014249E+03  0.47000000000E+01 0. -1.
         13    1    6    6    0    0 -0.33322696138E+02  0.11422180466E+02  0.28704025697E+03  0.28919366764E+03  0.00000000000E+00 0. -1.
        -14    1    6    6    0    0 -0.43462005247E+01  0.26686050211E+02  0.22993151451E+02  0.35492530883E+02  0.00000000000E+00 0.  1.
         -5    1    5    5    0  501 -0.13224146629E+03 -0.48797725152E+02  0.27126312281E+03  0.30573647997E+03  0.47000000000E+01 0.  1.
<mgrwt>
<rscale>  2 0.24271446E+03</rscale>
<asrwt>0</asrwt>
<pdfrwt beam="1">  1        2 0.13139419E+00 0.24271446E+03</pdfrwt>
<pdfrwt beam="2">  1       -2 0.12813103E-01 0.24271446E+03</pdfrwt>
<totfact> 0.14470734E+03</totfact>
</mgrwt>
</event>
<event>
12    1  0.5759937E-002  0.3024380E+03  0.7546771E-02  0.1084028E+00
          1   -1    0    0  503    0  0.00000000000E+00  0.00000000000E+00  0.17040507904E+03  0.17040507904E+03  0.00000000000E+00 0. -1.
         -1   -1    0    0    0  501 -0.00000000000E+00 -0.00000000000E+00 -0.55178801520E+03  0.55178801520E+03  0.00000000000E+00 0.  1.
          6    2    1    2  503    0 -0.18319949343E+03 -0.16765730918E+03 -0.25046287038E+03  0.39294138944E+03  0.17320582664E+03 0.  0.
         24    2    3    3    0    0 -0.62593923534E+02 -0.48180261550E+02 -0.16573833692E+03  0.20314991184E+03  0.86956043424E+02 0.  0.
         -6    2    1    2    0  501  0.18319949343E+03  0.16765730918E+03 -0.13092006578E+03  0.32925170480E+03  0.17203369953E+03 0.  0.
        -24    2    5    5    0    0  0.45406059757E+02  0.11284859192E+02 -0.39962676021E+02  0.10179904988E+03  0.81098537420E+02 0.  0.
          4    1    4    4  502    0 -0.72604155712E+02 -0.23098649099E+02 -0.15742653796E+03  0.17489432773E+03  0.00000000000E+00 0. -1.
         -3    1    4    4    0  502  0.10010232177E+02 -0.25081612451E+02 -0.83117989576E+01  0.28255584108E+02  0.00000000000E+00 0.  1.
          5    1    3    3  503    0 -0.12060556990E+03 -0.11947704763E+03 -0.84724533459E+02  0.18979147760E+03  0.47000000000E+01 0. -1.
         11    1    6    6    0    0  0.41691024782E+02 -0.93913186882E+01 -0.59402047878E+02  0.73177467203E+02  0.00000000000E+00 0. -1.
        -12    1    6    6    0    0  0.37150349754E+01  0.20676177881E+02  0.19439371858E+02  0.28621582675E+02  0.00000000000E+00 0.  1.
         -5    1    5    5    0  501  0.13779343367E+03  0.15637244999E+03 -0.90957389760E+02  0.22745265492E+03  0.47000000000E+01 0.  1.
<mgrwt>
<rscale>  2 0.30243798E+03</rscale>
<asrwt>0</asrwt>
<pdfrwt beam="1">  1        1 0.26216166E-01 0.30243798E+03</pdfrwt>
<pdfrwt beam="2">  1       -1 0.84890465E-01 0.30243798E+03</pdfrwt>
<totfact> 0.25998367E+02</totfact>
</mgrwt>
</event>
<event>
12    1  0.5759937E-002  0.1730973E+03  0.7546771E-02  0.1174656E+00
          1   -1    0    0  503    0  0.00000000000E+00  0.00000000000E+00  0.54541110020E+02  0.54541110020E+02  0.00000000000E+00 0.  1.
         -1   -1    0    0    0  501 -0.00000000000E+00 -0.00000000000E+00 -0.58216319203E+03  0.58216319203E+03  0.00000000000E+00 0. -1.
          6    2    1    2  503    0  0.60110012103E+01  0.30940644775E+02 -0.18193336607E+03  0.24792763213E+03  0.16545363536E+03 0.  0.
         24    2    3    3    0    0  0.33539871912E+02 -0.35070585027E+02 -0.10815553849E+03  0.14506569056E+03  0.83615579473E+02 0.  0.
         -6    2    1    2    0  501 -0.60110012103E+01 -0.30940644775E+02 -0.34568871595E+03  0.38877666992E+03  0.17508042468E+03 0.  0.
        -24    2    5    5    0    0  0.53190536212E+02 -0.26713428468E+02 -0.12539979021E+03  0.16058378617E+03  0.80741591469E+02 0.  0.
          2    1    4    4  502    0  0.94456931431E+01 -0.45066635337E+02 -0.10966191832E+03  0.11893678602E+03  0.00000000000E+00 0. -1.
         -1    1    4    4    0  502  0.24094178768E+02  0.99960503101E+01  0.15063798303E+01  0.26128904541E+02  0.00000000000E+00 0.  1.
          5    1    3    3  503    0 -0.27528870701E+02  0.66011229802E+02 -0.73777827576E+02  0.10286194157E+03  0.47000000000E+01 0. -1.
         13    1    6    6    0    0  0.28526985972E+01 -0.40473831694E+02 -0.86345368401E+02  0.95403310140E+02  0.00000000000E+00 0. -1.
        -14    1    6    6    0    0  0.50337837615E+02  0.13760403226E+02 -0.39054421806E+02  0.65180476028E+02  0.00000000000E+00 0.  1.
         -5    1    5    5    0  501 -0.59201537422E+02 -0.42272163074E+01 -0.22028892574E+03  0.22819288375E+03  0.47000000000E+01 0.  1.
<mgrwt>
<rscale>  2 0.17309733E+03</rscale>
<asrwt>0</asrwt>
<pdfrwt beam="1">  1        1 0.83909406E-02 0.17309733E+03</pdfrwt>
<pdfrwt beam="2">  1       -1 0.89563562E-01 0.17309733E+03</pdfrwt>
<totfact> 0.10356773E+03</totfact>
</mgrwt>
</event>
<event>
12    1  0.5759937E-002  0.1884316E+03  0.7546771E-02  0.1159884E+00
         -2   -1    0    0    0  501 -0.00000000000E+00  0.00000000000E+00  0.42417196382E+02  0.42417196382E+02  0.00000000000E+00 0.  1.
          2   -1    0    0  503    0  0.00000000000E+00 -0.00000000000E+00 -0.20073328731E+04  0.20073328731E+04  0.00000000000E+00 0. -1.
          6    2    1    2  503    0 -0.69670340369E+02  0.86065245160E+01 -0.20102119944E+03  0.27587252147E+03  0.17540837177E+03 0.  0.
         24    2    3    3    0    0  0.17757080464E+02  0.11724898374E+02 -0.15472008906E+03  0.17678084174E+03  0.82827368064E+02 0.  0.
         -6    2    1    2    0  501  0.69670340369E+02 -0.86065245160E+01 -0.17638944773E+04  0.17738775480E+04  0.17432670414E+03 0.  0.
        -24    2    5    5    0    0  0.30599196802E+02 -0.57895030818E+02 -0.64924734728E+03  0.65744742233E+03  0.80167635254E+02 0.  0.
          2    1    4    4  502    0 -0.20926954424E+01 -0.21037825396E+02 -0.12881196276E+03  0.13053540218E+03  0.00000000000E+00 0. -1.
         -1    1    4    4    0  502  0.19849775906E+02  0.32762723770E+02 -0.25908126302E+02  0.46245439568E+02  0.00000000000E+00 0.  1.
          5    1    3    3  503    0 -0.87427420833E+02 -0.31183738581E+01 -0.46301110383E+02  0.99091679731E+02  0.47000000000E+01 0. -1.
         11    1    6    6    0    0  0.26172455567E+02  0.10953397171E+02 -0.30748164491E+03  0.30878784998E+03  0.00000000000E+00 0. -1.
        -12    1    6    6    0    0  0.44267412349E+01 -0.68848427989E+02 -0.34176570237E+03  0.34865957235E+03  0.00000000000E+00 0.  1.
         -5    1    5    5    0  501  0.39071143568E+02  0.49288506302E+02 -0.11146471300E+04  0.11164301257E+04  0.47000000000E+01 0.  1.
<mgrwt>
<rscale>  2 0.18843161E+03</rscale>
<asrwt>0</asrwt>
<pdfrwt beam="2">  1        2 0.30882041E+00 0.18843161E+03</pdfrwt>
<pdfrwt beam="1">  1       -2 0.65257232E-02 0.18843161E+03</pdfrwt>
<totfact> 0.96863953E+02</totfact>
</mgrwt>
</event>
<event>
12    1  0.5759937E-002  0.1915375E+03  0.7546771E-02  0.1157082E+00
          2   -1    0    0  503    0  0.00000000000E+00  0.00000000000E+00  0.19593158510E+04  0.19593158510E+04  0.00000000000E+00 0.  1.
         -2   -1    0    0    0  501 -0.00000000000E+00 -0.00000000000E+00 -0.18770260191E+02  0.18770260191E+02  0.00000000000E+00 0. -1.
          6    2    1    2  503    0  0.76997918443E+02 -0.36026916065E+01  0.93588105357E+03  0.95579525392E+03  0.17812793759E+03 0.  0.
         24    2    3    3    0    0 -0.13048728295E+02  0.17955127915E+01  0.35188592443E+03  0.36485537537E+03  0.95510459887E+02 0.  0.
         -6    2    1    2    0  501 -0.76997918443E+02  0.36026916065E+01  0.10046645373E+04  0.10222908573E+04  0.17258651641E+03 0.  0.
        -24    2    5    5    0    0 -0.81157658014E+02  0.18831516754E+02  0.37545386839E+03  0.39286462939E+03  0.80223551787E+02 0.  0.
          4    1    4    4  502    0 -0.38962710731E+02  0.26819652749E+02  0.10258212594E+03  0.11296229089E+03  0.00000000000E+00 0. -1.
         -3    1    4    4    0  502  0.25913982436E+02 -0.25024139958E+02  0.24930379849E+03  0.25189308448E+03  0.00000000000E+00 0.  1.
          5    1    3    3  503    0  0.90046646738E+02 -0.53982043981E+01  0.58399512915E+03  0.59093987855E+03  0.47000000000E+01 0. -1.
         11    1    6    6    0    0 -0.61545264455E+02  0.49043431461E+02  0.23315952376E+03  0.24608218397E+03  0.00000000000E+00 0. -1.
        -12    1    6    6    0    0 -0.19612393559E+02 -0.30211914706E+02  0.14229434463E+03  0.14678244542E+03  0.00000000000E+00 0.  1.
         -5    1    5    5    0  501  0.41597395703E+01 -0.15228825148E+02  0.62921066889E+03  0.62942622792E+03  0.47000000000E+01 0.  1.
<mgrwt>
<rscale>  2 0.19153753E+03</rscale>
<asrwt>0</asrwt>
<pdfrwt beam="1">  1        2 0.30143305E+00 0.19153753E+03</pdfrwt>
<pdfrwt beam="2">  1       -2 0.28877339E-02 0.19153753E+03</pdfrwt>
<totfact> 0.34988196E+03</totfact>
</mgrwt>
</event>
<event>
12    1  0.5759937E-002  0.2084213E+03  0.7546771E-02  0.1142822E+00
          2   -1    0    0  503    0  0.00000000000E+00  0.00000000000E+00  0.11302708065E+03  0.11302708065E+03  0.00000000000E+00 0. -1.
         -2   -1    0    0    0  501 -0.00000000000E+00 -0.00000000000E+00 -0.40320207350E+03  0.40320207350E+03  0.00000000000E+00 0.  1.
          6    2    1    2  503    0  0.10597066535E+03 -0.39176039452E+02 -0.87479395244E+02  0.22345514763E+03  0.17179934351E+03 0.  0.
         24    2    3    3    0    0  0.93936584383E+02  0.27348134941E+02 -0.21323024177E+02  0.12875013026E+03  0.80931590315E+02 0.  0.
         -6    2    1    2    0  501 -0.10597066535E+03  0.39176039452E+02 -0.20269559761E+03  0.29277400652E+03  0.17851209938E+03 0.  0.
        -24    2    5    5    0    0 -0.92392257382E+02  0.80631840666E+02 -0.85912678956E+02  0.16802106385E+03  0.76238222293E+02 0.  0.
          4    1    4    4  502    0  0.85346476276E+02  0.51651824255E+02 -0.89580493992E+01  0.10016076383E+03  0.00000000000E+00 0. -1.
         -3    1    4    4    0  502  0.85901081070E+01 -0.24303689314E+02 -0.12364974778E+02  0.28589366429E+02  0.00000000000E+00 0.  1.
          5    1    3    3  503    0  0.12034080963E+02 -0.66524174393E+02 -0.66156371066E+02  0.94705017375E+02  0.47000000000E+01 0. -1.
         13    1    6    6    0    0 -0.66611843293E+02  0.54053706118E+02 -0.13703545887E+02  0.86871905596E+02  0.00000000000E+00 0. -1.
        -14    1    6    6    0    0 -0.25780414090E+02  0.26578134547E+02 -0.72209133069E+02  0.81149158254E+02  0.00000000000E+00 0.  1.
         -5    1    5    5    0  501 -0.13578407963E+02 -0.41455801214E+02 -0.11678291865E+03  0.12475294267E+03  0.47000000000E+01 0.  1.
<mgrwt>
<rscale>  2 0.20842127E+03</rscale>
<asrwt>0</asrwt>
<pdfrwt beam="1">  1        2 0.17388782E-01 0.20842127E+03</pdfrwt>
<pdfrwt beam="2">  1       -2 0.62031087E-01 0.20842127E+03</pdfrwt>
<totfact> 0.80278440E+02</totfact>
</mgrwt>
</event>
<event>
12    1  0.5759937E-002  0.1768312E+03  0.7546771E-02  0.1170906E+00
          2   -1    0    0  503    0  0.00000000000E+00  0.00000000000E+00  0.67085362459E+03  0.67085362459E+03  0.00000000000E+00 0.  1.
         -2   -1    0    0    0  501 -0.00000000000E+00 -0.00000000000E+00 -0.49283421237E+02  0.49283421237E+02  0.00000000000E+00 0. -1.
          6    2    1    2  503    0 -0.13277935172E+02  0.38572333477E+02  0.22923795625E+03  0.29034834468E+03  0.17345890639E+03 0.  0.
         24    2    3    3    0    0  0.34551198832E+02 -0.31853260470E+02  0.12798790433E+03  0.15798122884E+03  0.79804445174E+02 0.  0.
         -6    2    1    2    0  501  0.13277935172E+02 -0.38572333477E+02  0.39233224710E+03  0.42978870114E+03  0.17067397879E+03 0.  0.
        -24    2    5    5    0    0 -0.24661277925E+02 -0.31738302529E+02  0.37790062533E+03  0.38835864470E+03  0.79987847914E+02 0.  0.
          2    1    4    4  502    0  0.52931331529E+02 -0.11773472826E+02  0.44435127791E+02  0.70105785080E+02  0.00000000000E+00 0. -1.
         -1    1    4    4    0  502 -0.18380132697E+02 -0.20079787644E+02  0.83552776537E+02  0.87875443764E+02  0.00000000000E+00 0.  1.
          5    1    3    3  503    0 -0.47829134004E+02  0.70425593947E+02  0.10125005192E+03  0.13236711584E+03  0.47000000000E+01 0. -1.
         13    1    6    6    0    0 -0.27172224562E+02 -0.47391932688E+02  0.14549226612E+03  0.15541018169E+03  0.00000000000E+00 0. -1.
        -14    1    6    6    0    0  0.25109466369E+01  0.15653630159E+02  0.23240835920E+03  0.23294846301E+03  0.00000000000E+00 0.  1.
         -5    1    5    5    0  501  0.37939213097E+02 -0.68340309470E+01  0.14431621775E+02  0.41430056438E+02  0.47000000000E+01 0.  1.
<mgrwt>
<rscale>  2 0.17683115E+03</rscale>
<asrwt>0</asrwt>
<pdfrwt beam="1">  1        2 0.10320824E+00 0.17683115E+03</pdfrwt>
<pdfrwt beam="2">  1       -2 0.75820653E-02 0.17683115E+03</pdfrwt>
<totfact> 0.44592749E+03</totfact>
</mgrwt>
</event>
<event>
12    1  0.5759937E-002  0.1891557E+03  0.7546771E-02  0.1159225E+00
          1   -1    0    0  503    0  0.00000000000E+00  0.00000000000E+00  0.43733127140E+03  0.43733127140E+03  0.00000000000E+00 0. -1.
         -1   -1    0    0    0  501 -0.00000000000E+00 -0.00000000000E+00 -0.13404019037E+03  0.13404019037E+03  0.00000000000E+00 0.  1.
          6    2    1    2  503    0 -0.80923461349E+02  0.14251430931E+02  0.33096499240E+03  0.38224667663E+03  0.17269332854E+03 0.  0.
         24    2    3    3    0    0  0.16284631347E+02 -0.11580927476E+02  0.20874599735E+03  0.22389170583E+03  0.78442956545E+02 0.  0.
         -6    2    1    2    0  501  0.80923461349E+02 -0.14251430931E+02 -0.27673911371E+02  0.18912478514E+03  0.16807923460E+03 0.  0.
        -24    2    5    5    0    0  0.11758955874E+03 -0.32397538231E+02 -0.23072878155E+02  0.14768876923E+03  0.80016935976E+02 0.  0.
          2    1    4    4  502    0  0.39656142402E+02 -0.12785310510E+02  0.18817692381E+03  0.19273460626E+03  0.00000000000E+00 0. -1.
         -1    1    4    4    0  502 -0.23371511055E+02  0.12043830344E+01  0.20569073536E+02  0.31157099570E+02  0.00000000000E+00 0.  1.
          5    1    3    3  503    0 -0.97208092696E+02  0.25832358407E+02  0.12221899505E+03  0.15835497080E+03  0.47000000000E+01 0. -1.
         11    1    6    6    0    0  0.11121387840E+03  0.63154140467E+00 -0.10243117067E+02  0.11168637805E+03  0.00000000000E+00 0. -1.
        -12    1    6    6    0    0  0.63756803325E+01 -0.33029079636E+02 -0.12829761088E+02  0.36002391183E+02  0.00000000000E+00 0.  1.
         -5    1    5    5    0  501 -0.36666097386E+02  0.18146107300E+02 -0.46010332153E+01  0.41436015908E+02  0.47000000000E+01 0.  1.
<mgrwt>
<rscale>  2 0.18915571E+03</rscale>
<asrwt>0</asrwt>
<pdfrwt beam="1">  1        1 0.67281733E-01 0.18915571E+03</pdfrwt>
<pdfrwt beam="2">  1       -1 0.20621568E-01 0.18915571E+03</pdfrwt>
<totfact> 0.10332396E+03</totfact>
</mgrwt>
</event>
<event>
12    1  0.5759937E-002  0.1814650E+03  0.7546771E-02  0.1166393E+00
         -2   -1    0    0    0  501 -0.00000000000E+00  0.00000000000E+00  0.16337414386E+03  0.16337414386E+03  0.00000000000E+00 0. -1.
          2   -1    0    0  503    0  0.00000000000E+00 -0.00000000000E+00 -0.28335687446E+03  0.28335687446E+03  0.00000000000E+00 0.  1.
          6    2    1    2  503    0 -0.42072428555E+02  0.34161183260E+02 -0.18019280878E+03  0.25632166620E+03  0.17405249939E+03 0.  0.
         24    2    3    3    0    0 -0.11916856996E+02  0.44371155114E+02 -0.29812014541E+02  0.10253585640E+03  0.86683532168E+02 0.  0.
         -6    2    1    2    0  501  0.42072428555E+02 -0.34161183260E+02  0.60210078184E+02  0.19040935212E+03  0.17231770708E+03 0.  0.
        -24    2    5    5    0    0  0.24729891129E+02  0.44625757976E+02  0.54851771145E+02  0.10942202491E+03  0.79758616762E+02 0.  0.
          4    1    4    4  502    0  0.47298516765E+01  0.62356648352E+02  0.17698341483E+01  0.62560813642E+02  0.00000000000E+00 0. -1.
         -3    1    4    4    0  502 -0.16646708672E+02 -0.17985493238E+02 -0.31581848689E+02  0.39975042755E+02  0.00000000000E+00 0.  1.
          5    1    3    3  503    0 -0.30155571560E+02 -0.10209971854E+02 -0.15038079424E+03  0.15378580981E+03  0.47000000000E+01 0. -1.
         11    1    6    6    0    0 -0.20078182474E+02  0.17749382928E+02  0.50275116786E+02  0.56971583914E+02  0.00000000000E+00 0. -1.
        -12    1    6    6    0    0  0.44808073603E+02  0.26876375048E+02  0.45766543590E+01  0.52450440998E+02  0.00000000000E+00 0.  1.
         -5    1    5    5    0  501  0.17342537426E+02 -0.78786941236E+02  0.53583070393E+01  0.80987327206E+02  0.47000000000E+01 0.  1.
<mgrwt>
<rscale>  2 0.18146498E+03</rscale>
<asrwt>0</asrwt>
<pdfrwt beam="2">  1        2 0.43593365E-01 0.18146498E+03</pdfrwt>
<pdfrwt beam="1">  1       -2 0.25134484E-01 0.18146498E+03</pdfrwt>
<totfact> 0.16200063E+03</totfact>
</mgrwt>
</event>
<event>
12    1  0.5759937E-002  0.1990976E+03  0.7546771E-02  0.1150503E+00
          1   -1    0    0  503    0  0.00000000000E+00  0.00000000000E+00  0.78546439376E+02  0.78546439376E+02  0.00000000000E+00 0. -1.
         -1   -1    0    0    0  501 -0.00000000000E+00 -0.00000000000E+00 -0.54098895495E+03  0.54098895495E+03  0.00000000000E+00 0.  1.
          6    2    1    2  503    0  0.61338188431E+02 -0.78458032792E+02 -0.15092154151E+03  0.24980830688E+03  0.17236253138E+03 0.  0.
         24    2    3    3    0    0 -0.23966584322E+02 -0.50776318528E+02 -0.12071927983E+03  0.15505891020E+03  0.79482635992E+02 0.  0.
         -6    2    1    2    0  501 -0.61338188431E+02  0.78458032792E+02 -0.31152097406E+03  0.36972708745E+03  0.17243771526E+03 0.  0.
        -24    2    5    5    0    0  0.16629389398E+02  0.47723779500E+02 -0.24380258856E+03  0.26187808535E+03  0.81156230068E+02 0.  0.
          4    1    4    4  502    0 -0.22488236095E+02 -0.13482620467E+02  0.24733133885E+01  0.26336649302E+02  0.00000000000E+00 0. -1.
         -3    1    4    4    0  502 -0.14783482270E+01 -0.37293698061E+02 -0.12319259322E+03  0.12872226090E+03  0.00000000000E+00 0.  1.
          5    1    3    3  503    0  0.85304772752E+02 -0.27681714264E+02 -0.30202261682E+02  0.94749396672E+02  0.47000000000E+01 0. -1.
         11    1    6    6    0    0 -0.19813971712E+02  0.45380347692E+02 -0.80245958044E+02  0.94294131387E+02  0.00000000000E+00 0. -1.
        -12    1    6    6    0    0  0.36443361109E+02  0.23434318075E+01 -0.16355663051E+03  0.16758395396E+03  0.00000000000E+00 0.  1.
         -5    1    5    5    0  501 -0.77967577828E+02  0.30734253292E+02 -0.67718385505E+02  0.10784900210E+03  0.47000000000E+01 0.  1.
<mgrwt>
<rscale>  2 0.19909756E+03</rscale>
<asrwt>0</asrwt>
<pdfrwt beam="1">  1        1 0.12084068E-01 0.19909756E+03</pdfrwt>
<pdfrwt beam="2">  1       -1 0.83229068E-01 0.19909756E+03</pdfrwt>
<totfact> 0.74432024E+02</totfact>
</mgrwt>
</event>
<event>
12    1  0.5759937E-002  0.1938950E+03  0.7546771E-02  0.1154994E+00
          1   -1    0    0  503    0  0.00000000000E+00  0.00000000000E+00  0.17358413670E+03  0.17358413670E+03  0.00000000000E+00 0.  1.
         -1   -1    0    0    0  501 -0.00000000000E+00 -0.00000000000E+00 -0.21959380773E+03  0.21959380773E+03  0.00000000000E+00 0. -1.
          6    2    1    2  503    0 -0.80560474756E+02  0.21407400300E+02 -0.45439463226E+02  0.19612374115E+03  0.17161442289E+03 0.  0.
         24    2    3    3    0    0 -0.76599198501E+02  0.72072803142E+02  0.55490184409E+01  0.12398089662E+03  0.65410587504E+02 0.  0.
         -6    2    1    2    0  501  0.80560474756E+02 -0.21407400300E+02 -0.57020779763E+00  0.19705420328E+03  0.17855466113E+03 0.  0.
        -24    2    5    5    0    0  0.99964664350E+02  0.38351526001E+02  0.59073290279E+01  0.13371621839E+03  0.79883395387E+02 0.  0.
          2    1    4    4  502    0 -0.68483714904E+02  0.23358084534E+02 -0.79235591825E+01  0.72790123714E+02  0.00000000000E+00 0. -1.
         -1    1    4    4    0  502 -0.81154835970E+01  0.48714718607E+02  0.13472577623E+02  0.51190772907E+02  0.00000000000E+00 0.  1.
          5    1    3    3  503    0 -0.39612762558E+01 -0.50665402842E+02 -0.50988481667E+02  0.72142844534E+02  0.47000000000E+01 0. -1.
         13    1    6    6    0    0  0.47898128716E+01  0.37006953939E+02 -0.59824442179E+01  0.37792149793E+02  0.00000000000E+00 0. -1.
        -14    1    6    6    0    0  0.95174851479E+02  0.13445720627E+01  0.11889773246E+02  0.95924068595E+02  0.00000000000E+00 0.  1.
         -5    1    5    5    0  501 -0.19404189594E+02 -0.59758926301E+02 -0.64775368255E+01  0.63337984889E+02  0.47000000000E+01 0.  1.
<mgrwt>
<rscale>  2 0.19389501E+03</rscale>
<asrwt>0</asrwt>
<pdfrwt beam="1">  1        1 0.26705252E-01 0.19389501E+03</pdfrwt>
<pdfrwt beam="2">  1       -1 0.33783663E-01 0.19389501E+03</pdfrwt>
<totfact> 0.14504047E+03</totfact>
</mgrwt>
</event>
<event>
12    1  0.5759937E-002  0.2030760E+03  0.7546771E-02  0.1147169E+00
          2   -1    0    0  503    0  0.00000000000E+00  0.00000000000E+00  0.19583276009E+04  0.19583276009E+04  0.00000000000E+00 0. -1.
         -2   -1    0    0    0  501 -0.00000000000E+00 -0.00000000000E+00 -0.23668171144E+02  0.23668171144E+02  0.00000000000E+00 0.  1.
          6    2    1    2  503    0  0.10385895596E+03  0.18980594371E+02  0.64092192002E+03  0.67251293281E+03  0.17420043493E+03 0.  0.
         24    2    3    3    0    0  0.12882133825E+03  0.21138348687E+02  0.37468917404E+03  0.40506248606E+03  0.81497690105E+02 0.  0.
         -6    2    1    2    0  501 -0.10385895596E+03 -0.18980594371E+02  0.12937375097E+04  0.13094828392E+04  0.17274726183E+03 0.  0.
        -24    2    5    5    0    0 -0.97680605729E+02 -0.45871298552E+02  0.12510781822E+04  0.12584613711E+04  0.82962207369E+02 0.  0.
          2    1    4    4  502    0  0.24769433972E+02 -0.22098312372E+02  0.40363760175E+02  0.52259864183E+02  0.00000000000E+00 0. -1.
         -1    1    4    4    0  502  0.10405190428E+03  0.43236661060E+02  0.33432541387E+03  0.35280262188E+03  0.00000000000E+00 0.  1.
          5    1    3    3  503    0 -0.24962382295E+02 -0.21577543166E+01  0.26623274598E+03  0.26745044675E+03  0.47000000000E+01 0. -1.
         13    1    6    6    0    0 -0.75313636570E+02  0.94065770054E+01  0.64193299537E+03  0.64640436113E+03  0.00000000000E+00 0. -1.
        -14    1    6    6    0    0 -0.22366969159E+02 -0.55277875558E+02  0.60914518685E+03  0.61205701001E+03  0.00000000000E+00 0.  1.
         -5    1    5    5    0  501 -0.61783502302E+01  0.26890704182E+02  0.42659327497E+02  0.51021468084E+02  0.47000000000E+01 0.  1.
<mgrwt>
<rscale>  2 0.20307604E+03</rscale>
<asrwt>0</asrwt>
<pdfrwt beam="1">  1        2 0.30128104E+00 0.20307604E+03</pdfrwt>
<pdfrwt beam="2">  1       -2 0.36412587E-02 0.20307604E+03</pdfrwt>
<totfact> 0.24805980E+03</totfact>
</mgrwt>
</event>
<event>
12    1  0.5759937E-002  0.2114658E+03  0.7546771E-02  0.1140410E+00
         -2   -1    0    0    0  501 -0.00000000000E+00  0.00000000000E+00  0.75408552249E+02  0.75408552249E+02  0.00000000000E+00 0.  1.
          2   -1    0    0  503    0  0.00000000000E+00 -0.00000000000E+00 -0.62090199440E+03  0.62090199440E+03  0.00000000000E+00 0. -1.
          6    2    1    2  503    0 -0.67651702735E+01  0.12109469212E+03 -0.34706819245E+03  0.40664059962E+03  0.17375429510E+03 0.  0.
         24    2    3    3    0    0 -0.70554716132E+02  0.79006953645E+02 -0.24931484094E+03  0.28247018599E+03  0.80071526571E+02 0.  0.
         -6    2    1    2    0  501  0.67651702735E+01 -0.12109469212E+03 -0.19842524970E+03  0.28966994702E+03  0.17270323246E+03 0.  0.
        -24    2    5    5    0    0  0.46009993640E+02 -0.10656419439E+02 -0.86715258649E+02  0.12768852730E+03  0.80958910149E+02 0.  0.
          2    1    4    4  502    0 -0.40585282735E+02  0.88560310384E+02 -0.21429010970E+03  0.23539402045E+03  0.00000000000E+00 0. -1.
         -1    1    4    4    0  502 -0.29969433398E+02 -0.95533567388E+01 -0.35024731237E+02  0.47076165534E+02  0.00000000000E+00 0.  1.
          5    1    3    3  503    0  0.63789545859E+02  0.42087738474E+02 -0.97753351512E+02  0.12417041364E+03  0.47000000000E+01 0. -1.
         13    1    6    6    0    0 -0.62379695212E+01 -0.34070609973E+02 -0.45303002099E+02  0.57027017517E+02  0.00000000000E+00 0. -1.
        -14    1    6    6    0    0  0.52247963161E+02  0.23414190534E+02 -0.41412256550E+02  0.70661509787E+02  0.00000000000E+00 0.  1.
         -5    1    5    5    0  501 -0.39244823366E+02 -0.11043827268E+03 -0.11170999105E+03  0.16198141972E+03  0.47000000000E+01 0.  1.
<mgrwt>
<rscale>  2 0.21146584E+03</rscale>
<asrwt>0</asrwt>
<pdfrwt beam="2">  1        2 0.95523383E-01 0.21146584E+03</pdfrwt>
<pdfrwt beam="1">  1       -2 0.11601316E-01 0.21146584E+03</pdfrwt>
<totfact> 0.25113542E+03</totfact>
</mgrwt>
</event>
<event>
12    1  0.5759937E-002  0.2173853E+03  0.7546771E-02  0.1135848E+00
          3   -1    0    0  503    0  0.00000000000E+00  0.00000000000E+00  0.50364120449E+03  0.50364120449E+03  0.00000000000E+00 0.  1.
         -3   -1    0    0    0  501 -0.00000000000E+00 -0.00000000000E+00 -0.10530039145E+03  0.10530039145E+03  0.00000000000E+00 0. -1.
          6    2    1    2  503    0  0.10200485365E+03  0.82176688884E+02  0.99331957585E+02  0.23972726025E+03  0.17448301678E+03 0.  0.
         24    2    3    3    0    0  0.43506955722E+02  0.46803697794E+02  0.12489938105E+03  0.16659015815E+03  0.89827524086E+02 0.  0.
         -6    2    1    2    0  501 -0.10200485365E+03 -0.82176688884E+02  0.29900885545E+03  0.36921433569E+03  0.17249617873E+03 0.  0.
        -24    2    5    5    0    0 -0.53698427147E+02 -0.11221783765E+03  0.16216303416E+03  0.22094144449E+03  0.83916077596E+02 0.  0.
          4    1    4    4  502    0  0.39367568652E+02  0.39518594496E+02  0.16926477476E+02  0.58292627426E+02  0.00000000000E+00 0. -1.
         -3    1    4    4    0  502  0.41393870694E+01  0.72851032985E+01  0.10797290357E+03  0.10829753073E+03  0.00000000000E+00 0.  1.
          5    1    3    3  503    0  0.58497897928E+02  0.35372991090E+02 -0.25567423465E+02  0.73137102098E+02  0.47000000000E+01 0. -1.
         13    1    6    6    0    0 -0.14191862959E+02  0.11834245156E+02  0.31301144104E+02  0.36348589449E+02  0.00000000000E+00 0. -1.
        -14    1    6    6    0    0 -0.39506564187E+02 -0.12405208280E+03  0.13086189006E+03  0.18459285504E+03  0.00000000000E+00 0.  1.
         -5    1    5    5    0  501 -0.48306426503E+02  0.30041148765E+02  0.13684582129E+03  0.14827289120E+03  0.47000000000E+01 0.  1.
<mgrwt>
<rscale>  2 0.21738530E+03</rscale>
<asrwt>0</asrwt>
<pdfrwt beam="1">  1        3 0.77483260E-01 0.21738530E+03</pdfrwt>
<pdfrwt beam="2">  1       -3 0.16200061E-01 0.21738530E+03</pdfrwt>
<totfact> 0.12797913E+02</totfact>
</mgrwt>
</event>
<event>
12    1  0.5759937E-002  0.2176696E+03  0.7546771E-02  0.1135632E+00
          2   -1    0    0  503    0  0.00000000000E+00  0.00000000000E+00  0.92798459130E+03  0.92798459130E+03  0.00000000000E+00 0. -1.
         -2   -1    0    0    0  501 -0.00000000000E+00 -0.00000000000E+00 -0.51341119957E+02  0.51341119957E+02  0.00000000000E+00 0.  1.
          6    2    1    2  503    0 -0.80482580428E+02  0.10464927711E+03  0.47508751187E+03  0.52264875175E+03  0.17327624425E+03 0.  0.
         24    2    3    3    0    0 -0.67936439446E+02  0.69369879743E+02  0.46748938604E+03  0.48415377743E+03  0.80193603983E+02 0.  0.
         -6    2    1    2    0  501  0.80482580428E+02 -0.10464927711E+03  0.40155595947E+03  0.45667695950E+03  0.17285178565E+03 0.  0.
        -24    2    5    5    0    0  0.59972494275E+02 -0.25398616530E+02  0.33910670475E+03  0.35360741865E+03  0.76177815191E+02 0.  0.
          2    1    4    4  502    0 -0.32664785667E+02  0.80727438498E+02  0.36261106336E+03  0.37292182937E+03  0.00000000000E+00 0. -1.
         -1    1    4    4    0  502 -0.35271653779E+02 -0.11357558756E+02  0.10487832267E+03  0.11123194805E+03  0.00000000000E+00 0.  1.
          5    1    3    3  503    0 -0.12546140981E+02  0.35279397369E+02  0.75981258375E+01  0.38494974328E+02  0.47000000000E+01 0. -1.
         13    1    6    6    0    0 -0.17170400567E+02 -0.91512950863E+01  0.98867384171E+02  0.10076372616E+03  0.00000000000E+00 0. -1.
        -14    1    6    6    0    0  0.77142894842E+02 -0.16247321444E+02  0.24023932057E+03  0.25284369248E+03  0.00000000000E+00 0.  1.
         -5    1    5    5    0  501  0.20510086153E+02 -0.79250660582E+02  0.62449254725E+02  0.10306954086E+03  0.47000000000E+01 0.  1.
<mgrwt>
<rscale>  2 0.21766961E+03</rscale>
<asrwt>0</asrwt>
<pdfrwt beam="1">  1        2 0.14276685E+00 0.21766961E+03</pdfrwt>
<pdfrwt beam="2">  1       -2 0.78986346E-02 0.21766961E+03</pdfrwt>
<totfact> 0.27964981E+03</totfact>
</mgrwt>
</event>
<event>
12    1  0.5759937E-002  0.1984128E+03  0.7546771E-02  0.1151085E+00
          2   -1    0    0  503    0  0.00000000000E+00  0.00000000000E+00  0.36353445900E+03  0.36353445900E+03  0.00000000000E+00 0. -1.
         -2   -1    0    0    0  501 -0.00000000000E+00 -0.00000000000E+00 -0.11802140965E+03  0.11802140965E+03  0.00000000000E+00 0.  1.
          6    2    1    2  503    0  0.79329825419E+02  0.50574438155E+02  0.53537049481E+02  0.20536346874E+03  0.17451917840E+03 0.  0.
         24    2    3    3    0    0  0.11516367925E+03  0.52447671363E+02  0.70137855087E+02  0.16554826021E+03  0.80457917518E+02 0.  0.
         -6    2    1    2    0  501 -0.79329825419E+02 -0.50574438155E+02  0.19197599987E+03  0.27619239992E+03  0.17486126573E+03 0.  0.
        -24    2    5    5    0    0 -0.79753003441E+01 -0.83872969626E+02  0.13980217610E+03  0.18161725343E+03  0.79636033631E+02 0.  0.
          2    1    4    4  502    0  0.89073846551E+02  0.70598878697E+02  0.36752110733E+02  0.11945321032E+03  0.00000000000E+00 0. -1.
         -1    1    4    4    0  502  0.26089832702E+02 -0.18151207334E+02  0.33385744354E+02  0.46095049888E+02  0.00000000000E+00 0.  1.
          5    1    3    3  503    0 -0.35833853835E+02 -0.18732332079E+01 -0.16600805606E+02  0.39815208527E+02  0.47000000000E+01 0. -1.
         13    1    6    6    0    0  0.64983728785E+01 -0.13606321244E+02  0.96815520530E+02  0.97982681344E+02  0.00000000000E+00 0. -1.
        -14    1    6    6    0    0 -0.14473673223E+02 -0.70266648382E+02  0.42986655574E+02  0.83634572091E+02  0.00000000000E+00 0.  1.
         -5    1    5    5    0  501 -0.71354525075E+02  0.33298531471E+02  0.52173823766E+02  0.94575146487E+02  0.47000000000E+01 0.  1.
<mgrwt>
<rscale>  2 0.19841283E+03</rscale>
<asrwt>0</asrwt>
<pdfrwt beam="1">  1        2 0.55928378E-01 0.19841283E+03</pdfrwt>
<pdfrwt beam="2">  1       -2 0.18157140E-01 0.19841283E+03</pdfrwt>
<totfact> 0.21755693E+03</totfact>
</mgrwt>
</event>
<event>
12    1  0.5759937E-002  0.1878798E+03  0.7546771E-02  0.1160388E+00
          2   -1    0    0  503    0  0.00000000000E+00  0.00000000000E+00  0.10709698796E+04  0.10709698796E+04  0.00000000000E+00 0.  1.
         -2   -1    0    0    0  501 -0.00000000000E+00 -0.00000000000E+00 -0.39158980238E+02  0.39158980238E+02  0.00000000000E+00 0. -1.
          6    2    1    2  503    0 -0.77708250815E+02 -0.55365088889E+01  0.29283604923E+03  0.34740472352E+03  0.16990545907E+03 0.  0.
         24    2    3    3    0    0 -0.68552212875E+02  0.10504936904E+02  0.80129887879E+02  0.13384638936E+03  0.81757552698E+02 0.  0.
         -6    2    1    2    0  501  0.77708250815E+02  0.55365088889E+01  0.73897485014E+03  0.76272413633E+03  0.17203213019E+03 0.  0.
        -24    2    5    5    0    0  0.13282607840E+02  0.40483706226E+02  0.19060499534E+03  0.20945787337E+03  0.75676801772E+02 0.  0.
          2    1    4    4  502    0 -0.22459578259E+02 -0.24875683775E+02 -0.16156250514E+01  0.33553577204E+02  0.00000000000E+00 0. -1.
         -1    1    4    4    0  502 -0.46092634615E+02  0.35380620679E+02  0.81745512931E+02  0.10029281215E+03  0.00000000000E+00 0.  1.
          5    1    3    3  503    0 -0.91560379403E+01 -0.16041445793E+02  0.21270616135E+03  0.21355833417E+03  0.47000000000E+01 0. -1.
         13    1    6    6    0    0 -0.10427395487E+02  0.55895321506E+02  0.14556820322E+03  0.15627897917E+03  0.00000000000E+00 0. -1.
        -14    1    6    6    0    0  0.23710003326E+02 -0.15411615281E+02  0.45036792128E+02  0.53178894201E+02  0.00000000000E+00 0.  1.
         -5    1    5    5    0  501  0.64425642975E+02 -0.34947197337E+02  0.54836985480E+03  0.55326626296E+03  0.47000000000E+01 0.  1.
<mgrwt>
<rscale>  2 0.18787978E+03</rscale>
<asrwt>0</asrwt>
<pdfrwt beam="1">  1        2 0.16476458E+00 0.18787978E+03</pdfrwt>
<pdfrwt beam="2">  1       -2 0.60244593E-02 0.18787978E+03</pdfrwt>
<totfact> 0.34675827E+03</totfact>
</mgrwt>
</event>
<event>
12    1  0.5759937E-002  0.2157944E+03  0.7546771E-02  0.1137058E+00
         -1   -1    0    0    0  501 -0.00000000000E+00  0.00000000000E+00  0.15644809019E+03  0.15644809019E+03  0.00000000000E+00 0. -1.
          1   -1    0    0  503    0  0.00000000000E+00 -0.00000000000E+00 -0.49441935728E+03  0.49441935728E+03  0.00000000000E+00 0.  1.
          6    2    1    2  503    0 -0.97566387731E+02 -0.83949041894E+02 -0.37431564259E+03  0.43209521204E+03  0.17328424719E+03 0.  0.
         24    2    3    3    0    0 -0.10050618519E+03 -0.75257381651E+01 -0.16541104713E+03  0.20958142872E+03  0.80033935016E+02 0.  0.
         -6    2    1    2    0  501  0.97566387731E+02  0.83949041894E+02  0.36344375496E+02  0.21877223544E+03  0.17312924570E+03 0.  0.
        -24    2    5    5    0    0  0.93184439165E+02  0.11823824186E+03  0.34330917460E+01  0.17081190489E+03  0.80630634337E+02 0.  0.
          2    1    4    4  502    0 -0.42511192894E+02 -0.39575165519E+02 -0.50645321741E+02  0.77060650538E+02  0.00000000000E+00 0. -1.
         -1    1    4    4    0  502 -0.57994992296E+02  0.32049427354E+02 -0.11476572539E+03  0.13252077818E+03  0.00000000000E+00 0.  1.
          5    1    3    3  503    0  0.29397974593E+01 -0.76423303729E+02 -0.20890459546E+03  0.22251378331E+03  0.47000000000E+01 0. -1.
         13    1    6    6    0    0  0.71621362107E+02  0.10937437687E+03  0.31346351158E+02  0.13444317594E+03  0.00000000000E+00 0. -1.
        -14    1    6    6    0    0  0.21563077058E+02  0.88638649922E+01 -0.27913259412E+02  0.36368728955E+02  0.00000000000E+00 0.  1.
         -5    1    5    5    0  501  0.43819485663E+01 -0.34289199969E+02  0.32911283750E+02  0.47960330543E+02  0.47000000000E+01 0.  1.
<mgrwt>
<rscale>  2 0.21579439E+03</rscale>
<asrwt>0</asrwt>
<pdfrwt beam="2">  1        1 0.76064515E-01 0.21579439E+03</pdfrwt>
<pdfrwt beam="1">  1       -1 0.24068937E-01 0.21579439E+03</pdfrwt>
<totfact> 0.68355741E+02</totfact>
</mgrwt>
</event>
<event>
12    1  0.5759937E-002  0.2432239E+03  0.7546771E-02  0.1117664E+00
         -1   -1    0    0    0  501 -0.00000000000E+00  0.00000000000E+00  0.15465738751E+04  0.15465738751E+04  0.00000000000E+00 0. -1.
          1   -1    0    0  503    0  0.00000000000E+00 -0.00000000000E+00 -0.41082613168E+02  0.41082613168E+02  0.00000000000E+00 0.  1.
          6    2    1    2  503    0 -0.16706126236E+03  0.38467702002E+02  0.96152590778E+03  0.99184289128E+03  0.17271658916E+03 0.  0.
         24    2    3    3    0    0 -0.11342516118E+02  0.21607967514E+02  0.37305880196E+03  0.38286981863E+03  0.82588566809E+02 0.  0.
         -6    2    1    2    0  501  0.16706126236E+03 -0.38467702002E+02  0.54396535419E+03  0.59581359702E+03  0.17235517504E+03 0.  0.
        -24    2    5    5    0    0  0.14620148824E+02  0.21639047502E+01  0.14134224097E+03  0.16335934296E+03  0.80561868234E+02 0.  0.
          4    1    4    4  502    0  0.25002982698E+02 -0.92734974279E+01  0.24084395971E+03  0.24231582662E+03  0.00000000000E+00 0. -1.
         -3    1    4    4    0  502 -0.36345498817E+02  0.30881464942E+02  0.13221484224E+03  0.14055399201E+03  0.00000000000E+00 0.  1.
          5    1    3    3  503    0 -0.15571874624E+03  0.16859734488E+02  0.58846710582E+03  0.60897307265E+03  0.47000000000E+01 0. -1.
         13    1    6    6    0    0  0.37685818641E+02 -0.16031571602E+02  0.12068700759E+03  0.12744640449E+03  0.00000000000E+00 0. -1.
        -14    1    6    6    0    0 -0.23065669818E+02  0.18195476352E+02  0.20655233381E+02  0.35912938474E+02  0.00000000000E+00 0.  1.
         -5    1    5    5    0  501  0.15244111354E+03 -0.40631606753E+02  0.40262311321E+03  0.43245425406E+03  0.47000000000E+01 0.  1.
<mgrwt>
<rscale>  2 0.24322389E+03</rscale>
<asrwt>0</asrwt>
<pdfrwt beam="2">  1        1 0.63204032E-02 0.24322389E+03</pdfrwt>
<pdfrwt beam="1">  1       -1 0.23793440E+00 0.24322389E+03</pdfrwt>
<totfact> 0.11418977E+02</totfact>
</mgrwt>
</event>
<event>
12    1  0.5759937E-002  0.2138169E+03  0.7546771E-02  0.1138579E+00
         -1   -1    0    0    0  501 -0.00000000000E+00  0.00000000000E+00  0.24601548820E+03  0.24601548820E+03  0.00000000000E+00 0.  1.
          1   -1    0    0  503    0  0.00000000000E+00 -0.00000000000E+00 -0.21270689034E+03  0.21270689034E+03  0.00000000000E+00 0. -1.
          6    2    1    2  503    0  0.10500994555E+03  0.56599519357E+02 -0.65015883583E+02  0.22056127706E+03  0.17375159730E+03 0.  0.
         24    2    3    3    0    0  0.11191228986E+03 -0.10666079474E+02 -0.20923912112E+02  0.13970031558E+03  0.80251119636E+02 0.  0.
         -6    2    1    2    0  501 -0.10500994555E+03 -0.56599519357E+02  0.98324481442E+02  0.23816110149E+03  0.18116956796E+03 0.  0.
        -24    2    5    5    0    0 -0.33310789451E+02 -0.10303012101E+03  0.79343004668E+02  0.15053144774E+03  0.68114534719E+02 0.  0.
          4    1    4    4  502    0  0.95775313234E+02 -0.40198311129E+02 -0.21366021855E+02  0.10604396132E+03  0.00000000000E+00 0. -1.
         -3    1    4    4    0  502  0.16136976624E+02  0.29532231655E+02  0.44210974295E+00  0.33656354260E+02  0.00000000000E+00 0.  1.
          5    1    3    3  503    0 -0.69023443047E+01  0.67265598831E+02 -0.44091971471E+02  0.80860961479E+02  0.47000000000E+01 0. -1.
         11    1    6    6    0    0 -0.63977415656E+00 -0.37878719701E+02 -0.59403176298E+01  0.38347021927E+02  0.00000000000E+00 0. -1.
        -12    1    6    6    0    0 -0.32671015294E+02 -0.65151401308E+02  0.85283322298E+02  0.11218442581E+03  0.00000000000E+00 0.  1.
         -5    1    5    5    0  501 -0.71699156103E+02  0.46430601652E+02  0.18981476774E+02  0.87629653748E+02  0.47000000000E+01 0.  1.
<mgrwt>
<rscale>  2 0.21381689E+03</rscale>
<asrwt>0</asrwt>
<pdfrwt beam="2">  1        1 0.32724137E-01 0.21381689E+03</pdfrwt>
<pdfrwt beam="1">  1       -1 0.37848537E-01 0.21381689E+03</pdfrwt>
<totfact> 0.92303312E+02</totfact>
</mgrwt>
</event>
<event>
12    1  0.5759937E-002  0.1826662E+03  0.7546771E-02  0.1165247E+00
         -2   -1    0    0    0  501 -0.00000000000E+00  0.00000000000E+00  0.55400890456E+02  0.55400890456E+02  0.00000000000E+00 0. -1.
          2   -1    0    0  503    0  0.00000000000E+00 -0.00000000000E+00 -0.66748331868E+03  0.66748331868E+03  0.00000000000E+00 0.  1.
          6    2    1    2  503    0 -0.56427900307E+02  0.11379291554E+02 -0.19350463686E+03  0.26629798331E+03  0.17365763795E+03 0.  0.
         24    2    3    3    0    0 -0.55042939955E+01 -0.53548251389E+02 -0.75103562748E+02  0.12190371797E+03  0.79512633198E+02 0.  0.
         -6    2    1    2    0  501  0.56427900307E+02 -0.11379291554E+02 -0.41857779136E+03  0.45658622582E+03  0.17306073495E+03 0.  0.
        -24    2    5    5    0    0  0.78276065504E+02  0.31643078358E+02 -0.18711336071E+03  0.22009914523E+03  0.79396455415E+02 0.  0.
          4    1    4    4  502    0 -0.59865092053E+01 -0.31020706244E+02  0.10571713654E+02  0.33314916147E+02  0.00000000000E+00 0. -1.
         -3    1    4    4    0  502  0.48221520976E+00 -0.22527545145E+02 -0.85675276401E+02  0.88588801822E+02  0.00000000000E+00 0.  1.
          5    1    3    3  503    0 -0.50923606311E+02  0.64927542943E+02 -0.11840107411E+03  0.14439426534E+03  0.47000000000E+01 0. -1.
         13    1    6    6    0    0  0.24471938222E+02  0.52581293517E+02 -0.99650074092E+02  0.11529876606E+03  0.00000000000E+00 0. -1.
        -14    1    6    6    0    0  0.53804127281E+02 -0.20938215159E+02 -0.87463286622E+02  0.10480037917E+03  0.00000000000E+00 0.  1.
         -5    1    5    5    0  501 -0.21848165197E+02 -0.43022369913E+02 -0.23146443064E+03  0.23648708060E+03  0.47000000000E+01 0.  1.
<mgrwt>
<rscale>  2 0.18266618E+03</rscale>
<asrwt>0</asrwt>
<pdfrwt beam="2">  1        2 0.10268974E+00 0.18266618E+03</pdfrwt>
<pdfrwt beam="1">  1       -2 0.85232143E-02 0.18266618E+03</pdfrwt>
<totfact> 0.37439851E+03</totfact>
</mgrwt>
</event>
<event>
12    1  0.5759937E-002  0.1806217E+03  0.7546771E-02  0.1167203E+00
         -1   -1    0    0    0  501 -0.00000000000E+00  0.00000000000E+00  0.18928224840E+02  0.18928224840E+02  0.00000000000E+00 0.  1.
          1   -1    0    0  503    0  0.00000000000E+00 -0.00000000000E+00 -0.20185525337E+04  0.20185525337E+04  0.00000000000E+00 0. -1.
          6    2    1    2  503    0  0.27306889085E+02  0.37470187457E+02 -0.13918506861E+04  0.14035928184E+04  0.17514218897E+03 0.  0.
         24    2    3    3    0    0  0.12646194830E+02  0.88733078342E+02 -0.77451503978E+03  0.78394113387E+03  0.81588412724E+02 0.  0.
         -6    2    1    2    0  501 -0.27306889085E+02 -0.37470187457E+02 -0.60777362276E+03  0.63388794013E+03  0.17399845683E+03 0.  0.
        -24    2    5    5    0    0  0.18061942730E+02 -0.11891265403E+02 -0.54890946830E+03  0.55514982462E+03  0.80137927461E+02 0.  0.
          4    1    4    4  502    0  0.14234584513E+02  0.76112247345E+02 -0.76257084585E+03  0.76649200422E+03  0.00000000000E+00 0. -1.
         -3    1    4    4    0  502 -0.15883896829E+01  0.12620830996E+02 -0.11944193924E+02  0.17449129643E+02  0.00000000000E+00 0.  1.
          5    1    3    3  503    0  0.14660694254E+02 -0.51262890885E+02 -0.61733564635E+03  0.61965168457E+03  0.47000000000E+01 0. -1.
         13    1    6    6    0    0 -0.23882223722E+02  0.15241951617E+02 -0.29607950979E+03  0.29743193140E+03  0.00000000000E+00 0. -1.
        -14    1    6    6    0    0  0.41944166452E+02 -0.27133217020E+02 -0.25282995851E+03  0.25771789322E+03  0.00000000000E+00 0.  1.
         -5    1    5    5    0  501 -0.45368831814E+02 -0.25578922054E+02 -0.58864154460E+02  0.78738115509E+02  0.47000000000E+01 0.  1.
<mgrwt>
<rscale>  2 0.18062169E+03</rscale>
<asrwt>0</asrwt>
<pdfrwt beam="2">  1        1 0.31054652E+00 0.18062169E+03</pdfrwt>
<pdfrwt beam="1">  1       -1 0.29120348E-02 0.18062169E+03</pdfrwt>
<totfact> 0.13020198E+03</totfact>
</mgrwt>
</event>
<event>
12    1  0.5759937E-002  0.1899546E+03  0.7546771E-02  0.1158502E+00
         -2   -1    0    0    0  501 -0.00000000000E+00  0.00000000000E+00  0.20444362716E+02  0.20444362716E+02  0.00000000000E+00 0.  1.
          2   -1    0    0  503    0  0.00000000000E+00 -0.00000000000E+00 -0.21566881140E+04  0.21566881140E+04  0.00000000000E+00 0. -1.
          6    2    1    2  503    0 -0.14038289180E+02 -0.71922927209E+02 -0.15242609857E+04  0.15358459741E+04  0.17343967968E+03 0.  0.
         24    2    3    3    0    0 -0.25677708833E+02 -0.12180538115E+02 -0.35417810379E+03  0.36417167219E+03  0.79819592678E+02 0.  0.
         -6    2    1    2    0  501  0.14038289180E+02  0.71922927209E+02 -0.61198276556E+03  0.64128650263E+03  0.17707482061E+03 0.  0.
        -24    2    5    5    0    0  0.68732684544E+02  0.14553423666E+02 -0.41472274130E+03  0.42864515202E+03  0.82496849216E+02 0.  0.
          4    1    4    4  502    0 -0.45634236107E+02  0.41020336828E+01 -0.30718380568E+03  0.31058203531E+03  0.00000000000E+00 0. -1.
         -3    1    4    4    0  502  0.19956527273E+02 -0.16282571798E+02 -0.46994298115E+02  0.53589636876E+02  0.00000000000E+00 0.  1.
          5    1    3    3  503    0  0.11639419654E+02 -0.59742389094E+02 -0.11700828819E+04  0.11716743019E+04  0.47000000000E+01 0. -1.
         13    1    6    6    0    0  0.49947540177E+02  0.38794330346E+02 -0.15941162182E+03  0.17149875221E+03  0.00000000000E+00 0. -1.
        -14    1    6    6    0    0  0.18785144366E+02 -0.24240906680E+02 -0.25531111948E+03  0.25714639981E+03  0.00000000000E+00 0.  1.
         -5    1    5    5    0  501 -0.54694395364E+02  0.57369503543E+02 -0.19726002426E+03  0.21264135062E+03  0.47000000000E+01 0.  1.
<mgrwt>
<rscale>  2 0.18995464E+03</rscale>
<asrwt>0</asrwt>
<pdfrwt beam="2">  1        2 0.33179796E+00 0.18995464E+03</pdfrwt>
<pdfrwt beam="1">  1       -2 0.31452885E-02 0.18995464E+03</pdfrwt>
<totfact> 0.24331758E+03</totfact>
</mgrwt>
</event>
<event>
12    1  0.5759937E-002  0.1854462E+03  0.7546771E-02  0.1162634E+00
         -1   -1    0    0    0  501 -0.00000000000E+00  0.00000000000E+00  0.28803986640E+02  0.28803986640E+02  0.00000000000E+00 0. -1.
          1   -1    0    0  503    0  0.00000000000E+00 -0.00000000000E+00 -0.12529179963E+04  0.12529179963E+04  0.00000000000E+00 0.  1.
          6    2    1    2  503    0 -0.57163221515E+02  0.35043125763E+02 -0.75313783906E+03  0.77579029413E+03  0.17360392069E+03 0.  0.
         24    2    3    3    0    0 -0.19172802532E+02  0.10789466278E+02 -0.15791406220E+03  0.17884394270E+03  0.81020342279E+02 0.  0.
         -6    2    1    2    0  501  0.57163221515E+02 -0.35043125763E+02 -0.47097617058E+03  0.50593168879E+03  0.17219949452E+03 0.  0.
        -24    2    5    5    0    0 -0.20201769537E+02  0.11904237534E+02 -0.55332443095E+02  0.80524595577E+02  0.53597657320E+02 0.  0.
          2    1    4    4  502    0  0.17391131098E+02  0.51861777867E+00 -0.10311576515E+01  0.17429391595E+02  0.00000000000E+00 0. -1.
         -1    1    4    4    0  502 -0.36563933630E+02  0.10270848499E+02 -0.15688290455E+03  0.16141455111E+03  0.00000000000E+00 0.  1.
          5    1    3    3  503    0 -0.37990418983E+02  0.24253659486E+02 -0.59522377686E+03  0.59694635142E+03  0.47000000000E+01 0. -1.
         11    1    6    6    0    0  0.43067227435E+01  0.36227503292E+01  0.93206322336E+01  0.10887899980E+02  0.00000000000E+00 0. -1.
        -12    1    6    6    0    0 -0.24508492281E+02  0.82814872048E+01 -0.64653075329E+02  0.69636695597E+02  0.00000000000E+00 0.  1.
         -5    1    5    5    0  501  0.77364991053E+02 -0.46947363297E+02 -0.41564372749E+03  0.42540709322E+03  0.47000000000E+01 0.  1.
<mgrwt>
<rscale>  2 0.18544619E+03</rscale>
<asrwt>0</asrwt>
<pdfrwt beam="2">  1        1 0.19275661E+00 0.18544619E+03</pdfrwt>
<pdfrwt beam="1">  1       -1 0.44313826E-02 0.18544619E+03</pdfrwt>
<totfact> 0.22134226E+03</totfact>
</mgrwt>
</event>
<event>
12    1  0.5759937E-002  0.1809408E+03  0.7546771E-02  0.1166896E+00
         -1   -1    0    0    0  501 -0.00000000000E+00  0.00000000000E+00  0.61314125238E+02  0.61314125238E+02  0.00000000000E+00 0.  1.
          1   -1    0    0  503    0  0.00000000000E+00 -0.00000000000E+00 -0.53717353875E+03  0.53717353875E+03  0.00000000000E+00 0. -1.
          6    2    1    2  503    0  0.42429905347E+02 -0.18532381230E+02 -0.20978576499E+03  0.27383753461E+03  0.16980336319E+03 0.  0.
         24    2    3    3    0    0  0.24088791140E+02 -0.74732957008E+02 -0.98764133577E+02  0.14796937411E+03  0.77300044445E+02 0.  0.
         -6    2    1    2    0  501 -0.42429905347E+02  0.18532381230E+02 -0.26607364853E+03  0.32465012938E+03  0.18016318725E+03 0.  0.
        -24    2    5    5    0    0 -0.74566531355E+02  0.26542752017E+02 -0.26455952155E+03  0.29116414198E+03  0.92304560299E+02 0.  0.
          4    1    4    4  502    0  0.47234618542E+02 -0.31039734747E+02 -0.72665791048E+02  0.92059173962E+02  0.00000000000E+00 0. -1.
         -3    1    4    4    0  502 -0.23145827402E+02 -0.43693222261E+02 -0.26098342528E+02  0.55910200146E+02  0.00000000000E+00 0.  1.
          5    1    3    3  503    0  0.18341114207E+02  0.56200575778E+02 -0.11102163141E+03  0.12586816050E+03  0.47000000000E+01 0. -1.
         11    1    6    6    0    0 -0.68813183486E+02 -0.27654770076E+01 -0.86257259340E+02  0.11037761038E+03  0.00000000000E+00 0. -1.
        -12    1    6    6    0    0 -0.57533478689E+01  0.29308229024E+02 -0.17830226221E+03  0.18078653160E+03  0.00000000000E+00 0.  1.
         -5    1    5    5    0  501  0.32136626008E+02 -0.80103707862E+01 -0.15141269808E+01  0.33485987395E+02  0.47000000000E+01 0.  1.
<mgrwt>
<rscale>  2 0.18094081E+03</rscale>
<asrwt>0</asrwt>
<pdfrwt beam="2">  1        1 0.82642082E-01 0.18094081E+03</pdfrwt>
<pdfrwt beam="1">  1       -1 0.94329424E-02 0.18094081E+03</pdfrwt>
<totfact> 0.26979417E+03</totfact>
</mgrwt>
</event>
<event>
12    1  0.5759937E-002  0.2514803E+03  0.7546771E-02  0.1112373E+00
          1   -1    0    0  503    0  0.00000000000E+00  0.00000000000E+00  0.26609491068E+03  0.26609491068E+03  0.00000000000E+00 0.  1.
         -1   -1    0    0    0  501 -0.00000000000E+00 -0.00000000000E+00 -0.24229296664E+03  0.24229296664E+03  0.00000000000E+00 0. -1.
          6    2    1    2  503    0  0.42826480376E+02 -0.17631202018E+03  0.47033904249E+02  0.25619818954E+03  0.17465763165E+03 0.  0.
         24    2    3    3    0    0  0.87024863853E+02 -0.12514347627E+03 -0.25476451358E+01  0.17222118657E+03  0.80121345638E+02 0.  0.
         -6    2    1    2    0  501 -0.42826480376E+02  0.17631202018E+03 -0.23231960215E+02  0.25218968778E+03  0.17360840637E+03 0.  0.
        -24    2    5    5    0    0  0.56634066024E+01  0.17297968968E+03  0.14126397299E+02  0.19070708502E+03  0.78839012935E+02 0.  0.
          4    1    4    4  502    0  0.50423745182E+02 -0.89295572631E+02 -0.38602799743E+02  0.10957385417E+03  0.00000000000E+00 0. -1.
         -3    1    4    4    0  502  0.36601118671E+02 -0.35847903635E+02  0.36055154607E+02  0.62647332399E+02  0.00000000000E+00 0.  1.
          5    1    3    3  503    0 -0.44198383478E+02 -0.51168543918E+02  0.49581549384E+02  0.83977002971E+02  0.47000000000E+01 0. -1.
         13    1    6    6    0    0 -0.39957241282E+00  0.81715483685E+01 -0.20605168358E+02  0.22169953178E+02  0.00000000000E+00 0. -1.
        -14    1    6    6    0    0  0.60629790152E+01  0.16480814131E+03  0.34731565657E+02  0.16853713184E+03  0.00000000000E+00 0.  1.
         -5    1    5    5    0  501 -0.48489886978E+02  0.33323305040E+01 -0.37358357513E+02  0.61482602758E+02  0.47000000000E+01 0.  1.
<mgrwt>
<rscale>  2 0.25148033E+03</rscale>
<asrwt>0</asrwt>
<pdfrwt beam="1">  1        1 0.40937679E-01 0.25148033E+03</pdfrwt>
<pdfrwt beam="2">  1       -1 0.37275841E-01 0.25148033E+03</pdfrwt>
<totfact> 0.71613874E+02</totfact>
</mgrwt>
</event>
<event>
12    1  0.5759937E-002  0.1751445E+03  0.7546771E-02  0.1172587E+00
         -2   -1    0    0    0  501 -0.00000000000E+00  0.00000000000E+00  0.63778013214E+02  0.63778013214E+02  0.00000000000E+00 0.  1.
          2   -1    0    0  503    0  0.00000000000E+00 -0.00000000000E+00 -0.48099769939E+03  0.48099769939E+03  0.00000000000E+00 0. -1.
          6    2    1    2  503    0  0.13185977706E+02  0.28795489580E+02 -0.21009930747E+03  0.27333706545E+03  0.17195459319E+03 0.  0.
         24    2    3    3    0    0  0.14868693809E+02 -0.49568480940E+02 -0.11652779612E+03  0.15118363264E+03  0.81238237004E+02 0.  0.
         -6    2    1    2    0  501 -0.13185977706E+02 -0.28795489580E+02 -0.20712037870E+03  0.27143864716E+03  0.17256024359E+03 0.  0.
        -24    2    5    5    0    0 -0.62227950994E+02 -0.27725322383E+02 -0.19296070939E+03  0.22016636774E+03  0.81230429816E+02 0.  0.
          2    1    4    4  502    0  0.16548107447E+02 -0.32408267753E+02 -0.12624988646E+03  0.13138938127E+03  0.00000000000E+00 0. -1.
         -1    1    4    4    0  502 -0.16794136382E+01 -0.17160213188E+02  0.97220903405E+01  0.19794251373E+02  0.00000000000E+00 0.  1.
          5    1    3    3  503    0 -0.16827161023E+01  0.78363970521E+02 -0.93571511354E+02  0.12215343281E+03  0.47000000000E+01 0. -1.
         13    1    6    6    0    0 -0.70503462352E+02  0.61146929505E+01 -0.13815999265E+03  0.15522986582E+03  0.00000000000E+00 0. -1.
        -14    1    6    6    0    0  0.82755113579E+01 -0.33840015333E+02 -0.54800716742E+02  0.64936501919E+02  0.00000000000E+00 0.  1.
         -5    1    5    5    0  501  0.49041973288E+02 -0.10701671973E+01 -0.14159669311E+02  0.51272279419E+02  0.47000000000E+01 0.  1.
<mgrwt>
<rscale>  2 0.17514446E+03</rscale>
<asrwt>0</asrwt>
<pdfrwt beam="2">  1        2 0.73999644E-01 0.17514446E+03</pdfrwt>
<pdfrwt beam="1">  1       -2 0.98120023E-02 0.17514446E+03</pdfrwt>
<totfact> 0.43502855E+03</totfact>
</mgrwt>
</event>
<event>
12    1  0.5759937E-002  0.2015622E+03  0.7546771E-02  0.1148428E+00
          1   -1    0    0  503    0  0.00000000000E+00  0.00000000000E+00  0.12030075829E+03  0.12030075829E+03  0.00000000000E+00 0. -1.
         -1   -1    0    0    0  501 -0.00000000000E+00 -0.00000000000E+00 -0.35301147006E+03  0.35301147006E+03  0.00000000000E+00 0.  1.
          6    2    1    2  503    0 -0.11010028787E+01  0.10257329226E+03 -0.66929927258E+02  0.21210350486E+03  0.17316405262E+03 0.  0.
         24    2    3    3    0    0 -0.39863117359E+01  0.97705861723E+02  0.13894459262E+02  0.13094508975E+03  0.85972288763E+02 0.  0.
         -6    2    1    2    0  501  0.11010028787E+01 -0.10257329226E+03 -0.16578078452E+03  0.26120872349E+03  0.17385118987E+03 0.  0.
        -24    2    5    5    0    0  0.57466088370E+02 -0.49524641763E+02 -0.12977732600E+03  0.17571298554E+03  0.90982731825E+02 0.  0.
          4    1    4    4  502    0  0.37796642698E+02  0.71526435999E+02  0.86923393136E+01  0.81364451751E+02  0.00000000000E+00 0. -1.
         -3    1    4    4    0  502 -0.41782954434E+02  0.26179425724E+02  0.52021199481E+01  0.49580637999E+02  0.00000000000E+00 0.  1.
          5    1    3    3  503    0  0.28853088572E+01  0.48674305326E+01 -0.80824386519E+02  0.81158415112E+02  0.47000000000E+01 0. -1.
         11    1    6    6    0    0 -0.24727107638E+02 -0.60376838072E+01 -0.26621731565E+02  0.36832052202E+02  0.00000000000E+00 0. -1.
        -12    1    6    6    0    0  0.82193196008E+02 -0.43486957955E+02 -0.10315559443E+03  0.13888093334E+03  0.00000000000E+00 0.  1.
         -5    1    5    5    0  501 -0.56365085491E+02 -0.53048650493E+02 -0.36003458519E+02  0.85495737946E+02  0.47000000000E+01 0.  1.
<mgrwt>
<rscale>  2 0.20156222E+03</rscale>
<asrwt>0</asrwt>
<pdfrwt beam="1">  1        1 0.18507809E-01 0.20156222E+03</pdfrwt>
<pdfrwt beam="2">  1       -1 0.54309457E-01 0.20156222E+03</pdfrwt>
<totfact> 0.98993060E+02</totfact>
</mgrwt>
</event>
<event>
12    1  0.5759937E-002  0.2240678E+03  0.7546771E-02  0.1130886E+00
         -1   -1    0    0    0  501 -0.00000000000E+00  0.00000000000E+00  0.41347065379E+03  0.41347065379E+03  0.00000000000E+00 0.  1.
          1   -1    0    0  503    0  0.00000000000E+00 -0.00000000000E+00 -0.14939001850E+03  0.14939001850E+03  0.00000000000E+00 0. -1.
          6    2    1    2  503    0  0.11257634342E+03  0.78439987980E+02  0.25548307476E+03  0.34228550279E+03  0.18182821321E+03 0.  0.
         24    2    3    3    0    0  0.13222788669E+03  0.10190365064E+03  0.24881783244E+03  0.31061150598E+03  0.81857350768E+02 0.  0.
         -6    2    1    2    0  501 -0.11257634342E+03 -0.78439987980E+02  0.85975605225E+01  0.22057516950E+03  0.17249122453E+03 0.  0.
        -24    2    5    5    0    0 -0.11291796781E+03 -0.78560841085E+02 -0.45796420207E+02  0.16597730826E+03  0.80801494705E+02 0.  0.
          2    1    4    4  502    0  0.79753778436E+02  0.94343099328E+02  0.21427247330E+03  0.24733373886E+03  0.00000000000E+00 0. -1.
         -1    1    4    4    0  502  0.52474108257E+02  0.75605513112E+01  0.34545359143E+02  0.63277767121E+02  0.00000000000E+00 0.  1.
          5    1    3    3  503    0 -0.19651543277E+02 -0.23463662660E+02  0.66652423191E+01  0.31673996807E+02  0.47000000000E+01 0. -1.
         11    1    6    6    0    0 -0.15868553879E+02 -0.48359908493E+02  0.71116554583E+01  0.51391316338E+02  0.00000000000E+00 0. -1.
        -12    1    6    6    0    0 -0.97049413927E+02 -0.30200932592E+02 -0.52908075665E+02  0.11458599192E+03  0.00000000000E+00 0.  1.
         -5    1    5    5    0  501  0.34162438972E+00  0.12085310475E+00  0.54393980730E+02  0.54597861243E+02  0.47000000000E+01 0.  1.
<mgrwt>
<rscale>  2 0.22406781E+03</rscale>
<asrwt>0</asrwt>
<pdfrwt beam="2">  1        1 0.22983080E-01 0.22406781E+03</pdfrwt>
<pdfrwt beam="1">  1       -1 0.63610870E-01 0.22406781E+03</pdfrwt>
<totfact> 0.55452586E+02</totfact>
</mgrwt>
</event>
<event>
12    1  0.5759937E-002  0.2854478E+03  0.7546771E-02  0.1092750E+00
          1   -1    0    0  503    0  0.00000000000E+00  0.00000000000E+00  0.34336075956E+04  0.34336075956E+04  0.00000000000E+00 0. -1.
         -1   -1    0    0    0  501 -0.00000000000E+00 -0.00000000000E+00 -0.42007585900E+02  0.42007585900E+02  0.00000000000E+00 0.  1.
          6    2    1    2  503    0  0.14379920121E+03 -0.17500863897E+03  0.54567486362E+03  0.61529551968E+03  0.17181759447E+03 0.  0.
         24    2    3    3    0    0  0.45223036242E+02 -0.25470900823E+02  0.11474296164E+03  0.14860162688E+03  0.78883499358E+02 0.  0.
         -6    2    1    2    0  501 -0.14379920121E+03  0.17500863897E+03  0.28459251461E+04  0.28603196618E+04  0.17559156220E+03 0.  0.
        -24    2    5    5    0    0 -0.10102398032E+03  0.14432040649E+03  0.26625446099E+04  0.26694741793E+04  0.76904941957E+02 0.  0.
          4    1    4    4  502    0 -0.14433986509E+02  0.15214014829E+02  0.36757008767E+02  0.42318836317E+02  0.00000000000E+00 0. -1.
         -3    1    4    4    0  502  0.59657022751E+02 -0.40684915652E+02  0.77985952874E+02  0.10628279057E+03  0.00000000000E+00 0.  1.
          5    1    3    3  503    0  0.98576164967E+02 -0.14953773814E+03  0.43093190198E+03  0.46669389279E+03  0.47000000000E+01 0. -1.
         13    1    6    6    0    0 -0.10817242013E+03  0.14003104843E+03  0.22862471605E+04  0.22930843957E+04  0.00000000000E+00 0. -1.
        -14    1    6    6    0    0  0.71484398116E+01  0.42893580619E+01  0.37629744942E+03  0.37638978363E+03  0.00000000000E+00 0.  1.
         -5    1    5    5    0  501 -0.42775220890E+02  0.30688232475E+02  0.18338053615E+03  0.19084548246E+03  0.47000000000E+01 0.  1.
<mgrwt>
<rscale>  2 0.28544779E+03</rscale>
<asrwt>0</asrwt>
<pdfrwt beam="1">  1        1 0.52824710E+00 0.28544779E+03</pdfrwt>
<pdfrwt beam="2">  1       -1 0.64627082E-02 0.28544779E+03</pdfrwt>
<totfact> 0.41780347E+01</totfact>
</mgrwt>
</event>
