<event>
12    1  0.1473662E-001  0.2054266E+03  0.7546771E-02  0.1145615E+00
         21   -1    0    0  504  503  0.00000000000E+00  0.00000000000E+00  0.18142263427E+03  0.18142263427E+03  0.00000000000E+00 0.  1.
         21   -1    0    0  502  504 -0.00000000000E+00 -0.00000000000E+00 -0.28755139643E+03  0.28755139643E+03  0.00000000000E+00 0.  1.
          6    2    1    2  502    0  0.10394779046E+03 -0.29686089657E+02 -0.15728609024E+03  0.25727342381E+03  0.17252331250E+03 0.  0.
         24    2    3    3    0    0  0.10379889483E+01 -0.40618583897E+02 -0.33815128865E+02  0.96099247900E+02  0.80253696039E+02 0.  0.
         -6    2    1    2    0  503 -0.10394779046E+03  0.29686089657E+02  0.51157328081E+02  0.21170060688E+03  0.17468161803E+03 0.  0.
        -24    2    5    5    0    0 -0.61411124452E+02  0.43510318933E+02 -0.34341717467E+02  0.11509494421E+03  0.80018863805E+02 0.  0.
          2    1    4    4  501    0  0.27149194010E+02 -0.53524522456E+02 -0.16617067679E+02  0.62274233659E+02  0.00000000000E+00 0. -1.
         -1    1    4    4    0  501 -0.26111205061E+02  0.12905938560E+02 -0.17198061186E+02  0.33825014241E+02  0.00000000000E+00 0.  1.
          5    1    3    3  502    0  0.10290980152E+03  0.10932494240E+02 -0.12347096137E+03  0.16117417591E+03  0.47000000000E+01 0. -1.
         11    1    6    6    0    0 -0.21752588611E+02 -0.18130654836E+02 -0.30615204443E+02  0.41703554994E+02  0.00000000000E+00 0. -1.
        -12    1    6    6    0    0 -0.39658535840E+02  0.61640973769E+02 -0.37265130242E+01  0.73391389219E+02  0.00000000000E+00 0.  1.
         -5    1    5    5    0  503 -0.42536666013E+02 -0.13824229276E+02  0.85499045548E+02  0.96605662672E+02  0.47000000000E+01 0.  1.
<mgrwt>
<rscale>  2 0.20496700E+03</rscale>
<asrwt>0</asrwt>
<pdfrwt beam="1">  1       21 0.27911175E-01 0.20542657E+03</pdfrwt>
<pdfrwt beam="2">  1       21 0.44238676E-01 0.20542657E+03</pdfrwt>
<totfact> 0.59802100E+04</totfact>
</mgrwt>
</event>
<event>
12    1  0.1473662E-001  0.1777239E+03  0.7546771E-02  0.1170133E+00
         21   -1    0    0  504  503  0.00000000000E+00  0.00000000000E+00  0.13388189623E+04  0.13388189623E+04  0.00000000000E+00 0.  1.
         21   -1    0    0  502  504 -0.00000000000E+00 -0.00000000000E+00 -0.62377098846E+02  0.62377098846E+02  0.00000000000E+00 0.  1.
          6    2    1    2  502    0 -0.35373140813E+02  0.77011226382E+01  0.85061183227E+02  0.19663236326E+03  0.17354629068E+03 0.  0.
         24    2    3    3    0    0  0.23634479479E+02  0.10162137569E+02  0.10126069394E+03  0.13521192696E+03  0.85829362090E+02 0.  0.
         -6    2    1    2    0  503  0.35373140813E+02 -0.77011226382E+01  0.11913806802E+04  0.12045636978E+04  0.17399773180E+03 0.  0.
        -24    2    5    5    0    0  0.11586894083E+02  0.58023015129E+02  0.88001137077E+03  0.88541109381E+03  0.77665088405E+02 0.  0.
          2    1    4    4  501    0 -0.30916762721E+01 -0.34112935955E+02  0.59853193531E+02  0.68961261861E+02  0.00000000000E+00 0. -1.
         -1    1    4    4    0  501  0.26726155751E+02  0.44275073524E+02  0.41407500406E+02  0.66250665104E+02  0.00000000000E+00 0.  1.
          5    1    3    3  502    0 -0.59007620292E+02 -0.24610149304E+01 -0.16199510710E+02  0.61420436292E+02  0.47000000000E+01 0. -1.
         13    1    6    6    0    0 -0.25036362502E+02  0.77204186784E+01  0.11849295360E+03  0.12135486956E+03  0.00000000000E+00 0. -1.
        -14    1    6    6    0    0  0.36623256585E+02  0.50302596451E+02  0.76151841716E+03  0.76405622425E+03  0.00000000000E+00 0.  1.
         -5    1    5    5    0  503  0.23786246730E+02 -0.65724137767E+02  0.31136930941E+03  0.31915260404E+03  0.47000000000E+01 0.  1.
<mgrwt>
<rscale>  2 0.17761329E+03</rscale>
<asrwt>0</asrwt>
<pdfrwt beam="1">  1       21 0.20597213E+00 0.17772388E+03</pdfrwt>
<pdfrwt beam="2">  1       21 0.95964777E-02 0.17772388E+03</pdfrwt>
<totfact> 0.10873774E+04</totfact>
</mgrwt>
</event>
<event>
12    1  0.1473662E-001  0.1771494E+03  0.7546771E-02  0.1172425E+00
         21   -1    0    0  504  503  0.00000000000E+00  0.00000000000E+00  0.15278687982E+03  0.15278687982E+03  0.00000000000E+00 0. -1.
         21   -1    0    0  502  504 -0.00000000000E+00 -0.00000000000E+00 -0.22798536624E+03  0.22798536624E+03  0.00000000000E+00 0.  1.
          6    2    1    2  502    0  0.35171945573E+02  0.12646541421E+02 -0.10837714044E+03  0.20767161554E+03  0.17316146964E+03 0.  0.
         24    2    3    3    0    0 -0.28342311436E+02 -0.21404436107E+02 -0.10310356642E+03  0.13526007988E+03  0.80021917618E+02 0.  0.
         -6    2    1    2    0  503 -0.35171945573E+02 -0.12646541421E+02  0.33178654019E+02  0.17310063052E+03  0.16572870735E+03 0.  0.
        -24    2    5    5    0    0 -0.23594492218E+02 -0.64741115746E+02 -0.60736528325E+01  0.10668741125E+03  0.81223163754E+02 0.  0.
          2    1    4    4  501    0 -0.45414383844E+01 -0.32318340896E+02 -0.10406105385E+03  0.10905871240E+03  0.00000000000E+00 0. -1.
         -1    1    4    4    0  501 -0.23800873051E+02  0.10913904789E+02  0.95748743809E+00  0.26201367482E+02  0.00000000000E+00 0.  1.
          5    1    3    3  502    0  0.63514257009E+02  0.34050977528E+02 -0.52735740205E+01  0.72411535662E+02  0.47000000000E+01 0. -1.
         11    1    6    6    0    0  0.73037499834E+01 -0.37457899600E+02  0.32580409235E+02  0.50178900667E+02  0.00000000000E+00 0. -1.
        -12    1    6    6    0    0 -0.30898242201E+02 -0.27283216146E+02 -0.38654062067E+02  0.56508510586E+02  0.00000000000E+00 0.  1.
         -5    1    5    5    0  503 -0.11577453356E+02  0.52094574325E+02  0.39252306851E+02  0.66413219267E+02  0.47000000000E+01 0.  1.
<mgrwt>
<rscale>  2 0.17530624E+03</rscale>
<asrwt>0</asrwt>
<pdfrwt beam="1">  1       21 0.23505674E-01 0.17714936E+03</pdfrwt>
<pdfrwt beam="2">  1       21 0.35074671E-01 0.17714936E+03</pdfrwt>
<totfact> 0.13416497E+05</totfact>
</mgrwt>
</event>
<event>
12    1  0.1473662E-001  0.2634700E+03  0.7546771E-02  0.1105769E+00
         21   -1    0    0  504  503  0.00000000000E+00  0.00000000000E+00  0.26715183732E+03  0.26715183732E+03  0.00000000000E+00 0. -1.
         21   -1    0    0  502  504 -0.00000000000E+00 -0.00000000000E+00 -0.43960928751E+03  0.43960928751E+03  0.00000000000E+00 0. -1.
          6    2    1    2  502    0  0.18277456451E+01  0.19257299559E+03 -0.31460818062E+03  0.40738962422E+03  0.17291703017E+03 0.  0.
         24    2    3    3    0    0 -0.54723740918E+02  0.57774265695E+02 -0.14227401217E+03  0.18135882138E+03  0.79476876877E+02 0.  0.
         -6    2    1    2    0  503 -0.18277456451E+01 -0.19257299559E+03  0.14215073044E+03  0.29937150062E+03  0.17980201872E+03 0.  0.
        -24    2    5    5    0    0 -0.19836133965E+02 -0.12919134177E+03  0.16876514717E+03  0.22815385345E+03  0.80552038744E+02 0.  0.
          2    1    4    4  501    0  0.19831827395E+02  0.16463250710E+02 -0.21662432553E+02  0.33668991459E+02  0.00000000000E+00 0. -1.
         -1    1    4    4    0  501 -0.74555568313E+02  0.41311014986E+02 -0.12061157961E+03  0.14768982992E+03  0.00000000000E+00 0.  1.
          5    1    3    3  502    0  0.56551486563E+02  0.13479872989E+03 -0.17233416846E+03  0.22603080284E+03  0.47000000000E+01 0. -1.
         13    1    6    6    0    0  0.52018870098E+00 -0.12887237154E+03  0.12338367009E+03  0.17841493432E+03  0.00000000000E+00 0. -1.
        -14    1    6    6    0    0 -0.20356322666E+02 -0.31897023198E+00  0.45381477084E+02  0.49738919136E+02  0.00000000000E+00 0.  1.
         -5    1    5    5    0  503  0.18008388320E+02 -0.63381653814E+02 -0.26614416732E+02  0.71217647167E+02  0.47000000000E+01 0.  1.
<mgrwt>
<rscale>  2 0.26229986E+03</rscale>
<asrwt>0</asrwt>
<pdfrwt beam="1">  1       21 0.41100283E-01 0.26347005E+03</pdfrwt>
<pdfrwt beam="2">  1       21 0.67632197E-01 0.26347005E+03</pdfrwt>
<totfact> 0.10923079E+04</totfact>
</mgrwt>
</event>
<event>
12    1  0.1473662E-001  0.1908315E+03  0.7546771E-02  0.1157784E+00
         21   -1    0    0  504  503  0.00000000000E+00  0.00000000000E+00  0.65823254409E+03  0.65823254409E+03  0.00000000000E+00 0.  1.
         21   -1    0    0  502  504 -0.00000000000E+00 -0.00000000000E+00 -0.58864075023E+02  0.58864075023E+02  0.00000000000E+00 0.  1.
          6    2    1    2  502    0 -0.79888278121E+02 -0.33801155794E+01  0.21040398701E+03  0.28384145987E+03  0.17292360865E+03 0.  0.
         24    2    3    3    0    0  0.18156240428E+02 -0.30092902196E+02  0.85292164924E+02  0.12259209208E+03  0.80739307742E+02 0.  0.
         -6    2    1    2    0  503  0.79888278121E+02  0.33801155794E+01  0.38896448206E+03  0.43325515924E+03  0.17327175923E+03 0.  0.
        -24    2    5    5    0    0  0.27671945021E+02 -0.56395373967E+02  0.28382634496E+03  0.30143796589E+03  0.79757623063E+02 0.  0.
          2    1    4    4  501    0  0.24098614818E+02 -0.32072794294E+02  0.99381531475E+02  0.10717320639E+03  0.00000000000E+00 0. -1.
         -1    1    4    4    0  501 -0.59423743897E+01  0.19798920982E+01 -0.14089366551E+02  0.15418885690E+02  0.00000000000E+00 0.  1.
          5    1    3    3  502    0 -0.98044518549E+02  0.26712786617E+02  0.12511182209E+03  0.16124936779E+03  0.47000000000E+01 0. -1.
         13    1    6    6    0    0 -0.14790304730E+02 -0.56080652288E+02  0.14189321111E+03  0.15328886468E+03  0.00000000000E+00 0. -1.
        -14    1    6    6    0    0  0.42462249751E+02 -0.31472167929E+00  0.14193313385E+03  0.14814910121E+03  0.00000000000E+00 0.  1.
         -5    1    5    5    0  503  0.52216333100E+02  0.59775489547E+02  0.10513813709E+03  0.13181719336E+03  0.47000000000E+01 0.  1.
<mgrwt>
<rscale>  2 0.19075244E+03</rscale>
<asrwt>0</asrwt>
<pdfrwt beam="1">  1       21 0.10126654E+00 0.19083151E+03</pdfrwt>
<pdfrwt beam="2">  1       21 0.90560120E-02 0.19083151E+03</pdfrwt>
<totfact> 0.77048472E+04</totfact>
</mgrwt>
</event>
<event>
12    1  0.1473662E-001  0.2113320E+03  0.7546771E-02  0.1140861E+00
         21   -1    0    0  504  503  0.00000000000E+00  0.00000000000E+00  0.10738327469E+04  0.10738327469E+04  0.00000000000E+00 0.  1.
         21   -1    0    0  502  504 -0.00000000000E+00 -0.00000000000E+00 -0.96290697077E+02  0.96290697077E+02  0.00000000000E+00 0.  1.
          6    2    1    2  502    0 -0.68665473956E+02 -0.99494304513E+02  0.45549185763E+02  0.21447082901E+03  0.17119855206E+03 0.  0.
         24    2    3    3    0    0 -0.16123067343E+02 -0.10266205559E+03  0.77371157321E+02  0.15278236159E+03  0.80973471386E+02 0.  0.
         -6    2    1    2    0  503  0.68665473956E+02  0.99494304513E+02  0.93199286408E+03  0.95565261499E+03  0.17334116041E+03 0.  0.
        -24    2    5    5    0    0  0.10766803365E+02  0.12054663544E+03  0.74250875254E+03  0.75634939068E+03  0.78088013242E+02 0.  0.
          4    1    4    4  501    0 -0.69777126631E+01 -0.32327284324E+02  0.74827264486E+02  0.81809909523E+02  0.00000000000E+00 0. -1.
         -3    1    4    4    0  501 -0.91453546799E+01 -0.70334771264E+02  0.25438928356E+01  0.70972452062E+02  0.00000000000E+00 0.  1.
          5    1    3    3  502    0 -0.52542406613E+02  0.31677510747E+01 -0.31821971558E+02  0.61688467426E+02  0.47000000000E+01 0. -1.
         13    1    6    6    0    0 -0.22386792015E+02  0.16112644179E+02  0.75073751727E+02  0.79980334817E+02  0.00000000000E+00 0. -1.
        -14    1    6    6    0    0  0.33153595380E+02  0.10443399126E+03  0.66743500082E+03  0.67636905586E+03  0.00000000000E+00 0.  1.
         -5    1    5    5    0  503  0.57898670591E+02 -0.21052330923E+02  0.18948411154E+03  0.19930322431E+03  0.47000000000E+01 0.  1.
<mgrwt>
<rscale>  2 0.21089218E+03</rscale>
<asrwt>0</asrwt>
<pdfrwt beam="1">  1       21 0.16520503E+00 0.21133202E+03</pdfrwt>
<pdfrwt beam="2">  1       21 0.14813954E-01 0.21133202E+03</pdfrwt>
<totfact> 0.91274661E+03</totfact>
</mgrwt>
</event>
<event>
12    1  0.1473662E-001  0.3071417E+03  0.7546771E-02  0.1081914E+00
         21   -1    0    0  504  503  0.00000000000E+00  0.00000000000E+00  0.33482165900E+03  0.33482165900E+03  0.00000000000E+00 0. -1.
         21   -1    0    0  502  504 -0.00000000000E+00 -0.00000000000E+00 -0.32705456594E+03  0.32705456594E+03  0.00000000000E+00 0.  1.
          6    2    1    2  502    0  0.13208045327E+03  0.21642526575E+03 -0.12122499206E+03  0.32874715804E+03  0.17056979049E+03 0.  0.
         24    2    3    3    0    0  0.11092508021E+03  0.11544657294E+03 -0.15697583924E+02  0.18109090155E+03  0.83157776913E+02 0.  0.
         -6    2    1    2    0  503 -0.13208045327E+03 -0.21642526575E+03  0.12899208513E+03  0.33312906690E+03  0.17335188317E+03 0.  0.
        -24    2    5    5    0    0 -0.23213003683E+02 -0.38132594604E+02  0.81007351774E+01  0.91722342358E+02  0.79714665313E+02 0.  0.
          2    1    4    4  501    0  0.31739573692E+02  0.30426818962E+02  0.33141298361E+02  0.55059399809E+02  0.00000000000E+00 0. -1.
         -1    1    4    4    0  501  0.79185506516E+02  0.85019753975E+02 -0.48838882285E+02  0.12603150174E+03  0.00000000000E+00 0.  1.
          5    1    3    3  502    0  0.21155373059E+02  0.10097869282E+03 -0.10552740814E+03  0.14765625649E+03  0.47000000000E+01 0. -1.
         11    1    6    6    0    0  0.26447883926E+02 -0.75828950223E+01  0.17581846432E+02  0.32651373402E+02  0.00000000000E+00 0. -1.
        -12    1    6    6    0    0 -0.49660887609E+02 -0.30549699582E+02 -0.94811112551E+01  0.59070968955E+02  0.00000000000E+00 0.  1.
         -5    1    5    5    0  503 -0.10886744958E+03 -0.17829267115E+03  0.12089134995E+03  0.24140672455E+03  0.47000000000E+01 0.  1.
<mgrwt>
<rscale>  2 0.30675054E+03</rscale>
<asrwt>0</asrwt>
<pdfrwt beam="1">  1       21 0.51511025E-01 0.30714169E+03</pdfrwt>
<pdfrwt beam="2">  1       21 0.50316087E-01 0.30714169E+03</pdfrwt>
<totfact> 0.12671349E+04</totfact>
</mgrwt>
</event>
<event>
12    1  0.1473662E-001  0.1849431E+03  0.7546771E-02  0.1164232E+00
         21   -1    0    0  504  503  0.00000000000E+00  0.00000000000E+00  0.80217239056E+02  0.80217239056E+02  0.00000000000E+00 0.  1.
         21   -1    0    0  502  504 -0.00000000000E+00 -0.00000000000E+00 -0.42421678967E+03  0.42421678967E+03  0.00000000000E+00 0.  1.
          6    2    1    2  502    0  0.85331843890E+01  0.64771992265E+02 -0.13358977800E+03  0.22429792937E+03  0.16791398428E+03 0.  0.
         24    2    3    3    0    0  0.11703285846E+02  0.10784229192E+03 -0.12379389857E+03  0.17976536253E+03  0.72275372133E+02 0.  0.
         -6    2    1    2    0  503 -0.85331843890E+01 -0.64771992265E+02 -0.21040977262E+03  0.28013609935E+03  0.17301946576E+03 0.  0.
        -24    2    5    5    0    0 -0.53101794459E+02 -0.49911727115E+02 -0.20476332795E+03  0.23258443460E+03  0.82804092076E+02 0.  0.
          2    1    4    4  501    0  0.18614039707E+02  0.33773630625E+02 -0.40233460783E+01  0.38772772837E+02  0.00000000000E+00 0. -1.
         -1    1    4    4    0  501 -0.69107538612E+01  0.74068661297E+02 -0.11977055249E+03  0.14099258969E+03  0.00000000000E+00 0.  1.
          5    1    3    3  502    0 -0.31701014573E+01 -0.43070299656E+02 -0.97958794312E+01  0.44532566842E+02  0.47000000000E+01 0. -1.
         13    1    6    6    0    0 -0.19692096786E+02  0.19571249917E+02 -0.26576458126E+02  0.38433327018E+02  0.00000000000E+00 0. -1.
        -14    1    6    6    0    0 -0.33409697673E+02 -0.69482977033E+02 -0.17818686982E+03  0.19415110758E+03  0.00000000000E+00 0.  1.
         -5    1    5    5    0  503  0.44568610070E+02 -0.14860265149E+02 -0.56464446671E+01  0.47551664758E+02  0.47000000000E+01 0.  1.
<mgrwt>
<rscale>  2 0.18373961E+03</rscale>
<asrwt>0</asrwt>
<pdfrwt beam="1">  1       21 0.12341114E-01 0.18494313E+03</pdfrwt>
<pdfrwt beam="2">  1       21 0.65264122E-01 0.18494313E+03</pdfrwt>
<totfact> 0.12090058E+05</totfact>
</mgrwt>
</event>
<event>
12    1  0.1473662E-001  0.1908354E+03  0.7546771E-02  0.1158259E+00
         21   -1    0    0  504  503  0.00000000000E+00  0.00000000000E+00  0.52379086708E+03  0.52379086708E+03  0.00000000000E+00 0.  1.
         21   -1    0    0  502  504 -0.00000000000E+00 -0.00000000000E+00 -0.84515766623E+02  0.84515766623E+02  0.00000000000E+00 0. -1.
          6    2    1    2  502    0  0.24779786120E+02  0.71374530834E+02  0.86692856856E+02  0.20739217095E+03  0.17259055504E+03 0.  0.
         24    2    3    3    0    0  0.51724100327E+02  0.54711021972E+02  0.11858039836E+03  0.16219732722E+03  0.81104769301E+02 0.  0.
         -6    2    1    2    0  503 -0.24779786120E+02 -0.71374530834E+02  0.35258224360E+03  0.40091446275E+03  0.17524213675E+03 0.  0.
        -24    2    5    5    0    0  0.51470070526E+02 -0.41959856619E+02  0.24251918418E+03  0.26374584117E+03  0.79602238120E+02 0.  0.
          4    1    4    4  501    0  0.50305134212E+02 -0.22793716110E+01  0.36211855558E+02  0.62024999363E+02  0.00000000000E+00 0. -1.
         -3    1    4    4    0  501  0.14189661150E+01  0.56990393583E+02  0.82368542804E+02  0.10017232786E+03  0.00000000000E+00 0.  1.
          5    1    3    3  502    0 -0.26944314206E+02  0.16663508862E+02 -0.31887541506E+02  0.45194843721E+02  0.47000000000E+01 0. -1.
         11    1    6    6    0    0  0.36028340517E+02 -0.41138017537E+02  0.62427103301E+02  0.82991090087E+02  0.00000000000E+00 0. -1.
        -12    1    6    6    0    0  0.15441730009E+02 -0.82183908199E+00  0.18009208088E+03  0.18075475109E+03  0.00000000000E+00 0.  1.
         -5    1    5    5    0  503 -0.76249856646E+02 -0.29414674215E+02  0.11006305942E+03  0.13716862158E+03  0.47000000000E+01 0.  1.
<mgrwt>
<rscale>  2 0.19022452E+03</rscale>
<asrwt>0</asrwt>
<pdfrwt beam="1">  1       21 0.80583208E-01 0.19083545E+03</pdfrwt>
<pdfrwt beam="2">  1       21 0.13002426E-01 0.19083545E+03</pdfrwt>
<totfact> 0.68805696E+04</totfact>
</mgrwt>
</event>
<event>
12    1  0.1473662E-001  0.1821849E+03  0.7546771E-02  0.1169232E+00
         21   -1    0    0  504  503  0.00000000000E+00  0.00000000000E+00  0.43166080489E+03  0.43166080489E+03  0.00000000000E+00 0.  1.
         21   -1    0    0  502  504 -0.00000000000E+00 -0.00000000000E+00 -0.75700747971E+02  0.75700747971E+02  0.00000000000E+00 0.  1.
          6    2    1    2  502    0  0.29674495467E+02 -0.48853175971E+02  0.12173734295E+03  0.21911482842E+03  0.17298589214E+03 0.  0.
         24    2    3    3    0    0  0.42131700650E+02 -0.83621737706E+02  0.13182296886E+03  0.18054223846E+03  0.80315188671E+02 0.  0.
         -6    2    1    2    0  503 -0.29674495467E+02  0.48853175971E+02  0.23422271397E+03  0.28824672444E+03  0.15798318242E+03 0.  0.
        -24    2    5    5    0    0  0.36065941265E+00  0.21926808395E+02  0.66389099177E+02  0.11556970787E+03  0.92021355593E+02 0.  0.
          2    1    4    4  501    0  0.44291013204E+02 -0.74948620016E+02  0.14227065138E+03  0.16679306862E+03  0.00000000000E+00 0. -1.
         -1    1    4    4    0  501 -0.21593125543E+01 -0.86731176900E+01 -0.10447682524E+02  0.13749169841E+02  0.00000000000E+00 0.  1.
          5    1    3    3  502    0 -0.12457205182E+02  0.34768561735E+02 -0.10085625914E+02  0.38572589959E+02  0.47000000000E+01 0. -1.
         13    1    6    6    0    0 -0.34221200147E+00 -0.25495106552E+02  0.63067204062E+02  0.68026390433E+02  0.00000000000E+00 0. -1.
        -14    1    6    6    0    0  0.70287141412E+00  0.47421914947E+02  0.33218951156E+01  0.47543317434E+02  0.00000000000E+00 0.  1.
         -5    1    5    5    0  503 -0.30035154880E+02  0.26926367576E+02  0.16783361479E+03  0.17267701658E+03  0.47000000000E+01 0.  1.
<mgrwt>
<rscale>  2 0.17853164E+03</rscale>
<asrwt>0</asrwt>
<pdfrwt beam="1">  1       21 0.66409353E-01 0.18218487E+03</pdfrwt>
<pdfrwt beam="2">  1       21 0.11646269E-01 0.18218487E+03</pdfrwt>
<totfact> 0.12923184E+05</totfact>
</mgrwt>
</event>
<event>
12    1  0.1473662E-001  0.2327153E+03  0.7546771E-02  0.1127879E+00
         21   -1    0    0  504  503  0.00000000000E+00  0.00000000000E+00  0.93294140622E+03  0.93294140622E+03  0.00000000000E+00 0. -1.
         21   -1    0    0  502  504 -0.00000000000E+00 -0.00000000000E+00 -0.63051065159E+02  0.63051065159E+02  0.00000000000E+00 0. -1.
          6    2    1    2  502    0 -0.81493754215E+02 -0.99936434427E+02  0.22992733972E+03  0.31503061776E+03  0.17247952248E+03 0.  0.
         24    2    3    3    0    0 -0.78661971110E+02 -0.11737530789E+03  0.24245326492E+03  0.29286934286E+03  0.83810486892E+02 0.  0.
         -6    2    1    2    0  503  0.81493754215E+02  0.99936434427E+02  0.63996300134E+03  0.68096185362E+03  0.19372114003E+03 0.  0.
        -24    2    5    5    0    0 -0.23943135322E+02  0.49318709764E+02  0.42603060678E+03  0.43710072271E+03  0.80928085473E+02 0.  0.
          4    1    4    4  501    0 -0.54874388694E+02 -0.35524869007E+02  0.49722088986E+02  0.82130998932E+02  0.00000000000E+00 0. -1.
         -3    1    4    4    0  501 -0.23787582416E+02 -0.81850438887E+02  0.19273117593E+03  0.21073834392E+03  0.00000000000E+00 0.  1.
          5    1    3    3  502    0 -0.28317831053E+01  0.17438873466E+02 -0.12525925200E+02  0.22161274906E+02  0.47000000000E+01 0. -1.
         13    1    6    6    0    0  0.14403513230E+02  0.52954000555E+02  0.18349447773E+03  0.19152496110E+03  0.00000000000E+00 0. -1.
        -14    1    6    6    0    0 -0.38346648551E+02 -0.36352907906E+01  0.24253612905E+03  0.24557576160E+03  0.00000000000E+00 0.  1.
         -5    1    5    5    0  503  0.10543688954E+03  0.50617724662E+02  0.21393239457E+03  0.24386113091E+03  0.47000000000E+01 0.  1.
<mgrwt>
<rscale>  2 0.22824819E+03</rscale>
<asrwt>0</asrwt>
<pdfrwt beam="1">  1       21 0.14352944E+00 0.23271528E+03</pdfrwt>
<pdfrwt beam="2">  1       21 0.97001646E-02 0.23271528E+03</pdfrwt>
<totfact> 0.28049918E+04</totfact>
</mgrwt>
</event>
<event>
12    1  0.1473662E-001  0.1863079E+03  0.7546771E-02  0.1161841E+00
         21   -1    0    0  504  503  0.00000000000E+00  0.00000000000E+00  0.11669330562E+04  0.11669330562E+04  0.00000000000E+00 0.  1.
         21   -1    0    0  502  504 -0.00000000000E+00 -0.00000000000E+00 -0.43949452513E+02  0.43949452513E+02  0.00000000000E+00 0.  1.
          6    2    1    2  502    0 -0.16922006628E+02  0.65576882194E+02  0.21720935779E+03  0.28614599550E+03  0.17353081525E+03 0.  0.
         24    2    3    3    0    0 -0.48009552361E+02  0.77640235988E+02  0.22090750166E+03  0.25226788645E+03  0.80660020341E+02 0.  0.
         -6    2    1    2    0  503  0.16922006628E+02 -0.65576882194E+02  0.90577424589E+03  0.92473651321E+03  0.17356253211E+03 0.  0.
        -24    2    5    5    0    0  0.10004261588E+01 -0.58168342394E+02  0.89995178292E+03  0.90564792338E+03  0.83068601965E+02 0.  0.
          4    1    4    4  501    0 -0.60867333782E+02  0.23536920842E+02  0.13477077729E+03  0.14973971209E+03  0.00000000000E+00 0. -1.
         -3    1    4    4    0  501  0.12857781420E+02  0.54103315146E+02  0.86136724370E+02  0.10252817436E+03  0.00000000000E+00 0.  1.
          5    1    3    3  502    0  0.31087545733E+02 -0.12063353794E+02 -0.36981438748E+01  0.33878109047E+02  0.47000000000E+01 0. -1.
         11    1    6    6    0    0  0.14866973917E+02 -0.49831024584E+02  0.24322476330E+03  0.24872161830E+03  0.00000000000E+00 0. -1.
        -12    1    6    6    0    0 -0.13866547758E+02 -0.83373178106E+01  0.65672701962E+03  0.65692630508E+03  0.00000000000E+00 0.  1.
         -5    1    5    5    0  503  0.15921580469E+02 -0.74085397993E+01  0.58224629745E+01  0.19088589830E+02  0.47000000000E+01 0.  1.
<mgrwt>
<rscale>  2 0.18630051E+03</rscale>
<asrwt>0</asrwt>
<pdfrwt beam="1">  1       21 0.17952814E+00 0.18630790E+03</pdfrwt>
<pdfrwt beam="2">  1       21 0.67614551E-02 0.18630790E+03</pdfrwt>
<totfact> 0.29564502E+04</totfact>
</mgrwt>
</event>
<event>
12    1  0.1473662E-001  0.1982469E+03  0.7546771E-02  0.1151493E+00
         21   -1    0    0  504  503  0.00000000000E+00  0.00000000000E+00  0.23928819109E+03  0.23928819109E+03  0.00000000000E+00 0. -1.
         21   -1    0    0  502  504 -0.00000000000E+00 -0.00000000000E+00 -0.23315014185E+03  0.23315014185E+03  0.00000000000E+00 0. -1.
          6    2    1    2  502    0 -0.93843781812E+02 -0.41118101840E+01 -0.12629575975E+03  0.23505837380E+03  0.17458023312E+03 0.  0.
         24    2    3    3    0    0  0.33363419152E+00 -0.45072186195E+01 -0.50417362918E+01  0.81454434277E+02  0.81172528771E+02 0.  0.
         -6    2    1    2    0  503  0.93843781812E+02  0.41118101840E+01  0.13243380899E+03  0.23737995914E+03  0.17316745904E+03 0.  0.
        -24    2    5    5    0    0  0.82170114632E+02  0.63684183991E+02  0.11462361826E+03  0.17394152347E+03  0.79432214471E+02 0.  0.
          4    1    4    4  501    0 -0.33378792185E+02 -0.20781070121E+02  0.10846023920E+02  0.40787655951E+02  0.00000000000E+00 0. -1.
         -3    1    4    4    0  501  0.33712426377E+02  0.16273851501E+02 -0.15887760212E+02  0.40666778326E+02  0.00000000000E+00 0.  1.
          5    1    3    3  502    0 -0.94177416004E+02  0.39540843554E+00 -0.12125402345E+03  0.15360393952E+03  0.47000000000E+01 0. -1.
         11    1    6    6    0    0 -0.47582836488E+01 -0.28838811193E+01  0.42430823705E+02  0.42794074752E+02  0.00000000000E+00 0. -1.
        -12    1    6    6    0    0  0.86928398281E+02  0.66568065110E+02  0.72192794550E+02  0.13114744872E+03  0.00000000000E+00 0.  1.
         -5    1    5    5    0  503  0.11673667180E+02 -0.59572373807E+02  0.17810190730E+02  0.63438435670E+02  0.47000000000E+01 0.  1.
<mgrwt>
<rscale>  2 0.19793539E+03</rscale>
<asrwt>0</asrwt>
<pdfrwt beam="1">  1       21 0.36813568E-01 0.19824687E+03</pdfrwt>
<pdfrwt beam="2">  1       21 0.35869252E-01 0.19824687E+03</pdfrwt>
<totfact> 0.53193242E+04</totfact>
</mgrwt>
</event>
<event>
12    1  0.1473662E-001  0.2611082E+03  0.7546771E-02  0.1106583E+00
         21   -1    0    0  504  503  0.00000000000E+00  0.00000000000E+00  0.37527102435E+03  0.37527102435E+03  0.00000000000E+00 0. -1.
         21   -1    0    0  502  504 -0.00000000000E+00 -0.00000000000E+00 -0.30328218131E+03  0.30328218131E+03  0.00000000000E+00 0.  1.
          6    2    1    2  502    0  0.19291777618E+03  0.31088337068E+02 -0.17929637012E+03  0.31616975064E+03  0.17214055250E+03 0.  0.
         24    2    3    3    0    0  0.14364204722E+03  0.82685939714E+02 -0.93190546067E+02  0.20424695136E+03  0.74581076063E+02 0.  0.
         -6    2    1    2    0  503 -0.19291777618E+03 -0.31088337068E+02  0.25128521315E+03  0.36238345502E+03  0.17318705798E+03 0.  0.
        -24    2    5    5    0    0 -0.13237302638E+03  0.43460130275E+02  0.18918968675E+03  0.24792348337E+03  0.79132262663E+02 0.  0.
          2    1    4    4  501    0  0.14547247888E+03  0.59866588830E+02 -0.89709189627E+02  0.18109110766E+03  0.00000000000E+00 0. -1.
         -1    1    4    4    0  501 -0.18304316570E+01  0.22819350885E+02 -0.34813564397E+01  0.23155843701E+02  0.00000000000E+00 0.  1.
          5    1    3    3  502    0  0.49275728958E+02 -0.51597602647E+02 -0.86105824053E+02  0.11192279928E+03  0.47000000000E+01 0. -1.
         11    1    6    6    0    0 -0.25934891605E+02  0.36500341822E+02  0.97406677381E+02  0.10720519742E+03  0.00000000000E+00 0. -1.
        -12    1    6    6    0    0 -0.10643813478E+03  0.69597884530E+01  0.91783009373E+02  0.14071828595E+03  0.00000000000E+00 0.  1.
         -5    1    5    5    0  503 -0.60544749795E+02 -0.74548467343E+02  0.62095526399E+02  0.11445997165E+03  0.47000000000E+01 0.  1.
<mgrwt>
<rscale>  2 0.26093483E+03</rscale>
<asrwt>0</asrwt>
<pdfrwt beam="1">  1       21 0.57734004E-01 0.26110823E+03</pdfrwt>
<pdfrwt beam="2">  1       21 0.46658797E-01 0.26110823E+03</pdfrwt>
<totfact> 0.11886816E+04</totfact>
</mgrwt>
</event>
<event>
12    1  0.1473662E-001  0.2088807E+03  0.7546771E-02  0.1142548E+00
         21   -1    0    0  504  503  0.00000000000E+00  0.00000000000E+00  0.10601682207E+04  0.10601682207E+04  0.00000000000E+00 0.  1.
         21   -1    0    0  502  504 -0.00000000000E+00 -0.00000000000E+00 -0.17578751204E+03  0.17578751204E+03  0.00000000000E+00 0.  1.
          6    2    1    2  502    0 -0.84623341847E+02  0.80812642294E+02 -0.98929064720E+02  0.23070488620E+03  0.17247026274E+03 0.  0.
         24    2    3    3    0    0 -0.52410392607E+02 -0.20260445624E+02 -0.53501180090E+02  0.11520931961E+03  0.85167342003E+02 0.  0.
         -6    2    1    2    0  503  0.84623341847E+02 -0.80812642294E+02  0.98330977341E+03  0.10052508466E+04  0.17302994217E+03 0.  0.
        -24    2    5    5    0    0 -0.15906337330E+02 -0.60975185244E+02  0.60148898796E+03  0.60989158804E+03  0.78789350417E+02 0.  0.
          2    1    4    4  501    0 -0.12468053453E+02 -0.43359280841E+02 -0.74490822708E+00  0.45122438767E+02  0.00000000000E+00 0. -1.
         -1    1    4    4    0  501 -0.39942339154E+02  0.23098835217E+02 -0.52756271863E+02  0.70086880843E+02  0.00000000000E+00 0.  1.
          5    1    3    3  502    0 -0.32212949240E+02  0.10107308792E+03 -0.45427884630E+02  0.11549556659E+03  0.47000000000E+01 0. -1.
         11    1    6    6    0    0 -0.19171848953E+02 -0.55178687309E+02  0.20021485888E+03  0.20856230973E+03  0.00000000000E+00 0. -1.
        -12    1    6    6    0    0  0.32655116239E+01 -0.57964979354E+01  0.40127412908E+03  0.40132927831E+03  0.00000000000E+00 0.  1.
         -5    1    5    5    0  503  0.10052967918E+03 -0.19837457050E+02  0.38182078545E+03  0.39535925852E+03  0.47000000000E+01 0.  1.
<mgrwt>
<rscale>  2 0.20876477E+03</rscale>
<asrwt>0</asrwt>
<pdfrwt beam="1">  1       21 0.16310280E+00 0.20888072E+03</pdfrwt>
<pdfrwt beam="2">  1       21 0.27044233E-01 0.20888072E+03</pdfrwt>
<totfact> 0.30676882E+03</totfact>
</mgrwt>
</event>
<event>
12    1  0.1473662E-001  0.2026260E+03  0.7546771E-02  0.1147706E+00
         21   -1    0    0  504  503  0.00000000000E+00  0.00000000000E+00  0.16900098910E+03  0.16900098910E+03  0.00000000000E+00 0.  1.
         21   -1    0    0  502  504 -0.00000000000E+00 -0.00000000000E+00 -0.24769147789E+03  0.24769147789E+03  0.00000000000E+00 0.  1.
          6    2    1    2  502    0 -0.84969670461E+02 -0.57527806918E+02 -0.70868253208E+02  0.21391557329E+03  0.17380526378E+03 0.  0.
         24    2    3    3    0    0 -0.11873385273E+03 -0.69799695812E+02 -0.76915402929E+02  0.17718306343E+03  0.80673003154E+02 0.  0.
         -6    2    1    2    0  503  0.84969670461E+02  0.57527806918E+02 -0.78222355780E+01  0.20277689369E+03  0.17472260237E+03 0.  0.
        -24    2    5    5    0    0 -0.42799918730E+01 -0.18022179817E+02 -0.19249687079E+02  0.85192968899E+02  0.80896070370E+02 0.  0.
          4    1    4    4  501    0 -0.21577143128E+02 -0.45709553983E+02 -0.55027474626E+02  0.74719203653E+02  0.00000000000E+00 0. -1.
         -3    1    4    4    0  501 -0.97156709603E+02 -0.24090141829E+02 -0.21887928303E+02  0.10246385977E+03  0.00000000000E+00 0.  1.
          5    1    3    3  502    0  0.33764182269E+02  0.12271888894E+02  0.60471497214E+01  0.36732509867E+02  0.47000000000E+01 0. -1.
         13    1    6    6    0    0  0.26969597529E+02 -0.33331286372E+02  0.44272200465E+01  0.43103759922E+02  0.00000000000E+00 0. -1.
        -14    1    6    6    0    0 -0.31249589402E+02  0.15309106555E+02 -0.23676907125E+02  0.42089208977E+02  0.00000000000E+00 0.  1.
         -5    1    5    5    0  503  0.89249662334E+02  0.75549986736E+02  0.11427451501E+02  0.11758392480E+03  0.47000000000E+01 0.  1.
<mgrwt>
<rscale>  2 0.20242805E+03</rscale>
<asrwt>0</asrwt>
<pdfrwt beam="1">  1       21 0.26000152E-01 0.20262596E+03</pdfrwt>
<pdfrwt beam="2">  1       21 0.38106381E-01 0.20262596E+03</pdfrwt>
<totfact> 0.92938528E+04</totfact>
</mgrwt>
</event>
<event>
12    1  0.1473662E-001  0.1762369E+03  0.7546771E-02  0.1174388E+00
         21   -1    0    0  504  503  0.00000000000E+00  0.00000000000E+00  0.22021525473E+03  0.22021525473E+03  0.00000000000E+00 0.  1.
         21   -1    0    0  502  504 -0.00000000000E+00 -0.00000000000E+00 -0.13871346011E+03  0.13871346011E+03  0.00000000000E+00 0.  1.
          6    2    1    2  502    0 -0.22820704991E+01  0.34605572664E+02  0.31555274034E+01  0.17626512954E+03  0.17279087080E+03 0.  0.
         24    2    3    3    0    0  0.34689456559E+02 -0.35537656628E+02  0.15721085388E+02  0.95847782675E+02  0.80457202804E+02 0.  0.
         -6    2    1    2    0  503  0.22820704991E+01 -0.34605572664E+02  0.78346267220E+02  0.18266358531E+03  0.16132295034E+03 0.  0.
        -24    2    5    5    0    0 -0.39157306488E+02  0.21671639377E+02  0.26796004049E+02  0.95693094950E+02  0.80225856078E+02 0.  0.
          2    1    4    4  501    0  0.28522025079E+02 -0.53172600633E+02  0.34377547819E+02  0.69445281817E+02  0.00000000000E+00 0. -1.
         -1    1    4    4    0  501  0.61674314798E+01  0.17634944004E+02 -0.18656462432E+02  0.26402500858E+02  0.00000000000E+00 0.  1.
          5    1    3    3  502    0 -0.36971527058E+02  0.70143229292E+02 -0.12565557984E+02  0.80417346860E+02  0.47000000000E+01 0. -1.
         11    1    6    6    0    0  0.25095240993E+01  0.88491507120E+01 -0.25792943090E+02  0.27383956851E+02  0.00000000000E+00 0. -1.
        -12    1    6    6    0    0 -0.41666830587E+02  0.12822488665E+02  0.52588947139E+02  0.68309138100E+02  0.00000000000E+00 0.  1.
         -5    1    5    5    0  503  0.41439376987E+02 -0.56277212041E+02  0.51550263171E+02  0.86970490359E+02  0.47000000000E+01 0.  1.
<mgrwt>
<rscale>  2 0.17336015E+03</rscale>
<asrwt>0</asrwt>
<pdfrwt beam="1">  1       21 0.33879270E-01 0.17623688E+03</pdfrwt>
<pdfrwt beam="2">  1       21 0.21340532E-01 0.17623688E+03</pdfrwt>
<totfact> 0.17243056E+05</totfact>
</mgrwt>
</event>
<event>
12    1  0.1473662E-001  0.2023248E+03  0.7546771E-02  0.1149693E+00
         21   -1    0    0  504  503  0.00000000000E+00  0.00000000000E+00  0.97445190879E+03  0.97445190879E+03  0.00000000000E+00 0.  1.
         21   -1    0    0  502  504 -0.00000000000E+00 -0.00000000000E+00 -0.60152697389E+02  0.60152697389E+02  0.00000000000E+00 0. -1.
          6    2    1    2  502    0 -0.17861835482E+02  0.87941344526E+02  0.16597224394E+03  0.26169086045E+03  0.18133558790E+03 0.  0.
         24    2    3    3    0    0  0.26453250143E+02 -0.36163757865E+01  0.12251722394E+03  0.15097920015E+03  0.84091593503E+02 0.  0.
         -6    2    1    2    0  503  0.17861835482E+02 -0.87941344526E+02  0.74832696746E+03  0.77291374573E+03  0.17131749144E+03 0.  0.
        -24    2    5    5    0    0  0.70387191002E+02 -0.31456195721E+02  0.52249637362E+03  0.53422769226E+03  0.80330055567E+02 0.  0.
          4    1    4    4  501    0  0.40730767381E+02  0.25097084862E+02  0.10266288647E+03  0.11326308904E+03  0.00000000000E+00 0. -1.
         -3    1    4    4    0  501 -0.14277517238E+02 -0.28713460648E+02  0.19854337474E+02  0.37716111112E+02  0.00000000000E+00 0.  1.
          5    1    3    3  502    0 -0.44315085625E+02  0.91557720312E+02  0.43455020000E+02  0.11071166030E+03  0.47000000000E+01 0. -1.
         13    1    6    6    0    0 -0.27710883622E+01  0.20570580495E+02  0.12577708493E+03  0.12747824445E+03  0.00000000000E+00 0. -1.
        -14    1    6    6    0    0  0.73158279364E+02 -0.52026776216E+02  0.39671928868E+03  0.40674944781E+03  0.00000000000E+00 0.  1.
         -5    1    5    5    0  503 -0.52525355520E+02 -0.56485148805E+02  0.22583059384E+03  0.23868605347E+03  0.47000000000E+01 0.  1.
<mgrwt>
<rscale>  2 0.20005494E+03</rscale>
<asrwt>0</asrwt>
<pdfrwt beam="1">  1       21 0.14991567E+00 0.20232479E+03</pdfrwt>
<pdfrwt beam="2">  1       21 0.92542619E-02 0.20232479E+03</pdfrwt>
<totfact> 0.27673721E+04</totfact>
</mgrwt>
</event>
<event>
12    1  0.1473662E-001  0.1780192E+03  0.7546771E-02  0.1170738E+00
         21   -1    0    0  504  503  0.00000000000E+00  0.00000000000E+00  0.24864343518E+03  0.24864343518E+03  0.00000000000E+00 0. -1.
         21   -1    0    0  502  504 -0.00000000000E+00 -0.00000000000E+00 -0.19335158265E+03  0.19335158265E+03  0.00000000000E+00 0. -1.
          6    2    1    2  502    0 -0.16657667505E+01  0.35070283982E+02 -0.10394534818E+03  0.20614425535E+03  0.17452254584E+03 0.  0.
         24    2    3    3    0    0 -0.60607094428E+02  0.52375460790E+02 -0.84692919102E+02  0.14159740974E+03  0.80377404230E+02 0.  0.
         -6    2    1    2    0  503  0.16657667505E+01 -0.35070283982E+02  0.15923720070E+03  0.23585076248E+03  0.17040069390E+03 0.  0.
        -24    2    5    5    0    0 -0.42710382733E+02 -0.39485545893E+02  0.16324662451E+03  0.19082962678E+03  0.79894936729E+02 0.  0.
          4    1    4    4  501    0 -0.29949760221E+02  0.71055887598E+02 -0.51686551088E+02  0.92830096752E+02  0.00000000000E+00 0. -1.
         -3    1    4    4    0  501 -0.30657334207E+02 -0.18680426808E+02 -0.33006368014E+02  0.48767312986E+02  0.00000000000E+00 0.  1.
          5    1    3    3  502    0  0.58941327677E+02 -0.17305176807E+02 -0.19252429073E+02  0.64546845608E+02  0.47000000000E+01 0. -1.
         11    1    6    6    0    0 -0.18301155817E+02 -0.59484061644E+02  0.77092699894E+02  0.99078606524E+02  0.00000000000E+00 0. -1.
        -12    1    6    6    0    0 -0.24409226916E+02  0.19998515751E+02  0.86153924619E+02  0.91751020256E+02  0.00000000000E+00 0.  1.
         -5    1    5    5    0  503  0.44376149484E+02  0.44152619105E+01 -0.40094238153E+01  0.45021135704E+02  0.47000000000E+01 0.  1.
<mgrwt>
<rscale>  2 0.17700070E+03</rscale>
<asrwt>0</asrwt>
<pdfrwt beam="1">  1       21 0.38252836E-01 0.17801915E+03</pdfrwt>
<pdfrwt beam="2">  1       21 0.29746397E-01 0.17801915E+03</pdfrwt>
<totfact> 0.71841113E+04</totfact>
</mgrwt>
</event>
<event>
12    1  0.1473662E-001  0.1848402E+03  0.7546771E-02  0.1163337E+00
         21   -1    0    0  504  503  0.00000000000E+00  0.00000000000E+00  0.14689968646E+04  0.14689968646E+04  0.00000000000E+00 0.  1.
         21   -1    0    0  502  504 -0.00000000000E+00 -0.00000000000E+00 -0.73639731726E+02  0.73639731726E+02  0.00000000000E+00 0.  1.
          6    2    1    2  502    0  0.80921789661E+01  0.62838030784E+02  0.58868049467E+02  0.19342609844E+03  0.17301475902E+03 0.  0.
         24    2    3    3    0    0 -0.41334951748E+02  0.84506026345E+02  0.64420333917E+02  0.13897005062E+03  0.79453438075E+02 0.  0.
         -6    2    1    2    0  503 -0.80921789661E+01 -0.62838030784E+02  0.13364890834E+04  0.13492104979E+04  0.17364272532E+03 0.  0.
        -24    2    5    5    0    0  0.15220014027E+02 -0.93753019646E+02  0.65925305107E+03  0.67085223827E+03  0.80042880617E+02 0.  0.
          4    1    4    4  501    0 -0.52131695376E+02  0.57744958730E+02  0.11428896982E+02  0.78630869305E+02  0.00000000000E+00 0. -1.
         -3    1    4    4    0  501  0.10796743628E+02  0.26761067614E+02  0.52991436936E+02  0.60339181311E+02  0.00000000000E+00 0.  1.
          5    1    3    3  502    0  0.49427130714E+02 -0.21667995560E+02 -0.55522844501E+01  0.54456047826E+02  0.47000000000E+01 0. -1.
         11    1    6    6    0    0  0.85614290937E+01  0.38908810744E+01  0.81791203373E+01  0.12463347590E+02  0.00000000000E+00 0. -1.
        -12    1    6    6    0    0  0.66585849329E+01 -0.97643900720E+02  0.65107393073E+03  0.65838889068E+03  0.00000000000E+00 0.  1.
         -5    1    5    5    0  503 -0.23312192993E+02  0.30914988862E+02  0.67723603235E+03  0.67835825961E+03  0.47000000000E+01 0.  1.
<mgrwt>
<rscale>  2 0.18469257E+03</rscale>
<asrwt>0</asrwt>
<pdfrwt beam="1">  1       21 0.22599950E+00 0.18484019E+03</pdfrwt>
<pdfrwt beam="2">  1       21 0.11329191E-01 0.18484019E+03</pdfrwt>
<totfact> 0.60589213E+03</totfact>
</mgrwt>
</event>
<event>
12    1  0.1473662E-001  0.1886847E+03  0.7546771E-02  0.1160336E+00
         21   -1    0    0  504  503  0.00000000000E+00  0.00000000000E+00  0.26095148947E+03  0.26095148947E+03  0.00000000000E+00 0. -1.
         21   -1    0    0  502  504 -0.00000000000E+00 -0.00000000000E+00 -0.23741978294E+03  0.23741978294E+03  0.00000000000E+00 0. -1.
          6    2    1    2  502    0  0.66533750556E+02  0.33863314371E+02 -0.15251714902E+03  0.24031098275E+03  0.17004241724E+03 0.  0.
         24    2    3    3    0    0 -0.13893007697E+02  0.18522020492E+01 -0.13462369314E+03  0.15179295906E+03  0.68710387486E+02 0.  0.
         -6    2    1    2    0  503 -0.66533750556E+02 -0.33863314371E+02  0.17604885555E+03  0.25806028967E+03  0.17328718804E+03 0.  0.
        -24    2    5    5    0    0  0.26623398130E+02  0.60031768824E+01  0.10583703222E+03  0.13469343184E+03  0.78714672899E+02 0.  0.
          4    1    4    4  501    0 -0.19020752758E+02  0.68167256528E+01 -0.14086801932E+03  0.14230971734E+03  0.00000000000E+00 0. -1.
         -3    1    4    4    0  501  0.51277450618E+01 -0.49645236036E+01  0.62443261738E+01  0.94832417134E+01  0.00000000000E+00 0.  1.
          5    1    3    3  502    0  0.80426758252E+02  0.32011112322E+02 -0.17893455875E+02  0.88518023691E+02  0.47000000000E+01 0. -1.
         13    1    6    6    0    0  0.29894355705E+02  0.17603224219E+02  0.11463629383E+03  0.11977072208E+03  0.00000000000E+00 0. -1.
        -14    1    6    6    0    0 -0.32709575743E+01 -0.11600047337E+02 -0.87992616029E+01  0.14922709755E+02  0.00000000000E+00 0.  1.
         -5    1    5    5    0  503 -0.93157148686E+02 -0.39866491254E+02  0.70211823320E+02  0.12336685783E+03  0.47000000000E+01 0.  1.
<mgrwt>
<rscale>  2 0.18793637E+03</rscale>
<asrwt>0</asrwt>
<pdfrwt beam="1">  1       21 0.40146383E-01 0.18868469E+03</pdfrwt>
<pdfrwt beam="2">  1       21 0.36526121E-01 0.18868469E+03</pdfrwt>
<totfact> 0.43305252E+04</totfact>
</mgrwt>
</event>
<event>
12    1  0.1473662E-001  0.2079935E+03  0.7546771E-02  0.1143318E+00
         21   -1    0    0  504  503  0.00000000000E+00  0.00000000000E+00  0.13366100257E+03  0.13366100257E+03  0.00000000000E+00 0.  1.
         21   -1    0    0  502  504 -0.00000000000E+00 -0.00000000000E+00 -0.33193840921E+03  0.33193840921E+03  0.00000000000E+00 0. -1.
          6    2    1    2  502    0  0.88051295275E+02  0.71666963483E+02 -0.13826509548E+03  0.24912130518E+03  0.17336379037E+03 0.  0.
         24    2    3    3    0    0  0.11753590796E+03  0.15918089001E+02 -0.98856259556E+02  0.17460670433E+03  0.81528313635E+02 0.  0.
         -6    2    1    2    0  503 -0.88051295275E+02 -0.71666963483E+02 -0.60012311158E+02  0.21647810661E+03  0.17427595616E+03 0.  0.
        -24    2    5    5    0    0  0.10502085191E+02  0.74780340977E+01 -0.28978788550E+02  0.86240366421E+02  0.80196108554E+02 0.  0.
          2    1    4    4  501    0  0.12851989864E+03  0.23258835506E+02 -0.87757278078E+02  0.15735208175E+03  0.00000000000E+00 0. -1.
         -1    1    4    4    0  501 -0.10983990676E+02 -0.73407465050E+01 -0.11098981478E+02  0.17254622577E+02  0.00000000000E+00 0.  1.
          5    1    3    3  502    0 -0.29484612687E+02  0.55748874482E+02 -0.39408835927E+02  0.74514600854E+02  0.47000000000E+01 0. -1.
         13    1    6    6    0    0  0.36094065881E+02 -0.13842849154E+02 -0.35284345275E+02  0.52339192638E+02  0.00000000000E+00 0. -1.
        -14    1    6    6    0    0 -0.25591980690E+02  0.21320883251E+02  0.63055567249E+01  0.33901173783E+02  0.00000000000E+00 0.  1.
         -5    1    5    5    0  503 -0.98553380466E+02 -0.79144997581E+02 -0.31033522607E+02  0.13023774019E+03  0.47000000000E+01 0.  1.
<mgrwt>
<rscale>  2 0.20780231E+03</rscale>
<asrwt>0</asrwt>
<pdfrwt beam="1">  1       21 0.20563232E-01 0.20799349E+03</pdfrwt>
<pdfrwt beam="2">  1       21 0.51067447E-01 0.20799349E+03</pdfrwt>
<totfact> 0.79373920E+04</totfact>
</mgrwt>
</event>
<event>
12    1  0.1473662E-001  0.3354637E+03  0.7546771E-02  0.1068809E+00
         21   -1    0    0  504  503  0.00000000000E+00  0.00000000000E+00  0.11217952612E+04  0.11217952612E+04  0.00000000000E+00 0. -1.
         21   -1    0    0  502  504 -0.00000000000E+00 -0.00000000000E+00 -0.15484247826E+03  0.15484247826E+03  0.00000000000E+00 0. -1.
          6    2    1    2  502    0 -0.36913292842E+02  0.28503283213E+03  0.86314654871E+03  0.92604420378E+03  0.17300172320E+03 0.  0.
         24    2    3    3    0    0 -0.10487646944E+02  0.47590451109E+02  0.24438491167E+03  0.26274543812E+03  0.83284683000E+02 0.  0.
         -6    2    1    2    0  503  0.36913292842E+02 -0.28503283213E+03  0.10380623427E+03  0.35059353573E+03  0.17185396836E+03 0.  0.
        -24    2    5    5    0    0 -0.15545154656E+02 -0.97167100868E+02 -0.22131214377E+01  0.12854035408E+03  0.82671805328E+02 0.  0.
          4    1    4    4  501    0  0.21484980624E+02 -0.85451548342E+01  0.12384878241E+03  0.12598867000E+03  0.00000000000E+00 0. -1.
         -3    1    4    4    0  501 -0.31972627568E+02  0.56135605944E+02  0.12053612926E+03  0.13675676812E+03  0.00000000000E+00 0.  1.
          5    1    3    3  502    0 -0.26425645897E+02  0.23744238102E+03  0.61876163703E+03  0.66329876566E+03  0.47000000000E+01 0. -1.
         11    1    6    6    0    0  0.32146260955E+02 -0.20590252100E+02  0.20100012481E+01  0.38228009102E+02  0.00000000000E+00 0. -1.
        -12    1    6    6    0    0 -0.47691415611E+02 -0.76576848768E+02 -0.42231226857E+01  0.90312344978E+02  0.00000000000E+00 0.  1.
         -5    1    5    5    0  503  0.52458447498E+02 -0.18786573126E+03  0.10601935571E+03  0.22205318165E+03  0.47000000000E+01 0.  1.
<mgrwt>
<rscale>  2 0.33531600E+03</rscale>
<asrwt>0</asrwt>
<pdfrwt beam="1">  1       21 0.17258388E+00 0.33546371E+03</pdfrwt>
<pdfrwt beam="2">  1       21 0.23821921E-01 0.33546371E+03</pdfrwt>
<totfact> 0.30719324E+03</totfact>
</mgrwt>
</event>
<event>
12    1  0.1473662E-001  0.2112542E+03  0.7546771E-02  0.1140708E+00
         21   -1    0    0  504  503  0.00000000000E+00  0.00000000000E+00  0.13121213787E+03  0.13121213787E+03  0.00000000000E+00 0. -1.
         21   -1    0    0  502  504 -0.00000000000E+00 -0.00000000000E+00 -0.38830472411E+03  0.38830472411E+03  0.00000000000E+00 0.  1.
          6    2    1    2  502    0  0.10827809667E+03 -0.52078264997E+02 -0.22123957449E+03  0.30590080354E+03  0.17375862678E+03 0.  0.
         24    2    3    3    0    0 -0.73866986320E+01 -0.46737660372E+02 -0.12567764461E+03  0.15569747677E+03  0.78789984791E+02 0.  0.
         -6    2    1    2    0  503 -0.10827809667E+03  0.52078264997E+02 -0.35853011757E+02  0.21361605844E+03  0.17294533839E+03 0.  0.
        -24    2    5    5    0    0 -0.14219895926E+03  0.20958447399E+02 -0.23122655474E+02  0.16562418479E+03  0.78974127787E+02 0.  0.
          2    1    4    4  501    0 -0.27095535995E+02 -0.20066404861E+02 -0.97188038309E+01  0.35089654071E+02  0.00000000000E+00 0. -1.
         -1    1    4    4    0  501  0.19708837363E+02 -0.26671255511E+02 -0.11595884078E+03  0.12060782270E+03  0.00000000000E+00 0.  1.
          5    1    3    3  502    0  0.11566479530E+03 -0.53406046254E+01 -0.95561929877E+02  0.15020332677E+03  0.47000000000E+01 0. -1.
         11    1    6    6    0    0 -0.73068259483E+02 -0.12639035892E+02  0.20906614307E+02  0.77044158078E+02  0.00000000000E+00 0. -1.
        -12    1    6    6    0    0 -0.69130699772E+02  0.33597483291E+02 -0.44029269781E+02  0.88580026710E+02  0.00000000000E+00 0.  1.
         -5    1    5    5    0  503  0.33920862586E+02  0.31119817598E+02 -0.12730356283E+02  0.47991873656E+02  0.47000000000E+01 0.  1.
<mgrwt>
<rscale>  2 0.21108693E+03</rscale>
<asrwt>0</asrwt>
<pdfrwt beam="1">  1       21 0.20186483E-01 0.21125424E+03</pdfrwt>
<pdfrwt beam="2">  1       21 0.59739187E-01 0.21125424E+03</pdfrwt>
<totfact> 0.58824454E+04</totfact>
</mgrwt>
</event>
<event>
12    1  0.1473662E-001  0.2038140E+03  0.7546771E-02  0.1146760E+00
         21   -1    0    0  504  503  0.00000000000E+00  0.00000000000E+00  0.59893702986E+02  0.59893702986E+02  0.00000000000E+00 0. -1.
         21   -1    0    0  502  504 -0.00000000000E+00 -0.00000000000E+00 -0.70506583692E+03  0.70506583692E+03  0.00000000000E+00 0.  1.
          6    2    1    2  502    0 -0.59615417886E+02  0.87625177872E+02 -0.37723890536E+03  0.42831677951E+03  0.17295635878E+03 0.  0.
         24    2    3    3    0    0 -0.40687787459E+02 -0.11458168458E+02 -0.25036141515E+03  0.26615712905E+03  0.79824767312E+02 0.  0.
         -6    2    1    2    0  503  0.59615417886E+02 -0.87625177872E+02 -0.26793322857E+03  0.33664276040E+03  0.17409182436E+03 0.  0.
        -24    2    5    5    0    0  0.53117293878E+02  0.40913724702E+01 -0.71743546779E+02  0.11992489666E+03  0.79979110374E+02 0.  0.
          2    1    4    4  501    0 -0.47911484905E+02 -0.19338592665E+02 -0.78584836684E+02  0.94048222252E+02  0.00000000000E+00 0. -1.
         -1    1    4    4    0  501  0.72236974456E+01  0.78804242070E+01 -0.17177657846E+03  0.17210890680E+03  0.00000000000E+00 0.  1.
          5    1    3    3  502    0 -0.18927630426E+02  0.99083346331E+02 -0.12687749022E+03  0.16215965046E+03  0.47000000000E+01 0. -1.
         13    1    6    6    0    0  0.40360022720E+02  0.13439027723E+02 -0.87691547488E+02  0.97464590498E+02  0.00000000000E+00 0. -1.
        -14    1    6    6    0    0  0.12757271158E+02 -0.93476552532E+01  0.15948000709E+02  0.22460306159E+02  0.00000000000E+00 0.  1.
         -5    1    5    5    0  503  0.64981240072E+01 -0.91716550343E+02 -0.19618968179E+03  0.21671786374E+03  0.47000000000E+01 0.  1.
<mgrwt>
<rscale>  2 0.20357128E+03</rscale>
<asrwt>0</asrwt>
<pdfrwt beam="1">  1       21 0.92144154E-02 0.20381397E+03</pdfrwt>
<pdfrwt beam="2">  1       21 0.10847167E+00 0.20381397E+03</pdfrwt>
<totfact> 0.62971222E+04</totfact>
</mgrwt>
</event>
<event>
12    1  0.1473662E-001  0.3017451E+03  0.7546771E-02  0.1084425E+00
         21   -1    0    0  504  503  0.00000000000E+00  0.00000000000E+00  0.22408484939E+03  0.22408484939E+03  0.00000000000E+00 0.  1.
         21   -1    0    0  502  504 -0.00000000000E+00 -0.00000000000E+00 -0.69859486199E+03  0.69859486199E+03  0.00000000000E+00 0.  1.
          6    2    1    2  502    0 -0.12939465001E+03  0.20974618120E+03 -0.53605309830E+03  0.61514470741E+03  0.17410815857E+03 0.  0.
         24    2    3    3    0    0 -0.13755270304E+03  0.18361102019E+03 -0.35499632033E+03  0.43196925240E+03  0.89113942344E+02 0.  0.
         -6    2    1    2    0  503  0.12939465001E+03 -0.20974618120E+03  0.61543085696E+02  0.30753500398E+03  0.17336029330E+03 0.  0.
        -24    2    5    5    0    0  0.11238863459E+03 -0.21807302084E+03  0.89554172407E+02  0.27339921927E+03  0.80871105448E+02 0.  0.
          2    1    4    4  501    0 -0.54100761676E+02  0.18496076511E+02 -0.53895417002E+02  0.78572980305E+02  0.00000000000E+00 0. -1.
         -1    1    4    4    0  501 -0.83451941363E+02  0.16511494368E+03 -0.30110090333E+03  0.35339627209E+03  0.00000000000E+00 0.  1.
          5    1    3    3  502    0  0.81580530333E+01  0.26135161008E+02 -0.18105677797E+03  0.18317545501E+03  0.47000000000E+01 0. -1.
         13    1    6    6    0    0  0.12938154234E+02 -0.57594313072E+02  0.56539352764E+02  0.81738602534E+02  0.00000000000E+00 0. -1.
        -14    1    6    6    0    0  0.99450480356E+02 -0.16047870777E+03  0.33014819643E+02  0.19166061674E+03  0.00000000000E+00 0.  1.
         -5    1    5    5    0  503  0.17006015416E+02  0.83268396438E+01 -0.28011086711E+02  0.34135784706E+02  0.47000000000E+01 0.  1.
<mgrwt>
<rscale>  2 0.30163729E+03</rscale>
<asrwt>0</asrwt>
<pdfrwt beam="1">  1       21 0.34474592E-01 0.30174507E+03</pdfrwt>
<pdfrwt beam="2">  1       21 0.10747613E+00 0.30174507E+03</pdfrwt>
<totfact> 0.52230253E+03</totfact>
</mgrwt>
</event>
<event>
12    1  0.1473662E-001  0.1795367E+03  0.7546771E-02  0.1168590E+00
         21   -1    0    0  504  503  0.00000000000E+00  0.00000000000E+00  0.83763816941E+02  0.83763816941E+02  0.00000000000E+00 0. -1.
         21   -1    0    0  502  504 -0.00000000000E+00 -0.00000000000E+00 -0.38837780762E+03  0.38837780762E+03  0.00000000000E+00 0. -1.
          6    2    1    2  502    0  0.19995588551E+02 -0.45656199697E+02 -0.18348808606E+03  0.25671246181E+03  0.17247926887E+03 0.  0.
         24    2    3    3    0    0  0.20556475544E+02 -0.47233896044E+02 -0.29265640763E+02  0.10240933043E+03  0.83531931664E+02 0.  0.
         -6    2    1    2    0  503 -0.19995588551E+02  0.45656199697E+02 -0.12112590462E+03  0.21542916275E+03  0.17103779483E+03 0.  0.
        -24    2    5    5    0    0  0.12470351661E+02  0.79303210114E+02 -0.12385859514E+03  0.16835776824E+03  0.80986898518E+02 0.  0.
          4    1    4    4  501    0  0.47460698772E+02 -0.73271755933E+01 -0.24868628640E+02  0.54080071381E+02  0.00000000000E+00 0. -1.
         -3    1    4    4    0  501 -0.26904223228E+02 -0.39906720450E+02 -0.43970121226E+01  0.48329259049E+02  0.00000000000E+00 0.  1.
          5    1    3    3  502    0 -0.56088699382E+00  0.15776963466E+01 -0.15422244529E+03  0.15430313138E+03  0.47000000000E+01 0. -1.
         13    1    6    6    0    0 -0.23000934246E+02  0.74816509546E+01 -0.63826853334E+02  0.68256027454E+02  0.00000000000E+00 0. -1.
        -14    1    6    6    0    0  0.35471285908E+02  0.71821559159E+02 -0.60031741804E+02  0.10010174078E+03  0.00000000000E+00 0.  1.
         -5    1    5    5    0  503 -0.32465940212E+02 -0.33647010416E+02  0.27326905213E+01  0.47071394512E+02  0.47000000000E+01 0.  1.
<mgrwt>
<rscale>  2 0.17918956E+03</rscale>
<asrwt>0</asrwt>
<pdfrwt beam="1">  1       21 0.12886741E-01 0.17953665E+03</pdfrwt>
<pdfrwt beam="2">  1       21 0.59750430E-01 0.17953665E+03</pdfrwt>
<totfact> 0.13561565E+05</totfact>
</mgrwt>
</event>
<event>
12    1  0.1473662E-001  0.1795284E+03  0.7546771E-02  0.1168430E+00
         21   -1    0    0  504  503  0.00000000000E+00  0.00000000000E+00  0.16293615985E+03  0.16293615985E+03  0.00000000000E+00 0.  1.
         21   -1    0    0  502  504 -0.00000000000E+00 -0.00000000000E+00 -0.51670124592E+03  0.51670124592E+03  0.00000000000E+00 0.  1.
          6    2    1    2  502    0  0.18774678689E+02  0.41328704297E+02 -0.44403430794E+03  0.47869216732E+03  0.17297159901E+03 0.  0.
         24    2    3    3    0    0  0.76726640946E+02  0.21881883150E+02 -0.34910128723E+03  0.36568341897E+03  0.74073341513E+02 0.  0.
         -6    2    1    2    0  503 -0.18774678689E+02 -0.41328704297E+02  0.90269221873E+02  0.20094523845E+03  0.17369486486E+03 0.  0.
        -24    2    5    5    0    0  0.39614254246E+02 -0.53415376457E+02  0.17351957988E+02  0.10663525750E+03  0.81532178404E+02 0.  0.
          4    1    4    4  501    0  0.83067441163E+02  0.21287188326E+02 -0.21555789702E+03  0.23198825646E+03  0.00000000000E+00 0. -1.
         -3    1    4    4    0  501 -0.63408002174E+01  0.59469482461E+00 -0.13354339022E+03  0.13369516252E+03  0.00000000000E+00 0.  1.
          5    1    3    3  502    0 -0.57951962257E+02  0.19446821146E+02 -0.94933020707E+02  0.11300874835E+03  0.47000000000E+01 0. -1.
         13    1    6    6    0    0  0.44381089605E+02  0.17194696567E+01  0.24681348856E+02  0.50811481692E+02  0.00000000000E+00 0. -1.
        -14    1    6    6    0    0 -0.47668353585E+01 -0.55134846113E+02 -0.73293908679E+01  0.55823775811E+02  0.00000000000E+00 0.  1.
         -5    1    5    5    0  503 -0.58388932936E+02  0.12086672160E+02  0.72917263885E+02  0.94309980944E+02  0.47000000000E+01 0.  1.
<mgrwt>
<rscale>  2 0.17935325E+03</rscale>
<asrwt>0</asrwt>
<pdfrwt beam="1">  1       21 0.25067102E-01 0.17952843E+03</pdfrwt>
<pdfrwt beam="2">  1       21 0.79492499E-01 0.17952843E+03</pdfrwt>
<totfact> 0.21191587E+04</totfact>
</mgrwt>
</event>
<event>
12    1  0.1473662E-001  0.1930087E+03  0.7546771E-02  0.1156652E+00
         21   -1    0    0  504  503  0.00000000000E+00  0.00000000000E+00  0.37529991567E+03  0.37529991567E+03  0.00000000000E+00 0. -1.
         21   -1    0    0  502  504 -0.00000000000E+00 -0.00000000000E+00 -0.25172525825E+03  0.25172525825E+03  0.00000000000E+00 0.  1.
          6    2    1    2  502    0 -0.66178147303E+02  0.36925362714E+02 -0.18404646846E+03  0.26386800711E+03  0.17323450301E+03 0.  0.
         24    2    3    3    0    0 -0.76167693174E+02  0.43358398240E+02 -0.20621933278E+03  0.23827697577E+03  0.81043419138E+02 0.  0.
         -6    2    1    2    0  503  0.66178147303E+02 -0.36925362714E+02  0.30762112587E+03  0.36315716681E+03  0.17750870720E+03 0.  0.
        -24    2    5    5    0    0  0.40665737507E+02 -0.40558689748E+02  0.31933627569E+03  0.33446189099E+03  0.81181217270E+02 0.  0.
          2    1    4    4  501    0 -0.15779379650E+02  0.45419059981E+02 -0.44022897059E+02  0.65191221013E+02  0.00000000000E+00 0. -1.
         -1    1    4    4    0  501 -0.60388313524E+02 -0.20606617411E+01 -0.16219643572E+03  0.17308575475E+03  0.00000000000E+00 0.  1.
          5    1    3    3  502    0  0.99895458717E+01 -0.64330355255E+01  0.22172864327E+02  0.25591031344E+02  0.47000000000E+01 0. -1.
         13    1    6    6    0    0  0.30202795016E+02  0.11036462969E+02  0.21708658530E+03  0.21945522974E+03  0.00000000000E+00 0. -1.
        -14    1    6    6    0    0  0.10462942491E+02 -0.51595152717E+02  0.10224969038E+03  0.11500666125E+03  0.00000000000E+00 0.  1.
         -5    1    5    5    0  503  0.25512409796E+02  0.36333270343E+01 -0.11715149815E+02  0.28695275815E+02  0.47000000000E+01 0.  1.
<mgrwt>
<rscale>  2 0.19202029E+03</rscale>
<asrwt>0</asrwt>
<pdfrwt beam="1">  1       21 0.57738449E-01 0.19300873E+03</pdfrwt>
<pdfrwt beam="2">  1       21 0.38726963E-01 0.19300873E+03</pdfrwt>
<totfact> 0.18084873E+04</totfact>
</mgrwt>
</event>
<event>
12    1  0.1473662E-001  0.1868892E+03  0.7546771E-02  0.1161886E+00
         21   -1    0    0  504  503  0.00000000000E+00  0.00000000000E+00  0.27580266658E+03  0.27580266658E+03  0.00000000000E+00 0.  1.
         21   -1    0    0  502  504 -0.00000000000E+00 -0.00000000000E+00 -0.14221908450E+03  0.14221908450E+03  0.00000000000E+00 0. -1.
          6    2    1    2  502    0  0.40050562762E+02 -0.51485762779E+02  0.14006916799E+03  0.23355286549E+03  0.17513634063E+03 0.  0.
         24    2    3    3    0    0 -0.69301176296E+01 -0.51381589198E+02  0.15662775919E+03  0.18351815629E+03  0.80365194571E+02 0.  0.
         -6    2    1    2    0  503 -0.40050562762E+02  0.51485762779E+02 -0.64855859204E+01  0.18446888559E+03  0.17242933504E+03 0.  0.
        -24    2    5    5    0    0 -0.54711512737E+02  0.64826366771E+02 -0.61560837024E+02  0.12574675643E+03  0.69474474764E+02 0.  0.
          2    1    4    4  501    0 -0.18375880196E+02 -0.22654459023E+02  0.14878261214E+03  0.15161518117E+03  0.00000000000E+00 0. -1.
         -1    1    4    4    0  501  0.11445762567E+02 -0.28727130175E+02  0.78451470503E+01  0.31902975113E+02  0.00000000000E+00 0.  1.
          5    1    3    3  502    0  0.46980680391E+02 -0.10417358079E+00 -0.16558591198E+02  0.50034709199E+02  0.47000000000E+01 0. -1.
         13    1    6    6    0    0 -0.33974839457E+02  0.37040594232E+02  0.51893357532E+01  0.50529442335E+02  0.00000000000E+00 0. -1.
        -14    1    6    6    0    0 -0.20736673281E+02  0.27785772540E+02 -0.66750172778E+02  0.75217314099E+02  0.00000000000E+00 0.  1.
         -5    1    5    5    0  503  0.14660949975E+02 -0.13340603993E+02  0.55075251104E+02  0.58722129161E+02  0.47000000000E+01 0.  1.
<mgrwt>
<rscale>  2 0.18625235E+03</rscale>
<asrwt>0</asrwt>
<pdfrwt beam="1">  1       21 0.42431179E-01 0.18688919E+03</pdfrwt>
<pdfrwt beam="2">  1       21 0.21879859E-01 0.18688919E+03</pdfrwt>
<totfact> 0.10444784E+05</totfact>
</mgrwt>
</event>
<event>
12    1  0.1473662E-001  0.2538498E+03  0.7546771E-02  0.1111037E+00
         21   -1    0    0  504  503  0.00000000000E+00  0.00000000000E+00  0.42517525112E+03  0.42517525112E+03  0.00000000000E+00 0.  1.
         21   -1    0    0  502  504 -0.00000000000E+00 -0.00000000000E+00 -0.20783826517E+03  0.20783826517E+03  0.00000000000E+00 0. -1.
          6    2    1    2  502    0  0.34643063086E+02 -0.18415299164E+03 -0.56681119636E+02  0.26010092230E+03  0.17125207826E+03 0.  0.
         24    2    3    3    0    0  0.85512853597E+02 -0.93514116724E+02 -0.32126933349E+02  0.15319844667E+03  0.79876692831E+02 0.  0.
         -6    2    1    2    0  503 -0.34643063086E+02  0.18415299164E+03  0.27401810558E+03  0.37291259399E+03  0.16989824725E+03 0.  0.
        -24    2    5    5    0    0 -0.43203327532E+02  0.93230573679E+02  0.66176625195E+02  0.14584358425E+03  0.79577245272E+02 0.  0.
          2    1    4    4  501    0  0.81801329354E+02 -0.56127493781E+02 -0.50563520974E+02  0.11134820473E+03  0.00000000000E+00 0. -1.
         -1    1    4    4    0  501  0.37115242431E+01 -0.37386622943E+02  0.18436587625E+02  0.41850241942E+02  0.00000000000E+00 0.  1.
          5    1    3    3  502    0 -0.50869790511E+02 -0.90638874913E+02 -0.24554186287E+02  0.10690247563E+03  0.47000000000E+01 0. -1.
         13    1    6    6    0    0  0.19656618553E+02  0.13567866643E+02  0.29466709238E+02  0.37930945302E+02  0.00000000000E+00 0. -1.
        -14    1    6    6    0    0 -0.62859946085E+02  0.79662707036E+02  0.36709915956E+02  0.10791263894E+03  0.00000000000E+00 0.  1.
         -5    1    5    5    0  503  0.85602644459E+01  0.90922417958E+02  0.20784148039E+03  0.22706900974E+03  0.47000000000E+01 0.  1.
<mgrwt>
<rscale>  2 0.25362169E+03</rscale>
<asrwt>0</asrwt>
<pdfrwt beam="1">  1       21 0.65411577E-01 0.25384984E+03</pdfrwt>
<pdfrwt beam="2">  1       21 0.31975118E-01 0.25384984E+03</pdfrwt>
<totfact> 0.19558000E+04</totfact>
</mgrwt>
</event>
<event>
12    1  0.1473662E-001  0.2131370E+03  0.7546771E-02  0.1139211E+00
         21   -1    0    0  504  503  0.00000000000E+00  0.00000000000E+00  0.58496437177E+02  0.58496437177E+02  0.00000000000E+00 0. -1.
         21   -1    0    0  502  504 -0.00000000000E+00 -0.00000000000E+00 -0.78426751774E+03  0.78426751774E+03  0.00000000000E+00 0. -1.
          6    2    1    2  502    0  0.12216571568E+03 -0.23248135794E+02 -0.31569017763E+03  0.38060194001E+03  0.17243146633E+03 0.  0.
         24    2    3    3    0    0  0.72577284978E+02  0.48482407055E+02 -0.12907118109E+03  0.17456062593E+03  0.78702199774E+02 0.  0.
         -6    2    1    2    0  503 -0.12216571568E+03  0.23248135794E+02 -0.41008090293E+03  0.46216201491E+03  0.17309662956E+03 0.  0.
        -24    2    5    5    0    0 -0.77835825806E+02  0.45672129397E+02 -0.39077612250E+03  0.40865744339E+03  0.78425563050E+02 0.  0.
          2    1    4    4  501    0 -0.10002010809E+02  0.31429484261E+02 -0.41202740029E+02  0.52778011397E+02  0.00000000000E+00 0. -1.
         -1    1    4    4    0  501  0.82579295787E+02  0.17052922795E+02 -0.87868441056E+02  0.12178261453E+03  0.00000000000E+00 0.  1.
          5    1    3    3  502    0  0.49588430703E+02 -0.71730542849E+02 -0.18661899654E+03  0.20604131408E+03  0.47000000000E+01 0. -1.
         13    1    6    6    0    0 -0.81238345644E+02  0.58889635159E+02 -0.28798052413E+03  0.30495973539E+03  0.00000000000E+00 0. -1.
        -14    1    6    6    0    0  0.34025198383E+01 -0.13217505762E+02 -0.10279559838E+03  0.10369770800E+03  0.00000000000E+00 0.  1.
         -5    1    5    5    0  503 -0.44329889875E+02 -0.22423993603E+02 -0.19304780432E+02  0.53504571514E+02  0.47000000000E+01 0.  1.
<mgrwt>
<rscale>  2 0.21300191E+03</rscale>
<asrwt>0</asrwt>
<pdfrwt beam="1">  1       21 0.89994523E-02 0.21313700E+03</pdfrwt>
<pdfrwt beam="2">  1       21 0.12065654E+00 0.21313700E+03</pdfrwt>
<totfact> 0.50355507E+04</totfact>
</mgrwt>
</event>
<event>
12    1  0.1473662E-001  0.1805242E+03  0.7546771E-02  0.1167747E+00
         21   -1    0    0  504  503  0.00000000000E+00  0.00000000000E+00  0.30352256995E+03  0.30352256995E+03  0.00000000000E+00 0. -1.
         21   -1    0    0  502  504 -0.00000000000E+00 -0.00000000000E+00 -0.11276656232E+03  0.11276656232E+03  0.00000000000E+00 0. -1.
          6    2    1    2  502    0  0.41682545174E+02  0.24083536184E+02  0.44943865215E+02  0.18423272633E+03  0.17205898739E+03 0.  0.
         24    2    3    3    0    0  0.47961206957E+02 -0.17576440977E+02  0.82934814134E+02  0.12730841262E+03  0.81975849363E+02 0.  0.
         -6    2    1    2    0  503 -0.41682545174E+02 -0.24083536184E+02  0.14581214241E+03  0.23205640594E+03  0.17398719313E+03 0.  0.
        -24    2    5    5    0    0  0.17058410145E+02  0.43115276170E+02  0.81529349050E+02  0.12196304675E+03  0.77961744600E+02 0.  0.
          2    1    4    4  501    0  0.49946317972E+02 -0.14641041583E+02  0.84382206878E+01  0.52727586196E+02  0.00000000000E+00 0. -1.
         -1    1    4    4    0  501 -0.19851110159E+01 -0.29353993934E+01  0.74496593447E+02  0.74580826427E+02  0.00000000000E+00 0.  1.
          5    1    3    3  502    0 -0.62786617823E+01  0.41659977161E+02 -0.37990948919E+02  0.56924313704E+02  0.47000000000E+01 0. -1.
         13    1    6    6    0    0 -0.14485643818E+02  0.44956898508E+02  0.76587565636E+02  0.89981174755E+02  0.00000000000E+00 0. -1.
        -14    1    6    6    0    0  0.31544053963E+02 -0.18416223378E+01  0.49417834146E+01  0.31981871999E+02  0.00000000000E+00 0.  1.
         -5    1    5    5    0  503 -0.58740955320E+02 -0.67198812354E+02  0.64282793363E+02  0.11009335918E+03  0.47000000000E+01 0.  1.
<mgrwt>
<rscale>  2 0.18005801E+03</rscale>
<asrwt>0</asrwt>
<pdfrwt beam="1">  1       21 0.46695780E-01 0.18052422E+03</pdfrwt>
<pdfrwt beam="2">  1       21 0.17348702E-01 0.18052422E+03</pdfrwt>
<totfact> 0.13250885E+05</totfact>
</mgrwt>
</event>
<event>
12    1  0.1473662E-001  0.1918324E+03  0.7546771E-02  0.1157930E+00
         21   -1    0    0  504  503  0.00000000000E+00  0.00000000000E+00  0.34521243935E+03  0.34521243935E+03  0.00000000000E+00 0. -1.
         21   -1    0    0  502  504 -0.00000000000E+00 -0.00000000000E+00 -0.13490356923E+03  0.13490356923E+03  0.00000000000E+00 0. -1.
          6    2    1    2  502    0 -0.60201712084E+02  0.37315721723E+02 -0.88994899370E+01  0.19203873285E+03  0.17827777418E+03 0.  0.
         24    2    3    3    0    0 -0.57900814563E+02  0.42838509908E+02  0.59029582610E+02  0.12368491645E+03  0.81399168767E+02 0.  0.
         -6    2    1    2    0  503  0.60201712084E+02 -0.37315721723E+02  0.21920836005E+03  0.28807727574E+03  0.17297254826E+03 0.  0.
        -24    2    5    5    0    0  0.68363256174E+02 -0.34552666507E+02  0.23933820518E+03  0.26568205435E+03  0.86236627869E+02 0.  0.
          2    1    4    4  501    0 -0.37101373854E+02  0.55420926342E+02  0.80132057374E+01  0.67172929701E+02  0.00000000000E+00 0. -1.
         -1    1    4    4    0  501 -0.20799440710E+02 -0.12582416434E+02  0.51016376873E+02  0.56511986749E+02  0.00000000000E+00 0.  1.
          5    1    3    3  502    0 -0.23008975204E+01 -0.55227881852E+01 -0.67929072547E+02  0.68353816396E+02  0.47000000000E+01 0. -1.
         11    1    6    6    0    0  0.52482664028E+02 -0.63160078634E+02  0.15948247172E+03  0.17938306593E+03  0.00000000000E+00 0. -1.
        -12    1    6    6    0    0  0.15880592146E+02  0.28607412126E+02  0.79855733465E+02  0.86298988423E+02  0.00000000000E+00 0.  1.
         -5    1    5    5    0  503 -0.81615440903E+01 -0.27630552158E+01 -0.20129845129E+02  0.22395221387E+02  0.47000000000E+01 0.  1.
<mgrwt>
<rscale>  2 0.19059038E+03</rscale>
<asrwt>0</asrwt>
<pdfrwt beam="1">  1       21 0.53109606E-01 0.19183241E+03</pdfrwt>
<pdfrwt beam="2">  1       21 0.20754395E-01 0.19183241E+03</pdfrwt>
<totfact> 0.72354589E+04</totfact>
</mgrwt>
</event>
<event>
12    1  0.1473662E-001  0.3463019E+03  0.7546771E-02  0.1064208E+00
         21   -1    0    0  504  503  0.00000000000E+00  0.00000000000E+00  0.26512551802E+03  0.26512551802E+03  0.00000000000E+00 0.  1.
         21   -1    0    0  502  504 -0.00000000000E+00 -0.00000000000E+00 -0.47703406404E+03  0.47703406404E+03  0.00000000000E+00 0. -1.
          6    2    1    2  502    0 -0.29226473352E+03  0.67819294659E+02 -0.19168344670E+03  0.39526755418E+03  0.17168507350E+03 0.  0.
         24    2    3    3    0    0 -0.29302284773E+03  0.27625747219E+02 -0.17218271207E+03  0.35034022793E+03  0.80410308843E+02 0.  0.
         -6    2    1    2    0  503  0.29226473352E+03 -0.67819294659E+02 -0.20225099328E+02  0.34689202787E+03  0.17293609562E+03 0.  0.
        -24    2    5    5    0    0  0.17282777051E+03 -0.45898637160E+00 -0.67795508533E+02  0.20167621228E+03  0.78787148029E+02 0.  0.
          4    1    4    4  501    0 -0.18606607757E+03  0.55540403360E+02 -0.11818421800E+03  0.22731658763E+03  0.00000000000E+00 0. -1.
         -3    1    4    4    0  501 -0.10695677017E+03 -0.27914656140E+02 -0.53998494075E+02  0.12302364031E+03  0.00000000000E+00 0.  1.
          5    1    3    3  502    0  0.75811421017E+00  0.40193547440E+02 -0.19500734629E+02  0.44927326251E+02  0.47000000000E+01 0. -1.
         11    1    6    6    0    0  0.31346230877E+02  0.31539882424E+02 -0.10319335793E+02  0.45649086132E+02  0.00000000000E+00 0. -1.
        -12    1    6    6    0    0  0.14148153964E+03 -0.31998868795E+02 -0.57476172739E+02  0.15602712615E+03  0.00000000000E+00 0.  1.
         -5    1    5    5    0  503  0.11943696301E+03 -0.67360308288E+02  0.47570409205E+02  0.14521581559E+03  0.47000000000E+01 0.  1.
<mgrwt>
<rscale>  2 0.34614606E+03</rscale>
<asrwt>0</asrwt>
<pdfrwt beam="1">  1       21 0.40788542E-01 0.34630193E+03</pdfrwt>
<pdfrwt beam="2">  1       21 0.73389855E-01 0.34630193E+03</pdfrwt>
<totfact> 0.89063725E+03</totfact>
</mgrwt>
</event>
<event>
12    1  0.1473662E-001  0.1849505E+03  0.7546771E-02  0.1163102E+00
         21   -1    0    0  504  503  0.00000000000E+00  0.00000000000E+00  0.82912940165E+03  0.82912940165E+03  0.00000000000E+00 0.  1.
         21   -1    0    0  502  504 -0.00000000000E+00 -0.00000000000E+00 -0.72543911133E+02  0.72543911133E+02  0.00000000000E+00 0.  1.
          6    2    1    2  502    0  0.60347788736E+02  0.24704766333E+02  0.82203763260E+02  0.20239605651E+03  0.17307375281E+03 0.  0.
         24    2    3    3    0    0  0.10014377192E+03  0.20123516817E+02  0.94163916442E+02  0.16032654987E+03  0.80025173854E+02 0.  0.
         -6    2    1    2    0  503 -0.60347788736E+02 -0.24704766333E+02  0.67438172726E+03  0.69927725628E+03  0.17304850765E+03 0.  0.
        -24    2    5    5    0    0  0.33454421857E+02 -0.27185903436E+02  0.36244961301E+03  0.37350318632E+03  0.79225226638E+02 0.  0.
          2    1    4    4  501    0  0.73719778632E+02  0.36389447384E+02  0.99256461581E+02  0.12888228275E+03  0.00000000000E+00 0. -1.
         -1    1    4    4    0  501  0.26423993287E+02 -0.16265930567E+02 -0.50925451394E+01  0.31444267116E+02  0.00000000000E+00 0.  1.
          5    1    3    3  502    0 -0.39795983183E+02  0.45812495160E+01 -0.11960153181E+02  0.42069506638E+02  0.47000000000E+01 0. -1.
         13    1    6    6    0    0 -0.55856448400E+01 -0.42986428691E+02  0.12389427898E+03  0.13125861817E+03  0.00000000000E+00 0. -1.
        -14    1    6    6    0    0  0.39040066697E+02  0.15800525256E+02  0.23855533403E+03  0.24224456815E+03  0.00000000000E+00 0.  1.
         -5    1    5    5    0  503 -0.93802210593E+02  0.24811371027E+01  0.31193211425E+03  0.32577406995E+03  0.47000000000E+01 0.  1.
<mgrwt>
<rscale>  2 0.18494464E+03</rscale>
<asrwt>0</asrwt>
<pdfrwt beam="1">  1       21 0.12755836E+00 0.18495055E+03</pdfrwt>
<pdfrwt beam="2">  1       21 0.11160602E-01 0.18495055E+03</pdfrwt>
<totfact> 0.30418920E+04</totfact>
</mgrwt>
</event>
<event>
12    1  0.1473662E-001  0.2011663E+03  0.7546771E-02  0.1148895E+00
         21   -1    0    0  504  503  0.00000000000E+00  0.00000000000E+00  0.13951972091E+03  0.13951972091E+03  0.00000000000E+00 0.  1.
         21   -1    0    0  502  504 -0.00000000000E+00 -0.00000000000E+00 -0.40517798350E+03  0.40517798350E+03  0.00000000000E+00 0.  1.
          6    2    1    2  502    0  0.95916381501E+02  0.31567816277E+02 -0.27844073198E+03  0.34312565872E+03  0.17323249459E+03 0.  0.
         24    2    3    3    0    0 -0.18763148416E+02  0.17896046832E+02 -0.13262421124E+03  0.15705346955E+03  0.80026787143E+02 0.  0.
         -6    2    1    2    0  503 -0.95916381501E+02 -0.31567816277E+02  0.12782469392E+02  0.20157204568E+03  0.17398683517E+03 0.  0.
        -24    2    5    5    0    0 -0.30339601628E+02  0.13507948985E+02 -0.50108231753E+02  0.10003649052E+03  0.79959417412E+02 0.  0.
          4    1    4    4  501    0 -0.45629871259E+02 -0.77870358583E+01 -0.83244115082E+02  0.95248652350E+02  0.00000000000E+00 0. -1.
         -3    1    4    4    0  501  0.26866722843E+02  0.25683082690E+02 -0.49380096161E+02  0.61804817204E+02  0.00000000000E+00 0.  1.
          5    1    3    3  502    0  0.11467952992E+03  0.13671769445E+02 -0.14581652074E+03  0.18607218917E+03  0.47000000000E+01 0. -1.
         13    1    6    6    0    0  0.17902891987E+02  0.22992835179E+02 -0.40574346353E+02  0.49954595315E+02  0.00000000000E+00 0. -1.
        -14    1    6    6    0    0 -0.48242493614E+02 -0.94848861941E+01 -0.95338853993E+01  0.50081895202E+02  0.00000000000E+00 0.  1.
         -5    1    5    5    0  503 -0.65576779873E+02 -0.45075765262E+02  0.62890701145E+02  0.10153555517E+03  0.47000000000E+01 0.  1.
<mgrwt>
<rscale>  2 0.20100313E+03</rscale>
<asrwt>0</asrwt>
<pdfrwt beam="1">  1       21 0.21464573E-01 0.20116634E+03</pdfrwt>
<pdfrwt beam="2">  1       21 0.62335073E-01 0.20116634E+03</pdfrwt>
<totfact> 0.48052664E+04</totfact>
</mgrwt>
</event>
<event>
12    1  0.1473662E-001  0.1866423E+03  0.7546771E-02  0.1161649E+00
         21   -1    0    0  504  503  0.00000000000E+00  0.00000000000E+00  0.32058400292E+03  0.32058400292E+03  0.00000000000E+00 0. -1.
         21   -1    0    0  502  504 -0.00000000000E+00 -0.00000000000E+00 -0.12391758233E+03  0.12391758233E+03  0.00000000000E+00 0. -1.
          6    2    1    2  502    0  0.68891996622E+02 -0.11425461169E+02  0.19433415917E+02  0.18711685571E+03  0.17250626561E+03 0.  0.
         24    2    3    3    0    0 -0.22387295845E+02 -0.21413608236E+02 -0.37117246747E+02  0.79173630990E+02  0.62698007983E+02 0.  0.
         -6    2    1    2    0  503 -0.68891996622E+02  0.11425461169E+02  0.17723300467E+03  0.25738472954E+03  0.17308585354E+03 0.  0.
        -24    2    5    5    0    0 -0.46990366309E+02  0.65902872630E+02  0.16369135553E+03  0.19694520579E+03  0.73764971778E+02 0.  0.
          2    1    4    4  501    0 -0.29896426471E+02 -0.39800592083E+02 -0.29744712063E+02  0.57988200020E+02  0.00000000000E+00 0. -1.
         -1    1    4    4    0  501  0.75091306252E+01  0.18386983846E+02 -0.73725346834E+01  0.21185430970E+02  0.00000000000E+00 0.  1.
          5    1    3    3  502    0  0.91279292468E+02  0.99881470679E+01  0.56550662663E+02  0.10794322472E+03  0.47000000000E+01 0. -1.
         13    1    6    6    0    0 -0.48449181675E+02  0.51429051189E+01  0.74264715531E+02  0.88820159034E+02  0.00000000000E+00 0. -1.
        -14    1    6    6    0    0  0.14588153660E+01  0.60759967511E+02  0.89426639999E+02  0.10812504675E+03  0.00000000000E+00 0.  1.
         -5    1    5    5    0  503 -0.21901630313E+02 -0.54477411461E+02  0.13541649142E+02  0.60439523752E+02  0.47000000000E+01 0.  1.
<mgrwt>
<rscale>  2 0.18650785E+03</rscale>
<asrwt>0</asrwt>
<pdfrwt beam="1">  1       21 0.49320616E-01 0.18664233E+03</pdfrwt>
<pdfrwt beam="2">  1       21 0.19064243E-01 0.18664233E+03</pdfrwt>
<totfact> 0.99178385E+04</totfact>
</mgrwt>
</event>
<event>
12    1  0.1473662E-001  0.1980933E+03  0.7546771E-02  0.1151430E+00
         21   -1    0    0  504  503  0.00000000000E+00  0.00000000000E+00  0.33185342280E+02  0.33185342280E+02  0.00000000000E+00 0.  1.
         21   -1    0    0  502  504 -0.00000000000E+00 -0.00000000000E+00 -0.14892822319E+04  0.14892822319E+04  0.00000000000E+00 0.  1.
          6    2    1    2  502    0  0.77176012239E+02 -0.58663322073E+02 -0.38092326859E+03  0.42919759301E+03  0.17236738400E+03 0.  0.
         24    2    3    3    0    0 -0.22736248773E+02 -0.27788315997E+01 -0.15720740011E+03  0.17784840167E+03  0.79945158784E+02 0.  0.
         -6    2    1    2    0  503 -0.77176012239E+02  0.58663322073E+02 -0.10751736210E+04  0.10932699812E+04  0.17275246500E+03 0.  0.
        -24    2    5    5    0    0 -0.32944685851E+00  0.27479884816E+01 -0.23571227029E+03  0.24843309247E+03  0.78428738934E+02 0.  0.
          2    1    4    4  501    0 -0.36347192966E+02 -0.15622857744E+02 -0.15382466060E+03  0.15883078520E+03  0.00000000000E+00 0. -1.
         -1    1    4    4    0  501  0.13610944193E+02  0.12844026144E+02 -0.33827395157E+01  0.19017616466E+02  0.00000000000E+00 0.  1.
          5    1    3    3  502    0  0.99912261012E+02 -0.55884490474E+02 -0.22371586848E+03  0.25134919134E+03  0.47000000000E+01 0. -1.
         11    1    6    6    0    0 -0.20487142734E+02  0.25628476916E+02 -0.19404647786E+03  0.19680085726E+03  0.00000000000E+00 0. -1.
        -12    1    6    6    0    0  0.20157695876E+02 -0.22880488434E+02 -0.41665792430E+02  0.51632235211E+02  0.00000000000E+00 0.  1.
         -5    1    5    5    0  503 -0.76846565381E+02  0.55915333592E+02 -0.83946135074E+03  0.84483688872E+03  0.47000000000E+01 0.  1.
<mgrwt>
<rscale>  2 0.19800927E+03</rscale>
<asrwt>0</asrwt>
<pdfrwt beam="1">  1       21 0.51054364E-02 0.19809325E+03</pdfrwt>
<pdfrwt beam="2">  1       21 0.22912038E+00 0.19809325E+03</pdfrwt>
<totfact> 0.22884943E+04</totfact>
</mgrwt>
</event>
<event>
12    1  0.1473662E-001  0.1734102E+03  0.7546771E-02  0.1174465E+00
         21   -1    0    0  504  503  0.00000000000E+00  0.00000000000E+00  0.11406880916E+04  0.11406880916E+04  0.00000000000E+00 0. -1.
         21   -1    0    0  502  504 -0.00000000000E+00 -0.00000000000E+00 -0.32929946879E+02  0.32929946879E+02  0.00000000000E+00 0. -1.
          6    2    1    2  502    0 -0.32844315031E+01 -0.97261153883E+01  0.28966823274E+03  0.33735120767E+03  0.17260581522E+03 0.  0.
         24    2    3    3    0    0  0.42911219951E+02  0.22578204700E+02  0.92593858924E+02  0.13231948787E+03  0.81139854788E+02 0.  0.
         -6    2    1    2    0  503  0.32844315031E+01  0.97261153883E+01  0.81808991203E+03  0.83626683086E+03  0.17310610449E+03 0.  0.
        -24    2    5    5    0    0 -0.15629766377E+02 -0.52962402261E+02  0.62180554653E+03  0.62929524037E+03  0.79505070346E+02 0.  0.
          2    1    4    4  501    0  0.26624647212E+02  0.53325510217E+02  0.55121731353E+02  0.81184278936E+02  0.00000000000E+00 0. -1.
         -1    1    4    4    0  501  0.16286572739E+02 -0.30747305517E+02  0.37472127571E+02  0.51135208935E+02  0.00000000000E+00 0.  1.
          5    1    3    3  502    0 -0.46195651454E+02 -0.32304320088E+02  0.19707437381E+03  0.20503171980E+03  0.47000000000E+01 0. -1.
         13    1    6    6    0    0  0.17287731571E+02 -0.30133792319E+02  0.49712557792E+03  0.49833798905E+03  0.00000000000E+00 0. -1.
        -14    1    6    6    0    0 -0.32917497947E+02 -0.22828609942E+02  0.12467996861E+03  0.13095725133E+03  0.00000000000E+00 0.  1.
         -5    1    5    5    0  503  0.18914197880E+02  0.62688517650E+02  0.19628436550E+03  0.20697159048E+03  0.47000000000E+01 0.  1.
<mgrwt>
<rscale>  2 0.17328524E+03</rscale>
<asrwt>0</asrwt>
<pdfrwt beam="1">  1       21 0.17549045E+00 0.17341023E+03</pdfrwt>
<pdfrwt beam="2">  1       21 0.50661465E-02 0.17341023E+03</pdfrwt>
<totfact> 0.52007989E+04</totfact>
</mgrwt>
</event>
<event>
12    1  0.1473662E-001  0.2017066E+03  0.7546771E-02  0.1150190E+00
         21   -1    0    0  504  503  0.00000000000E+00  0.00000000000E+00  0.16309248084E+03  0.16309248084E+03  0.00000000000E+00 0.  1.
         21   -1    0    0  502  504 -0.00000000000E+00 -0.00000000000E+00 -0.75661880903E+03  0.75661880903E+03  0.00000000000E+00 0.  1.
          6    2    1    2  502    0  0.43253371015E+02  0.93862957807E+02 -0.67511262623E+03  0.70212939767E+03  0.16287272339E+03 0.  0.
         24    2    3    3    0    0 -0.15366087838E+02  0.84792384636E+01 -0.20698797523E+03  0.22266156834E+03  0.80163195964E+02 0.  0.
         -6    2    1    2    0  503 -0.43253371015E+02 -0.93862957807E+02  0.81586298042E+02  0.21758189221E+03  0.17321791719E+03 0.  0.
        -24    2    5    5    0    0  0.30049374985E+02 -0.27933484182E+01  0.28825809573E+02  0.89235776298E+02  0.78875400104E+02 0.  0.
          2    1    4    4  501    0 -0.27615355314E+02 -0.28895651119E+02 -0.75635731401E+02  0.85547240559E+02  0.00000000000E+00 0. -1.
         -1    1    4    4    0  501  0.12249267476E+02  0.37374889583E+02 -0.13135224383E+03  0.13711432778E+03  0.00000000000E+00 0.  1.
          5    1    3    3  502    0  0.58619458853E+02  0.85383719343E+02 -0.46812465100E+03  0.47946782933E+03  0.47000000000E+01 0. -1.
         11    1    6    6    0    0  0.26747089148E+02  0.32468117415E+02  0.33148043690E+02  0.53557242525E+02  0.00000000000E+00 0. -1.
        -12    1    6    6    0    0  0.33022858364E+01 -0.35261465833E+02 -0.43222341173E+01  0.35678533773E+02  0.00000000000E+00 0.  1.
         -5    1    5    5    0  503 -0.73302746000E+02 -0.91069609389E+02  0.52760488469E+02  0.12834611591E+03  0.47000000000E+01 0.  1.
<mgrwt>
<rscale>  2 0.19946677E+03</rscale>
<asrwt>0</asrwt>
<pdfrwt beam="1">  1       21 0.25091151E-01 0.20170661E+03</pdfrwt>
<pdfrwt beam="2">  1       21 0.11640289E+00 0.20170661E+03</pdfrwt>
<totfact> 0.85042359E+03</totfact>
</mgrwt>
</event>
<event>
12    1  0.1473662E-001  0.1901624E+03  0.7546771E-02  0.1158453E+00
         21   -1    0    0  504  503  0.00000000000E+00  0.00000000000E+00  0.70361289983E+03  0.70361289983E+03  0.00000000000E+00 0. -1.
         21   -1    0    0  502  504 -0.00000000000E+00 -0.00000000000E+00 -0.10679434567E+03  0.10679434567E+03  0.00000000000E+00 0. -1.
          6    2    1    2  502    0  0.45172789237E+02  0.62574404296E+02  0.58980056434E+01  0.18964254185E+03  0.17312819022E+03 0.  0.
         24    2    3    3    0    0 -0.49221870131E+01  0.38118461216E+02  0.63171447666E+02  0.10958045995E+03  0.80870268896E+02 0.  0.
         -6    2    1    2    0  503 -0.45172789237E+02 -0.62574404296E+02  0.59092054851E+03  0.62076470365E+03  0.17379754223E+03 0.  0.
        -24    2    5    5    0    0 -0.21673950452E+02 -0.57890455791E+02  0.58756164754E+03  0.59611704629E+03  0.79408930333E+02 0.  0.
          4    1    4    4  501    0  0.34357689928E+02  0.35337182423E+02  0.42637806751E+02  0.65170160989E+02  0.00000000000E+00 0. -1.
         -3    1    4    4    0  501 -0.39279876941E+02  0.27812787937E+01  0.20533640915E+02  0.44410298957E+02  0.00000000000E+00 0.  1.
          5    1    3    3  502    0  0.50094976250E+02  0.24455943080E+02 -0.57273442022E+02  0.80062081902E+02  0.47000000000E+01 0. -1.
         11    1    6    6    0    0 -0.33241810818E+02 -0.18847466323E+02  0.10321606431E+03  0.11006271351E+03  0.00000000000E+00 0. -1.
        -12    1    6    6    0    0  0.11567860366E+02 -0.39042989469E+02  0.48434558323E+03  0.48605433278E+03  0.00000000000E+00 0.  1.
         -5    1    5    5    0  503 -0.23498838785E+02 -0.46839485049E+01  0.33589009753E+01  0.24647657365E+02  0.47000000000E+01 0.  1.
<mgrwt>
<rscale>  2 0.19000929E+03</rscale>
<asrwt>0</asrwt>
<pdfrwt beam="1">  1       21 0.10824814E+00 0.19016236E+03</pdfrwt>
<pdfrwt beam="2">  1       21 0.16429900E-01 0.19016236E+03</pdfrwt>
<totfact> 0.22585300E+04</totfact>
</mgrwt>
</event>
<event>
12    1  0.1473662E-001  0.2155027E+03  0.7546771E-02  0.1137436E+00
         21   -1    0    0  504  503  0.00000000000E+00  0.00000000000E+00  0.38356887751E+02  0.38356887751E+02  0.00000000000E+00 0. -1.
         21   -1    0    0  502  504 -0.00000000000E+00 -0.00000000000E+00 -0.13218436284E+04  0.13218436284E+04  0.00000000000E+00 0.  1.
          6    2    1    2  502    0  0.10606019316E+03 -0.71735735054E+02 -0.43951844243E+03  0.48915291526E+03  0.17233494425E+03 0.  0.
         24    2    3    3    0    0  0.13494903399E+03 -0.22975511987E+02 -0.32595404623E+03  0.36214470071E+03  0.78508777045E+02 0.  0.
         -6    2    1    2    0  503 -0.10606019316E+03  0.71735735054E+02 -0.84396829822E+03  0.87104760089E+03  0.17333970800E+03 0.  0.
        -24    2    5    5    0    0  0.14945708609E+02  0.12891709023E+02 -0.35787489522E+03  0.36665297950E+03  0.77268340050E+02 0.  0.
          2    1    4    4  501    0  0.29537216816E+02  0.43447732390E+01 -0.16546087415E+02  0.34133520775E+02  0.00000000000E+00 0. -1.
         -1    1    4    4    0  501  0.10541181717E+03 -0.27320285226E+02 -0.30940795881E+03  0.32801117993E+03  0.00000000000E+00 0.  1.
          5    1    3    3  502    0 -0.28888840829E+02 -0.48760223067E+02 -0.11356439621E+03  0.12700821455E+03  0.47000000000E+01 0. -1.
         11    1    6    6    0    0  0.29270296575E+02  0.28676492012E+02 -0.10245863350E+03  0.11034882435E+03  0.00000000000E+00 0. -1.
        -12    1    6    6    0    0 -0.14324587966E+02 -0.15784782989E+02 -0.25541626172E+03  0.25630415515E+03  0.00000000000E+00 0.  1.
         -5    1    5    5    0  503 -0.12100590177E+03  0.58844026031E+02 -0.48609340299E+03  0.50439462140E+03  0.47000000000E+01 0.  1.
<mgrwt>
<rscale>  2 0.21530063E+03</rscale>
<asrwt>0</asrwt>
<pdfrwt beam="1">  1       21 0.59010603E-02 0.21550275E+03</pdfrwt>
<pdfrwt beam="2">  1       21 0.20336054E+00 0.21550275E+03</pdfrwt>
<totfact> 0.25502187E+04</totfact>
</mgrwt>
</event>
<event>
12    1  0.1473662E-001  0.1811311E+03  0.7546771E-02  0.1167234E+00
         21   -1    0    0  504  503  0.00000000000E+00  0.00000000000E+00  0.62465335811E+02  0.62465335811E+02  0.00000000000E+00 0. -1.
         21   -1    0    0  502  504 -0.00000000000E+00 -0.00000000000E+00 -0.63215503925E+03  0.63215503925E+03  0.00000000000E+00 0. -1.
          6    2    1    2  502    0  0.53097878182E+02  0.49937916185E+01 -0.43318748451E+03  0.46953154772E+03  0.17310157408E+03 0.  0.
         24    2    3    3    0    0  0.56294631725E+02  0.37523014834E+02 -0.42155999907E+03  0.43452214879E+03  0.80744057152E+02 0.  0.
         -6    2    1    2    0  503 -0.53097878182E+02 -0.49937916185E+01 -0.13650221893E+03  0.22508882734E+03  0.17084437889E+03 0.  0.
        -24    2    5    5    0    0 -0.70851553441E+01 -0.56146581414E+02 -0.12064283886E+03  0.15432592390E+03  0.77840594743E+02 0.  0.
          4    1    4    4  501    0  0.74338573234E+02  0.25733967503E+02 -0.26328166730E+03  0.27478299964E+03  0.00000000000E+00 0. -1.
         -3    1    4    4    0  501 -0.18043941509E+02  0.11789047331E+02 -0.15827833177E+03  0.15973914915E+03  0.00000000000E+00 0.  1.
          5    1    3    3  502    0 -0.31967535429E+01 -0.32529223216E+02 -0.11627485436E+02  0.35009398935E+02  0.47000000000E+01 0. -1.
         11    1    6    6    0    0 -0.36251884351E+02 -0.89537900475E+01 -0.29338766857E+02  0.47488237659E+02  0.00000000000E+00 0. -1.
        -12    1    6    6    0    0  0.29166729007E+02 -0.47192791367E+02 -0.91304072003E+02  0.10683768625E+03  0.00000000000E+00 0.  1.
         -5    1    5    5    0  503 -0.46012722838E+02  0.51152789796E+02 -0.15859380074E+02  0.70762903439E+02  0.47000000000E+01 0.  1.
<mgrwt>
<rscale>  2 0.18058971E+03</rscale>
<asrwt>0</asrwt>
<pdfrwt beam="1">  1       21 0.96100523E-02 0.18113111E+03</pdfrwt>
<pdfrwt beam="2">  1       21 0.97254615E-01 0.18113111E+03</pdfrwt>
<totfact> 0.76702912E+04</totfact>
</mgrwt>
</event>
<event>
12    1  0.1473662E-001  0.1940005E+03  0.7546771E-02  0.1154905E+00
         21   -1    0    0  504  503  0.00000000000E+00  0.00000000000E+00  0.17941773503E+03  0.17941773503E+03  0.00000000000E+00 0. -1.
         21   -1    0    0  502  504 -0.00000000000E+00 -0.00000000000E+00 -0.31203909472E+03  0.31203909472E+03  0.00000000000E+00 0. -1.
          6    2    1    2  502    0  0.70646267067E+02 -0.53688409443E+02 -0.20699764915E+03  0.28368768809E+03  0.17250315146E+03 0.  0.
         24    2    3    3    0    0  0.10991669751E+03 -0.36225434277E+02 -0.16473432106E+03  0.22322777484E+03  0.96432776824E+02 0.  0.
         -6    2    1    2    0  503 -0.70646267067E+02  0.53688409443E+02  0.74376289451E+02  0.20776914166E+03  0.17251911034E+03 0.  0.
        -24    2    5    5    0    0 -0.95779434557E+02  0.83263258975E+02  0.39646138060E+02  0.15547553546E+03  0.80587564085E+02 0.  0.
          2    1    4    4  501    0  0.10840274646E+03  0.50185249266E+01 -0.12953639640E+03  0.16898526274E+03  0.00000000000E+00 0. -1.
         -1    1    4    4    0  501  0.15139510538E+01 -0.41243959204E+02 -0.35197924663E+02  0.54242512102E+02  0.00000000000E+00 0.  1.
          5    1    3    3  502    0 -0.39270430445E+02 -0.17462975166E+02 -0.42263328088E+02  0.60459913249E+02  0.47000000000E+01 0. -1.
         13    1    6    6    0    0 -0.15421626525E+02  0.66427299028E+02  0.16221203143E+02  0.70096647938E+02  0.00000000000E+00 0. -1.
        -14    1    6    6    0    0 -0.80357808032E+02  0.16835959947E+02  0.23424934917E+02  0.85378887524E+02  0.00000000000E+00 0.  1.
         -5    1    5    5    0  503  0.25133167490E+02 -0.29574849532E+02  0.34730151392E+02  0.52293606193E+02  0.47000000000E+01 0.  1.
<mgrwt>
<rscale>  2 0.19399693E+03</rscale>
<asrwt>0</asrwt>
<pdfrwt beam="1">  1       21 0.27602729E-01 0.19400047E+03</pdfrwt>
<pdfrwt beam="2">  1       21 0.48006014E-01 0.19400047E+03</pdfrwt>
<totfact> 0.51906944E+04</totfact>
</mgrwt>
</event>
<event>
12    1  0.1473662E-001  0.2118068E+03  0.7546771E-02  0.1140357E+00
         21   -1    0    0  504  503  0.00000000000E+00  0.00000000000E+00  0.28248485299E+03  0.28248485299E+03  0.00000000000E+00 0.  1.
         21   -1    0    0  502  504 -0.00000000000E+00 -0.00000000000E+00 -0.30175608845E+03  0.30175608845E+03  0.00000000000E+00 0.  1.
          6    2    1    2  502    0  0.86505594007E+02  0.87796259992E+02 -0.21127752998E+03  0.29916602895E+03  0.17225190025E+03 0.  0.
         24    2    3    3    0    0 -0.89275330147E+01  0.68297230947E+02 -0.15081754236E+03  0.18442634980E+03  0.80764687938E+02 0.  0.
         -6    2    1    2    0  503 -0.86505594007E+02 -0.87796259992E+02  0.19200629451E+03  0.28507491249E+03  0.17090900368E+03 0.  0.
        -24    2    5    5    0    0  0.20658058324E+01  0.14036020728E+02  0.94025203903E+02  0.11823040290E+03  0.70259602678E+02 0.  0.
          4    1    4    4  501    0 -0.12167863331E+02 -0.89632404164E+01 -0.73637558539E+02  0.75172379265E+02  0.00000000000E+00 0. -1.
         -3    1    4    4    0  501  0.32403303168E+01  0.77260471363E+02 -0.77179983822E+02  0.10925397054E+03  0.00000000000E+00 0.  1.
          5    1    3    3  502    0  0.95433127021E+02  0.19499029045E+02 -0.60459987619E+02  0.11473967914E+03  0.47000000000E+01 0. -1.
         13    1    6    6    0    0 -0.89021815682E+01  0.32323963264E+01  0.10091877012E+03  0.10136219899E+03  0.00000000000E+00 0. -1.
        -14    1    6    6    0    0  0.10967987401E+02  0.10803624402E+02 -0.68935662131E+01  0.16868203905E+02  0.00000000000E+00 0.  1.
         -5    1    5    5    0  503 -0.88571399839E+02 -0.10183228072E+03  0.97981090609E+02  0.16684450960E+03  0.47000000000E+01 0.  1.
<mgrwt>
<rscale>  2 0.21153360E+03</rscale>
<asrwt>0</asrwt>
<pdfrwt beam="1">  1       21 0.43459209E-01 0.21180679E+03</pdfrwt>
<pdfrwt beam="2">  1       21 0.46424013E-01 0.21180679E+03</pdfrwt>
<totfact> 0.22369040E+04</totfact>
</mgrwt>
</event>
<event>
12    1  0.1473662E-001  0.2488687E+03  0.7546771E-02  0.1114025E+00
         21   -1    0    0  504  503  0.00000000000E+00  0.00000000000E+00  0.31967721394E+03  0.31967721394E+03  0.00000000000E+00 0. -1.
         21   -1    0    0  502  504 -0.00000000000E+00 -0.00000000000E+00 -0.30368627620E+03  0.30368627620E+03  0.00000000000E+00 0. -1.
          6    2    1    2  502    0 -0.73874487518E+02  0.16355800133E+03 -0.17955144884E+03  0.30687840088E+03  0.17241511082E+03 0.  0.
         24    2    3    3    0    0 -0.52388490002E+02  0.12005161560E+03 -0.20155563586E+03  0.25339262767E+03  0.80163614674E+02 0.  0.
         -6    2    1    2    0  503  0.73874487518E+02 -0.16355800133E+03  0.19554238658E+03  0.31648508926E+03  0.17238714299E+03 0.  0.
        -24    2    5    5    0    0  0.64364410092E+02 -0.67373170955E+02  0.33402656175E+02  0.12766415466E+03  0.80625538723E+02 0.  0.
          4    1    4    4  501    0 -0.25700468946E+02  0.96318716272E+02 -0.83454193285E+02  0.13000927500E+03  0.00000000000E+00 0. -1.
         -3    1    4    4    0  501 -0.26688021056E+02  0.23732899328E+02 -0.11810144258E+03  0.12338335267E+03  0.00000000000E+00 0.  1.
          5    1    3    3  502    0 -0.21485997516E+02  0.43506385733E+02  0.22004187025E+02  0.53485773205E+02  0.47000000000E+01 0. -1.
         11    1    6    6    0    0  0.45876130286E+02 -0.42519228981E+02  0.60119792918E+02  0.86757672074E+02  0.00000000000E+00 0. -1.
        -12    1    6    6    0    0  0.18488279806E+02 -0.24853941973E+02 -0.26717136743E+02  0.40906482586E+02  0.00000000000E+00 0.  1.
         -5    1    5    5    0  503  0.95100774258E+01 -0.96184830377E+02  0.16213973041E+03  0.18882093460E+03  0.47000000000E+01 0.  1.
<mgrwt>
<rscale>  2 0.24886386E+03</rscale>
<asrwt>0</asrwt>
<pdfrwt beam="1">  1       21 0.49181110E-01 0.24886870E+03</pdfrwt>
<pdfrwt beam="2">  1       21 0.46720965E-01 0.24886870E+03</pdfrwt>
<totfact> 0.16756569E+04</totfact>
</mgrwt>
</event>
<event>
12    1  0.1473662E-001  0.2374412E+03  0.7546771E-02  0.1121709E+00
         21   -1    0    0  504  503  0.00000000000E+00  0.00000000000E+00  0.18598792958E+04  0.18598792958E+04  0.00000000000E+00 0. -1.
         21   -1    0    0  502  504 -0.00000000000E+00 -0.00000000000E+00 -0.30870182629E+02  0.30870182629E+02  0.00000000000E+00 0. -1.
          6    2    1    2  502    0  0.14387718680E+03 -0.75661621668E+02  0.77356786439E+03  0.80918820168E+03  0.17306928974E+03 0.  0.
         24    2    3    3    0    0  0.18869458223E+02 -0.57638188540E+02  0.46283815706E+03  0.47373803048E+03  0.80810547930E+02 0.  0.
         -6    2    1    2    0  503 -0.14387718680E+03  0.75661621668E+02  0.10554412488E+04  0.10815612767E+04  0.17144456787E+03 0.  0.
        -24    2    5    5    0    0 -0.24468188771E+02  0.36687349407E+02  0.62387383932E+03  0.63206153079E+03  0.91315702072E+02 0.  0.
          4    1    4    4  501    0 -0.16588212578E+01 -0.66107636005E+02  0.21582323196E+03  0.22572691173E+03  0.00000000000E+00 0. -1.
         -3    1    4    4    0  501  0.20528279481E+02  0.84694474649E+01  0.24701492510E+03  0.24801111874E+03  0.00000000000E+00 0.  1.
          5    1    3    3  502    0  0.12500772857E+03 -0.18023433128E+02  0.31072970732E+03  0.33545017120E+03  0.47000000000E+01 0. -1.
         11    1    6    6    0    0 -0.28133218080E+02  0.21848074622E+02  0.75565457214E+02  0.83540137947E+02  0.00000000000E+00 0. -1.
        -12    1    6    6    0    0  0.36650293086E+01  0.14839274785E+02  0.54830838210E+03  0.54852139284E+03  0.00000000000E+00 0.  1.
         -5    1    5    5    0  503 -0.11940899803E+03  0.38974272261E+02  0.43156740945E+03  0.44949974594E+03  0.47000000000E+01 0.  1.
<mgrwt>
<rscale>  2 0.23714520E+03</rscale>
<asrwt>0</asrwt>
<pdfrwt beam="1">  1       21 0.28613519E+00 0.23744116E+03</pdfrwt>
<pdfrwt beam="2">  1       21 0.47492603E-02 0.23744116E+03</pdfrwt>
<totfact> 0.11542155E+04</totfact>
</mgrwt>
</event>
<event>
12    1  0.1473662E-001  0.3459832E+03  0.7546771E-02  0.1064314E+00
         21   -1    0    0  504  503  0.00000000000E+00  0.00000000000E+00  0.23624042741E+03  0.23624042741E+03  0.00000000000E+00 0.  1.
         21   -1    0    0  502  504 -0.00000000000E+00 -0.00000000000E+00 -0.51454222155E+03  0.51454222155E+03  0.00000000000E+00 0.  1.
          6    2    1    2  502    0 -0.23800238563E+02  0.29828881269E+03 -0.91350212446E+02  0.35783971306E+03  0.17367133269E+03 0.  0.
         24    2    3    3    0    0  0.16492645939E+02  0.23208087131E+03 -0.12265925783E+03  0.27411782604E+03  0.77212374818E+02 0.  0.
         -6    2    1    2    0  503  0.23800238563E+02 -0.29828881269E+03 -0.18695158169E+03  0.39294293590E+03  0.17294678327E+03 0.  0.
        -24    2    5    5    0    0  0.55605061469E+02 -0.90509733428E+02 -0.71573706782E+02  0.15311417082E+03  0.83888134427E+02 0.  0.
          2    1    4    4  501    0 -0.15723369333E+02  0.92366183675E+02 -0.15159654078E+02  0.94913388632E+02  0.00000000000E+00 0. -1.
         -1    1    4    4    0  501  0.32216015272E+02  0.13971468764E+03 -0.10749960375E+03  0.17920443741E+03  0.00000000000E+00 0.  1.
          5    1    3    3  502    0 -0.40292884503E+02  0.66207941380E+02  0.31309045382E+02  0.83721887019E+02  0.47000000000E+01 0. -1.
         13    1    6    6    0    0 -0.89217926935E+01 -0.51886718028E+02 -0.53680099333E+01  0.52921124547E+02  0.00000000000E+00 0. -1.
        -14    1    6    6    0    0  0.64526854162E+02 -0.38623015400E+02 -0.66205696849E+02  0.10019304628E+03  0.00000000000E+00 0.  1.
         -5    1    5    5    0  503 -0.31804822905E+02 -0.20777907926E+03 -0.11537787491E+03  0.23982876508E+03  0.47000000000E+01 0.  1.
<mgrwt>
<rscale>  2 0.34589242E+03</rscale>
<asrwt>0</asrwt>
<pdfrwt beam="1">  1       21 0.36344681E-01 0.34598324E+03</pdfrwt>
<pdfrwt beam="2">  1       21 0.79160342E-01 0.34598324E+03</pdfrwt>
<totfact> 0.94859048E+03</totfact>
</mgrwt>
</event>
<event>
12    1  0.1473662E-001  0.2336834E+03  0.7546771E-02  0.1124294E+00
         21   -1    0    0  504  503  0.00000000000E+00  0.00000000000E+00  0.48883623592E+03  0.48883623592E+03  0.00000000000E+00 0.  1.
         21   -1    0    0  502  504 -0.00000000000E+00 -0.00000000000E+00 -0.21657724934E+03  0.21657724934E+03  0.00000000000E+00 0. -1.
          6    2    1    2  502    0  0.12312763237E+03  0.93340406372E+02 -0.11020042305E+03  0.25721362275E+03  0.17361413874E+03 0.  0.
         24    2    3    3    0    0  0.15775055577E+03  0.87034006329E+02 -0.10861406846E+03  0.22167316655E+03  0.69870027882E+02 0.  0.
         -6    2    1    2    0  503 -0.12312763237E+03 -0.93340406372E+02  0.38245940962E+03  0.44819986251E+03  0.17531420774E+03 0.  0.
        -24    2    5    5    0    0  0.34104275704E+00 -0.55286118456E+02  0.21969020840E+03  0.24033320950E+03  0.80247072966E+02 0.  0.
          4    1    4    4  501    0  0.11050123708E+03  0.91165811822E+02 -0.96486451370E+02  0.17271758434E+03  0.00000000000E+00 0. -1.
         -3    1    4    4    0  501  0.47249318686E+02 -0.41318054927E+01 -0.12127617088E+02  0.48955582207E+02  0.00000000000E+00 0.  1.
          5    1    3    3  502    0 -0.34622923397E+02  0.63064000432E+01 -0.15863545918E+01  0.35540456201E+02  0.47000000000E+01 0. -1.
         11    1    6    6    0    0  0.16052318108E+02  0.90766267954E+01  0.11479720854E+03  0.11626891743E+03  0.00000000000E+00 0. -1.
        -12    1    6    6    0    0 -0.15711275350E+02 -0.64362745252E+02  0.10489299986E+03  0.12406429208E+03  0.00000000000E+00 0.  1.
         -5    1    5    5    0  503 -0.12346867513E+03 -0.38054287916E+02  0.16276920122E+03  0.20786665301E+03  0.47000000000E+01 0.  1.
<mgrwt>
<rscale>  2 0.23336454E+03</rscale>
<asrwt>0</asrwt>
<pdfrwt beam="1">  1       21 0.75205574E-01 0.23368337E+03</pdfrwt>
<pdfrwt beam="2">  1       21 0.33319577E-01 0.23368337E+03</pdfrwt>
<totfact> 0.13364319E+04</totfact>
</mgrwt>
</event>
<event>
12    1  0.1473662E-001  0.1798183E+03  0.7546771E-02  0.1167998E+00
         21   -1    0    0  504  503  0.00000000000E+00  0.00000000000E+00  0.18663975386E+04  0.18663975386E+04  0.00000000000E+00 0. -1.
         21   -1    0    0  502  504 -0.00000000000E+00 -0.00000000000E+00 -0.18338211236E+02  0.18338211236E+02  0.00000000000E+00 0. -1.
          6    2    1    2  502    0 -0.42309707181E+02  0.26731083293E+02  0.70183602672E+03  0.72450565152E+03  0.17271354479E+03 0.  0.
         24    2    3    3    0    0 -0.11939534388E+02 -0.39197395003E+01  0.65714880075E+03  0.66220911471E+03  0.80736908844E+02 0.  0.
         -6    2    1    2    0  503  0.42309707181E+02 -0.26731083293E+02  0.11462233007E+04  0.11602300983E+04  0.17263071554E+03 0.  0.
        -24    2    5    5    0    0  0.81882491451E+02 -0.31225556695E+02  0.54548852034E+03  0.55815819911E+03  0.79391886282E+02 0.  0.
          4    1    4    4  501    0 -0.54609378081E+01  0.37772326502E+02  0.37254773951E+03  0.37449751495E+03  0.00000000000E+00 0. -1.
         -3    1    4    4    0  501 -0.64785965798E+01 -0.41692066003E+02  0.28460106123E+03  0.28771159976E+03  0.00000000000E+00 0.  1.
          5    1    3    3  502    0 -0.30370172793E+02  0.30650822794E+02  0.44687225973E+02  0.62296536811E+02  0.47000000000E+01 0. -1.
         11    1    6    6    0    0  0.43470261692E+02  0.91794692904E+01  0.10302930888E+03  0.11220055614E+03  0.00000000000E+00 0. -1.
        -12    1    6    6    0    0  0.38412229759E+02 -0.40405025985E+02  0.44245921146E+03  0.44595764297E+03  0.00000000000E+00 0.  1.
         -5    1    5    5    0  503 -0.39572784269E+02  0.44944734015E+01  0.60073478032E+03  0.60207189922E+03  0.47000000000E+01 0.  1.
<mgrwt>
<rscale>  2 0.17979843E+03</rscale>
<asrwt>0</asrwt>
<pdfrwt beam="1">  1       21 0.28713793E+00 0.17981833E+03</pdfrwt>
<pdfrwt beam="2">  1       21 0.28212647E-02 0.17981833E+03</pdfrwt>
<totfact> 0.28699249E+04</totfact>
</mgrwt>
</event>
<event>
12    1  0.1473662E-001  0.1725270E+03  0.7546771E-02  0.1175443E+00
         21   -1    0    0  504  503  0.00000000000E+00  0.00000000000E+00  0.31646110681E+02  0.31646110681E+02  0.00000000000E+00 0.  1.
         21   -1    0    0  502  504 -0.00000000000E+00 -0.00000000000E+00 -0.12588351638E+04  0.12588351638E+04  0.00000000000E+00 0.  1.
          6    2    1    2  502    0  0.13919230243E+02 -0.16452326488E+02 -0.93918051633E+03  0.95475151557E+03  0.17037015642E+03 0.  0.
         24    2    3    3    0    0 -0.49327003041E+01 -0.47131607185E+02 -0.88210174462E+03  0.88710027959E+03  0.81226216519E+02 0.  0.
         -6    2    1    2    0  503 -0.13919230243E+02  0.16452326488E+02 -0.28800853680E+03  0.33572975893E+03  0.17117572767E+03 0.  0.
        -24    2    5    5    0    0  0.44373492554E+02  0.11097226759E+02 -0.24594261376E+03  0.26349160761E+03  0.82752055783E+02 0.  0.
          2    1    4    4  501    0 -0.19068064497E+02 -0.55702661588E+02 -0.83693698440E+03  0.83900530001E+03  0.00000000000E+00 0. -1.
         -1    1    4    4    0  501  0.14135364192E+02  0.85710544029E+01 -0.45164760226E+02  0.48094979579E+02  0.00000000000E+00 0.  1.
          5    1    3    3  502    0  0.18851930547E+02  0.30679280697E+02 -0.57078771710E+02  0.67651235978E+02  0.47000000000E+01 0. -1.
         11    1    6    6    0    0  0.38053652648E+02  0.44648368570E+02 -0.17861547736E+03  0.18800278202E+03  0.00000000000E+00 0. -1.
        -12    1    6    6    0    0  0.63198399064E+01 -0.33551141810E+02 -0.67327136403E+02  0.75488825593E+02  0.00000000000E+00 0.  1.
         -5    1    5    5    0  503 -0.58292722797E+02  0.53550997285E+01 -0.42065923035E+02  0.72238151312E+02  0.47000000000E+01 0.  1.
<mgrwt>
<rscale>  2 0.17232681E+03</rscale>
<asrwt>0</asrwt>
<pdfrwt beam="1">  1       21 0.48686334E-02 0.17252697E+03</pdfrwt>
<pdfrwt beam="2">  1       21 0.19366691E+00 0.17252697E+03</pdfrwt>
<totfact> 0.42094920E+04</totfact>
</mgrwt>
</event>
<event>
12    1  0.1473662E-001  0.1773814E+03  0.7546771E-02  0.1170647E+00
         21   -1    0    0  504  503  0.00000000000E+00  0.00000000000E+00  0.59707803602E+03  0.59707803602E+03  0.00000000000E+00 0.  1.
         21   -1    0    0  502  504 -0.00000000000E+00 -0.00000000000E+00 -0.52771805345E+02  0.52771805345E+02  0.00000000000E+00 0.  1.
          6    2    1    2  502    0  0.30593547164E+02  0.25203586203E+02  0.24415080100E+03  0.30178429840E+03  0.17289581617E+03 0.  0.
         24    2    3    3    0    0  0.27777316584E+02 -0.13987484453E+02  0.24786116633E+03  0.26203850636E+03  0.79131485526E+02 0.  0.
         -6    2    1    2    0  503 -0.30593547164E+02 -0.25203586203E+02  0.30015542968E+03  0.34806554296E+03  0.17171241757E+03 0.  0.
        -24    2    5    5    0    0  0.25038451819E+02  0.36507711152E+02  0.12733668871E+03  0.15625414924E+03  0.78999935568E+02 0.  0.
          4    1    4    4  501    0 -0.22470399482E+02 -0.24965567318E+02  0.98801391318E+02  0.10435474752E+03  0.00000000000E+00 0. -1.
         -3    1    4    4    0  501  0.50247716065E+02  0.10978082865E+02  0.14905977502E+03  0.15768375884E+03  0.00000000000E+00 0.  1.
          5    1    3    3  502    0  0.28162305805E+01  0.39191070656E+02 -0.37103653399E+01  0.39745792039E+02  0.47000000000E+01 0. -1.
         11    1    6    6    0    0  0.45639737942E+02 -0.19974407665E+00  0.46739371810E+02  0.65326827983E+02  0.00000000000E+00 0. -1.
        -12    1    6    6    0    0 -0.20601286123E+02  0.36707455229E+02  0.80597316903E+02  0.90927321259E+02  0.00000000000E+00 0.  1.
         -5    1    5    5    0  503 -0.55631998983E+02 -0.61711297355E+02  0.17281874097E+03  0.19181139372E+03  0.47000000000E+01 0.  1.
<mgrwt>
<rscale>  2 0.17709234E+03</rscale>
<asrwt>0</asrwt>
<pdfrwt beam="1">  1       21 0.91858154E-01 0.17738137E+03</pdfrwt>
<pdfrwt beam="2">  1       21 0.81187397E-02 0.17738137E+03</pdfrwt>
<totfact> 0.11788055E+05</totfact>
</mgrwt>
</event>
<event>
12    1  0.1473662E-001  0.1881205E+03  0.7546771E-02  0.1160304E+00
         21   -1    0    0  504  503  0.00000000000E+00  0.00000000000E+00  0.61355345034E+03  0.61355345034E+03  0.00000000000E+00 0. -1.
         21   -1    0    0  502  504 -0.00000000000E+00 -0.00000000000E+00 -0.61391065810E+02  0.61391065810E+02  0.00000000000E+00 0. -1.
          6    2    1    2  502    0 -0.26583982095E+01 -0.72776410079E+02  0.36149602211E+03  0.40751525347E+03  0.17345268767E+03 0.  0.
         24    2    3    3    0    0 -0.49936473772E+02 -0.30955411913E+02  0.31165135735E+03  0.32694979609E+03  0.79484034176E+02 0.  0.
         -6    2    1    2    0  503  0.26583982095E+01  0.72776410079E+02  0.19066636242E+03  0.26742926269E+03  0.17280415457E+03 0.  0.
        -24    2    5    5    0    0 -0.14750929993E+02  0.11995120244E+02  0.16685579406E+03  0.19970568431E+03  0.10807419437E+03 0.  0.
          4    1    4    4  501    0 -0.21687977636E+02 -0.35272737939E+02  0.55682570690E+02  0.69390799781E+02  0.00000000000E+00 0. -1.
         -3    1    4    4    0  501 -0.28248496136E+02  0.43173260259E+01  0.25596878666E+03  0.25755899631E+03  0.00000000000E+00 0.  1.
          5    1    3    3  502    0  0.47278075562E+02 -0.41820998166E+02  0.49844664768E+02  0.80565457377E+02  0.47000000000E+01 0. -1.
         13    1    6    6    0    0 -0.39868683776E+02  0.10146015422E+02  0.12054792717E+02  0.42869238417E+02  0.00000000000E+00 0. -1.
        -14    1    6    6    0    0  0.25117753783E+02  0.18491048225E+01  0.15480100134E+03  0.15683644589E+03  0.00000000000E+00 0.  1.
         -5    1    5    5    0  503  0.17409328202E+02  0.60781289835E+02  0.23810568361E+02  0.67723578376E+02  0.47000000000E+01 0.  1.
<mgrwt>
<rscale>  2 0.18797083E+03</rscale>
<asrwt>0</asrwt>
<pdfrwt beam="1">  1       21 0.94392834E-01 0.18812046E+03</pdfrwt>
<pdfrwt beam="2">  1       21 0.94447798E-02 0.18812046E+03</pdfrwt>
<totfact> 0.84553872E+04</totfact>
</mgrwt>
</event>
<event>
12    1  0.1473662E-001  0.2101756E+03  0.7546771E-02  0.1141910E+00
         21   -1    0    0  504  503  0.00000000000E+00  0.00000000000E+00  0.13377635884E+03  0.13377635884E+03  0.00000000000E+00 0.  1.
         21   -1    0    0  502  504 -0.00000000000E+00 -0.00000000000E+00 -0.34120764433E+03  0.34120764433E+03  0.00000000000E+00 0.  1.
          6    2    1    2  502    0  0.26856127934E+02  0.11417231743E+03 -0.15260849197E+03  0.25777602664E+03  0.17147174231E+03 0.  0.
         24    2    3    3    0    0  0.65502540432E+02  0.43330117788E+02 -0.13666304325E+03  0.17538361325E+03  0.76906062790E+02 0.  0.
         -6    2    1    2    0  503 -0.26856127934E+02 -0.11417231743E+03 -0.54822793521E+02  0.21720797653E+03  0.17440526570E+03 0.  0.
        -24    2    5    5    0    0 -0.73577287752E+02 -0.30107081788E+02 -0.27937570093E+02  0.11723430071E+03  0.81506562885E+02 0.  0.
          4    1    4    4  501    0  0.36037733028E+02  0.25713191072E+02 -0.13380107189E+03  0.14093478362E+03  0.00000000000E+00 0. -1.
         -3    1    4    4    0  501  0.29464807404E+02  0.17616926716E+02 -0.28619713648E+01  0.34448829622E+02  0.00000000000E+00 0.  1.
          5    1    3    3  502    0 -0.38646412498E+02  0.70842199646E+02 -0.15945448719E+02  0.82392413392E+02  0.47000000000E+01 0. -1.
         11    1    6    6    0    0 -0.87671652679E+01 -0.36558263653E+02  0.13607547749E+02  0.39981685606E+02  0.00000000000E+00 0. -1.
        -12    1    6    6    0    0 -0.64810122484E+02  0.64511818650E+01 -0.41545117842E+02  0.77252615104E+02  0.00000000000E+00 0.  1.
         -5    1    5    5    0  503  0.46721159818E+02 -0.84065235646E+02 -0.26885223428E+02  0.99973675824E+02  0.47000000000E+01 0.  1.
<mgrwt>
<rscale>  2 0.20956596E+03</rscale>
<asrwt>0</asrwt>
<pdfrwt beam="1">  1       21 0.20580978E-01 0.21017556E+03</pdfrwt>
<pdfrwt beam="2">  1       21 0.52493484E-01 0.21017556E+03</pdfrwt>
<totfact> 0.74722488E+04</totfact>
</mgrwt>
</event>
<event>
12    1  0.1473662E-001  0.1978613E+03  0.7546771E-02  0.1152411E+00
         21   -1    0    0  504  503  0.00000000000E+00  0.00000000000E+00  0.16709620998E+03  0.16709620998E+03  0.00000000000E+00 0. -1.
         21   -1    0    0  502  504 -0.00000000000E+00 -0.00000000000E+00 -0.29795396933E+03  0.29795396933E+03  0.00000000000E+00 0. -1.
          6    2    1    2  502    0 -0.61993153959E+02 -0.72250257063E+02 -0.17727970248E+03  0.26566367954E+03  0.17345272247E+03 0.  0.
         24    2    3    3    0    0 -0.71168470752E+02 -0.30023389183E+01 -0.16157394914E+03  0.19391257297E+03  0.80137255068E+02 0.  0.
         -6    2    1    2    0  503  0.61993153959E+02  0.72250257063E+02  0.46421943128E+02  0.19938649977E+03  0.16892817616E+03 0.  0.
        -24    2    5    5    0    0  0.61081346290E+02  0.52840457400E+02 -0.32243060405E+02  0.11822096215E+03  0.80084556212E+02 0.  0.
          2    1    4    4  501    0 -0.78610151997E+02 -0.24278671450E+02 -0.10782783222E+03  0.13563130644E+03  0.00000000000E+00 0. -1.
         -1    1    4    4    0  501  0.74416812447E+01  0.21276332531E+02 -0.53746116915E+02  0.58281266537E+02  0.00000000000E+00 0.  1.
          5    1    3    3  502    0  0.91753167934E+01 -0.69247918145E+02 -0.15705753342E+02  0.71751106568E+02  0.47000000000E+01 0. -1.
         11    1    6    6    0    0  0.39368662327E+02  0.57198243420E+02  0.10360000820E+02  0.70205841928E+02  0.00000000000E+00 0. -1.
        -12    1    6    6    0    0  0.21712683963E+02 -0.43577860197E+01 -0.42603061225E+02  0.48015120219E+02  0.00000000000E+00 0.  1.
         -5    1    5    5    0  503  0.91180766834E+00  0.19409799663E+02  0.78665003533E+02  0.81165537620E+02  0.47000000000E+01 0.  1.
<mgrwt>
<rscale>  2 0.19686527E+03</rscale>
<asrwt>0</asrwt>
<pdfrwt beam="1">  1       21 0.25707109E-01 0.19786131E+03</pdfrwt>
<pdfrwt beam="2">  1       21 0.45839072E-01 0.19786131E+03</pdfrwt>
<totfact> 0.65356995E+04</totfact>
</mgrwt>
</event>
<event>
12    1  0.1473662E-001  0.2267173E+03  0.7546771E-02  0.1129142E+00
         21   -1    0    0  504  503  0.00000000000E+00  0.00000000000E+00  0.11227129640E+04  0.11227129640E+04  0.00000000000E+00 0. -1.
         21   -1    0    0  502  504 -0.00000000000E+00 -0.00000000000E+00 -0.64570514981E+02  0.64570514981E+02  0.00000000000E+00 0. -1.
          6    2    1    2  502    0 -0.39267682255E+02  0.13888795657E+03  0.20645334549E+03  0.30593503239E+03  0.17361291666E+03 0.  0.
         24    2    3    3    0    0 -0.51000425366E+02  0.91636246681E+01  0.95345480880E+02  0.13466592506E+03  0.79744186269E+02 0.  0.
         -6    2    1    2    0  503  0.39267682255E+02 -0.13888795657E+03  0.85168910350E+03  0.88134844656E+03  0.17483975487E+03 0.  0.
        -24    2    5    5    0    0  0.40809575146E+01 -0.57271364248E+02  0.18862725886E+03  0.21233987146E+03  0.78811895357E+02 0.  0.
          4    1    4    4  501    0 -0.71093162618E+02  0.17590842247E+02  0.75694185495E+02  0.10532466577E+03  0.00000000000E+00 0. -1.
         -3    1    4    4    0  501  0.20092737252E+02 -0.84272175790E+01  0.19651295385E+02  0.29341259290E+02  0.00000000000E+00 0.  1.
          5    1    3    3  502    0  0.11732743110E+02  0.12972433190E+03  0.11110786461E+03  0.17126910733E+03  0.47000000000E+01 0. -1.
         13    1    6    6    0    0  0.16436742441E+02 -0.73148810835E+02  0.12663050732E+03  0.14716045805E+03  0.00000000000E+00 0. -1.
        -14    1    6    6    0    0 -0.12355784926E+02  0.15877446588E+02  0.61996751545E+02  0.65179413417E+02  0.00000000000E+00 0.  1.
         -5    1    5    5    0  503  0.35186724741E+02 -0.81616592320E+02  0.66306184464E+03  0.66900857510E+03  0.47000000000E+01 0.  1.
<mgrwt>
<rscale>  2 0.22648079E+03</rscale>
<asrwt>0</asrwt>
<pdfrwt beam="1">  1       21 0.17272506E+00 0.22671735E+03</pdfrwt>
<pdfrwt beam="2">  1       21 0.99339262E-02 0.22671735E+03</pdfrwt>
<totfact> 0.16371990E+04</totfact>
</mgrwt>
</event>
<event>
12    1  0.1473662E-001  0.1738546E+03  0.7546771E-02  0.1174044E+00
         21   -1    0    0  504  503  0.00000000000E+00  0.00000000000E+00  0.47998272167E+03  0.47998272167E+03  0.00000000000E+00 0.  1.
         21   -1    0    0  502  504 -0.00000000000E+00 -0.00000000000E+00 -0.81867772885E+02  0.81867772885E+02  0.00000000000E+00 0.  1.
          6    2    1    2  502    0  0.15306715170E+02  0.22005863025E+02  0.63022076698E+02  0.18434202881E+03  0.17114802919E+03 0.  0.
         24    2    3    3    0    0 -0.31823671497E+02 -0.33540116743E+02  0.58826069349E+02  0.11122345597E+03  0.82294989063E+02 0.  0.
         -6    2    1    2    0  503 -0.15306715170E+02 -0.22005863025E+02  0.33509287209E+03  0.37750846575E+03  0.17177559562E+03 0.  0.
        -24    2    5    5    0    0 -0.49924765479E+02  0.29439176685E+02  0.26528253705E+03  0.28401742663E+03  0.83258193779E+02 0.  0.
          2    1    4    4  501    0 -0.34738779318E+02 -0.52021540974E+02  0.66230553365E+02  0.91101644952E+02  0.00000000000E+00 0. -1.
         -1    1    4    4    0  501  0.29151078204E+01  0.18481424231E+02 -0.74044840169E+01  0.20121811021E+02  0.00000000000E+00 0.  1.
          5    1    3    3  502    0  0.47130386667E+02  0.55545979768E+02  0.41960073495E+01  0.73118572835E+02  0.47000000000E+01 0. -1.
         11    1    6    6    0    0  0.52736077031E+01  0.30950705095E+02  0.34188576857E+02  0.46417840014E+02  0.00000000000E+00 0. -1.
        -12    1    6    6    0    0 -0.55198373182E+02 -0.15115284099E+01  0.23109396020E+03  0.23759958661E+03  0.00000000000E+00 0.  1.
         -5    1    5    5    0  503  0.34618050309E+02 -0.51445039711E+02  0.69810335034E+02  0.93491039120E+02  0.47000000000E+01 0.  1.
<mgrwt>
<rscale>  2 0.17369935E+03</rscale>
<asrwt>0</asrwt>
<pdfrwt beam="1">  1       21 0.73843494E-01 0.17385456E+03</pdfrwt>
<pdfrwt beam="2">  1       21 0.12595042E-01 0.17385456E+03</pdfrwt>
<totfact> 0.89249447E+04</totfact>
</mgrwt>
</event>
<event>
12    1  0.1473662E-001  0.2564778E+03  0.7546771E-02  0.1109885E+00
         21   -1    0    0  504  503  0.00000000000E+00  0.00000000000E+00  0.15828192616E+03  0.15828192616E+03  0.00000000000E+00 0. -1.
         21   -1    0    0  502  504 -0.00000000000E+00 -0.00000000000E+00 -0.51141293785E+03  0.51141293785E+03  0.00000000000E+00 0.  1.
          6    2    1    2  502    0  0.33065517871E+02  0.17830424617E+03 -0.32732660055E+03  0.41584076921E+03  0.18137008914E+03 0.  0.
         24    2    3    3    0    0  0.89821589582E+02  0.10298293348E+03 -0.17100747720E+03  0.23321462063E+03  0.80449359674E+02 0.  0.
         -6    2    1    2    0  503 -0.33065517871E+02 -0.17830424617E+03 -0.25804411146E+02  0.25385409480E+03  0.17575636870E+03 0.  0.
        -24    2    5    5    0    0 -0.83876947130E+02 -0.14033282752E+03 -0.45205618011E+02  0.18735502108E+03  0.79559482690E+02 0.  0.
          4    1    4    4  501    0  0.71581638291E+02  0.10328819515E+03 -0.10204861695E+03  0.16188360763E+03  0.00000000000E+00 0. -1.
         -3    1    4    4    0  501  0.18239951290E+02 -0.30526166878E+00 -0.68958860256E+02  0.71331013000E+02  0.00000000000E+00 0.  1.
          5    1    3    3  502    0 -0.56756071711E+02  0.75321312689E+02 -0.15631912334E+03  0.18262614858E+03  0.47000000000E+01 0. -1.
         11    1    6    6    0    0 -0.66312873619E+02 -0.58540653905E+02  0.70214608704E+01  0.88733907161E+02  0.00000000000E+00 0. -1.
        -12    1    6    6    0    0 -0.17564073511E+02 -0.81792173612E+02 -0.52227078881E+02  0.98621113921E+02  0.00000000000E+00 0.  1.
         -5    1    5    5    0  503  0.50811429259E+02 -0.37971418654E+02  0.19401206864E+02  0.66499073721E+02  0.47000000000E+01 0.  1.
<mgrwt>
<rscale>  2 0.25548739E+03</rscale>
<asrwt>0</asrwt>
<pdfrwt beam="1">  1       21 0.24351065E-01 0.25647776E+03</pdfrwt>
<pdfrwt beam="2">  1       21 0.78678914E-01 0.25647776E+03</pdfrwt>
<totfact> 0.21979378E+04</totfact>
</mgrwt>
</event>
<event>
12    1  0.1473662E-001  0.1959016E+03  0.7546771E-02  0.1153554E+00
         21   -1    0    0  504  503  0.00000000000E+00  0.00000000000E+00  0.35925123231E+03  0.35925123231E+03  0.00000000000E+00 0.  1.
         21   -1    0    0  502  504 -0.00000000000E+00 -0.00000000000E+00 -0.10943914809E+03  0.10943914809E+03  0.00000000000E+00 0.  1.
          6    2    1    2  502    0  0.37816873750E+02  0.86803010389E+02  0.83228032585E+02  0.21153735458E+03  0.16987132901E+03 0.  0.
         24    2    3    3    0    0  0.83698915418E+01  0.10327427462E+03  0.10792238421E+03  0.16946208502E+03  0.79589737796E+02 0.  0.
         -6    2    1    2    0  503 -0.37816873750E+02 -0.86803010389E+02  0.16658405164E+03  0.25715302582E+03  0.17150088593E+03 0.  0.
        -24    2    5    5    0    0 -0.85521908816E+02 -0.64855925992E+02  0.15210538318E+03  0.20247975333E+03  0.79634884897E+02 0.  0.
          2    1    4    4  501    0 -0.26496390829E+02  0.14573121762E+02  0.48476691900E+02  0.57135140347E+02  0.00000000000E+00 0. -1.
         -1    1    4    4    0  501  0.34866282371E+02  0.88701152861E+02  0.59445692305E+02  0.11232694467E+03  0.00000000000E+00 0.  1.
          5    1    3    3  502    0  0.29446982208E+02 -0.16471264234E+02 -0.24694351621E+02  0.42075269561E+02  0.47000000000E+01 0. -1.
         11    1    6    6    0    0 -0.49472190950E+02  0.95301651148E+01  0.67111178836E+02  0.83918007896E+02  0.00000000000E+00 0. -1.
        -12    1    6    6    0    0 -0.36049717867E+02 -0.74386091106E+02  0.84994204343E+02  0.11856174543E+03  0.00000000000E+00 0.  1.
         -5    1    5    5    0  503  0.47705035066E+02 -0.21947084397E+02  0.14478668461E+02  0.54673272489E+02  0.47000000000E+01 0.  1.
<mgrwt>
<rscale>  2 0.19554436E+03</rscale>
<asrwt>0</asrwt>
<pdfrwt beam="1">  1       21 0.55269420E-01 0.19590159E+03</pdfrwt>
<pdfrwt beam="2">  1       21 0.16836792E-01 0.19590159E+03</pdfrwt>
<totfact> 0.97904914E+04</totfact>
</mgrwt>
</event>
<event>
12    1  0.1473662E-001  0.1863083E+03  0.7546771E-02  0.1161846E+00
         21   -1    0    0  504  503  0.00000000000E+00  0.00000000000E+00  0.46361244392E+02  0.46361244392E+02  0.00000000000E+00 0.  1.
         21   -1    0    0  502  504 -0.00000000000E+00 -0.00000000000E+00 -0.78425460974E+03  0.78425460974E+03  0.00000000000E+00 0. -1.
          6    2    1    2  502    0  0.53408847134E+02  0.45175188050E+02 -0.45758137493E+03  0.49403657800E+03  0.17262132880E+03 0.  0.
         24    2    3    3    0    0  0.62018666198E+02  0.15203457589E+02 -0.13177204328E+03  0.16670456888E+03  0.79681125836E+02 0.  0.
         -6    2    1    2    0  503 -0.53408847134E+02 -0.45175188050E+02 -0.28031199042E+03  0.33657927613E+03  0.17267742927E+03 0.  0.
        -24    2    5    5    0    0 -0.97011773576E+02 -0.29540042874E+02 -0.25178129277E+03  0.28197374832E+03  0.76364108104E+02 0.  0.
          4    1    4    4  501    0  0.64055607457E+02 -0.10668226437E+02 -0.53167795620E+02  0.83927030170E+02  0.00000000000E+00 0. -1.
         -3    1    4    4    0  501 -0.20369412592E+01  0.25871684026E+02 -0.78604247665E+02  0.82777538711E+02  0.00000000000E+00 0.  1.
          5    1    3    3  502    0 -0.86098190639E+01  0.29971730461E+02 -0.32580933164E+03  0.32733200912E+03  0.47000000000E+01 0. -1.
         13    1    6    6    0    0 -0.48940040571E+02 -0.15159930271E+02 -0.21153405908E+03  0.21765019919E+03  0.00000000000E+00 0. -1.
        -14    1    6    6    0    0 -0.48071733005E+02 -0.14380112603E+02 -0.40247233687E+02  0.64323549125E+02  0.00000000000E+00 0.  1.
         -5    1    5    5    0  503  0.43602926442E+02 -0.15635145176E+02 -0.28530697651E+02  0.54605527810E+02  0.47000000000E+01 0.  1.
<mgrwt>
<rscale>  2 0.18629534E+03</rscale>
<asrwt>0</asrwt>
<pdfrwt beam="1">  1       21 0.71324986E-02 0.18630834E+03</pdfrwt>
<pdfrwt beam="2">  1       21 0.12065456E+00 0.18630834E+03</pdfrwt>
<totfact> 0.76524321E+04</totfact>
</mgrwt>
</event>
<event>
12    1  0.1473662E-001  0.1861855E+03  0.7546771E-02  0.1162609E+00
         21   -1    0    0  504  503  0.00000000000E+00  0.00000000000E+00  0.27798306953E+02  0.27798306953E+02  0.00000000000E+00 0.  1.
         21   -1    0    0  502  504 -0.00000000000E+00 -0.00000000000E+00 -0.12335349131E+04  0.12335349131E+04  0.00000000000E+00 0.  1.
          6    2    1    2  502    0  0.24868336152E+02  0.57110451792E+02 -0.56562357662E+03  0.59547887265E+03  0.17545660290E+03 0.  0.
         24    2    3    3    0    0  0.67536186751E+02 -0.43915115383E+00 -0.23515556726E+03  0.25730185172E+03  0.79654081585E+02 0.  0.
         -6    2    1    2    0  503 -0.24868336152E+02 -0.57110451792E+02 -0.64011302953E+03  0.66585434741E+03  0.17244501597E+03 0.  0.
        -24    2    5    5    0    0 -0.81779140975E+01 -0.10430926285E+03 -0.49492848213E+03  0.51220884386E+03  0.80351706366E+02 0.  0.
          4    1    4    4  501    0  0.42659168635E+02 -0.37021957434E+02 -0.97128118637E+02  0.11235791664E+03  0.00000000000E+00 0. -1.
         -3    1    4    4    0  501  0.24877018117E+02  0.36582806280E+02 -0.13802744862E+03  0.14494393509E+03  0.00000000000E+00 0.  1.
          5    1    3    3  502    0 -0.42667850599E+02  0.57549602946E+02 -0.33046800936E+03  0.33817702093E+03  0.47000000000E+01 0. -1.
         11    1    6    6    0    0 -0.17061808655E+02  0.70412394737E+01 -0.10438808472E+03  0.10600734220E+03  0.00000000000E+00 0. -1.
        -12    1    6    6    0    0  0.88838945570E+01 -0.11135050232E+03 -0.39054039740E+03  0.40620150166E+03  0.00000000000E+00 0.  1.
         -5    1    5    5    0  503 -0.16690422055E+02  0.47198811055E+02 -0.14518454741E+03  0.15364550354E+03  0.47000000000E+01 0.  1.
<mgrwt>
<rscale>  2 0.18547264E+03</rscale>
<asrwt>0</asrwt>
<pdfrwt beam="1">  1       21 0.42766631E-02 0.18618555E+03</pdfrwt>
<pdfrwt beam="2">  1       21 0.18977458E+00 0.18618555E+03</pdfrwt>
<totfact> 0.55032243E+04</totfact>
</mgrwt>
</event>
<event>
12    1  0.1473662E-001  0.1894334E+03  0.7546771E-02  0.1159000E+00
         21   -1    0    0  504  503  0.00000000000E+00  0.00000000000E+00  0.24369749542E+03  0.24369749542E+03  0.00000000000E+00 0.  1.
         21   -1    0    0  502  504 -0.00000000000E+00 -0.00000000000E+00 -0.20086502842E+03  0.20086502842E+03  0.00000000000E+00 0.  1.
          6    2    1    2  502    0 -0.66682077733E+01  0.76855778994E+02 -0.93512858542E+02  0.21125731316E+03  0.17301364654E+03 0.  0.
         24    2    3    3    0    0  0.20195749654E+02  0.72294209472E+01 -0.10619070556E+03  0.13541326429E+03  0.81241327947E+02 0.  0.
         -6    2    1    2    0  503  0.66682077733E+01 -0.76855778994E+02  0.13634532554E+03  0.23330521068E+03  0.17288724005E+03 0.  0.
        -24    2    5    5    0    0 -0.20579821117E+02 -0.88616751318E+02  0.15581723029E+03  0.19749989511E+03  0.80316509263E+02 0.  0.
          4    1    4    4  501    0  0.42545624411E+02 -0.10798913426E+02 -0.94897517816E+02  0.10455757063E+03  0.00000000000E+00 0. -1.
         -3    1    4    4    0  501 -0.22349874756E+02  0.18028334373E+02 -0.11293187743E+02  0.30855693661E+02  0.00000000000E+00 0.  1.
          5    1    3    3  502    0 -0.26863957428E+02  0.69626358047E+02  0.12677847017E+02  0.75844048867E+02  0.47000000000E+01 0. -1.
         13    1    6    6    0    0 -0.94831629322E+00  0.44151783022E+01  0.67748458106E+02  0.67898797331E+02  0.00000000000E+00 0. -1.
        -14    1    6    6    0    0 -0.19631504824E+02 -0.93031929620E+02  0.88068772186E+02  0.12960109778E+03  0.00000000000E+00 0.  1.
         -5    1    5    5    0  503  0.27248028891E+02  0.11760972323E+02 -0.19471904749E+02  0.35805315568E+02  0.47000000000E+01 0.  1.
<mgrwt>
<rscale>  2 0.18940449E+03</rscale>
<asrwt>0</asrwt>
<pdfrwt beam="1">  1       21 0.37491922E-01 0.18943336E+03</pdfrwt>
<pdfrwt beam="2">  1       21 0.30902312E-01 0.18943336E+03</pdfrwt>
<totfact> 0.69099873E+04</totfact>
</mgrwt>
</event>
<event>
12    1  0.1473662E-001  0.4602447E+03  0.7546771E-02  0.1024715E+00
         21   -1    0    0  504  503  0.00000000000E+00  0.00000000000E+00  0.59714471983E+03  0.59714471983E+03  0.00000000000E+00 0.  1.
         21   -1    0    0  502  504 -0.00000000000E+00 -0.00000000000E+00 -0.98100179081E+03  0.98100179081E+03  0.00000000000E+00 0.  1.
          6    2    1    2  502    0  0.12232626214E+03 -0.40796984915E+03 -0.82241938610E+03  0.94240910126E+03  0.17423591847E+03 0.  0.
         24    2    3    3    0    0  0.13408944477E+03 -0.30893793472E+03 -0.72009643861E+03  0.79944837895E+03  0.84594343754E+02 0.  0.
         -6    2    1    2    0  503 -0.12232626214E+03  0.40796984915E+03  0.43856231512E+03  0.63573740939E+03  0.17441914236E+03 0.  0.
        -24    2    5    5    0    0 -0.11480342043E+03  0.17206869934E+03  0.24671620197E+03  0.33154509067E+03  0.79156807688E+02 0.  0.
          2    1    4    4  501    0  0.10775247800E+03 -0.18849711435E+03 -0.37943752823E+03  0.43716655460E+03  0.00000000000E+00 0. -1.
         -1    1    4    4    0  501  0.26336966771E+02 -0.12044082037E+03 -0.34065891038E+03  0.36228182434E+03  0.00000000000E+00 0.  1.
          5    1    3    3  502    0 -0.11763182626E+02 -0.99031914437E+02 -0.10232294749E+03  0.14296072232E+03  0.47000000000E+01 0. -1.
         11    1    6    6    0    0  0.98507678426E+01  0.22714002287E+02  0.44633772338E+02  0.51040544277E+02  0.00000000000E+00 0. -1.
        -12    1    6    6    0    0 -0.12465418827E+03  0.14935469705E+03  0.20208242963E+03  0.28050454640E+03  0.00000000000E+00 0.  1.
         -5    1    5    5    0  503 -0.75228417138E+01  0.23590114982E+03  0.19184611315E+03  0.30419231871E+03  0.47000000000E+01 0.  1.
<mgrwt>
<rscale>  2 0.46022731E+03</rscale>
<asrwt>0</asrwt>
<pdfrwt beam="1">  1       21 0.91868419E-01 0.46024466E+03</pdfrwt>
<pdfrwt beam="2">  1       21 0.15092335E+00 0.46024466E+03</pdfrwt>
<totfact> 0.24027045E+02</totfact>
</mgrwt>
</event>
<event>
12    1  0.1473662E-001  0.1964267E+03  0.7546771E-02  0.1154634E+00
         21   -1    0    0  504  503  0.00000000000E+00  0.00000000000E+00  0.23384023273E+02  0.23384023273E+02  0.00000000000E+00 0.  1.
         21   -1    0    0  502  504 -0.00000000000E+00 -0.00000000000E+00 -0.17309846695E+04  0.17309846695E+04  0.00000000000E+00 0. -1.
          6    2    1    2  502    0  0.30759127758E+02  0.62497964702E+02 -0.57841783351E+03  0.60822853066E+03  0.17470728621E+03 0.  0.
         24    2    3    3    0    0  0.56080625534E+01 -0.13974613916E+02 -0.14406014167E+03  0.16644880521E+03  0.82006951758E+02 0.  0.
         -6    2    1    2    0  503 -0.30759127758E+02 -0.62497964702E+02 -0.11291828127E+04  0.11461401621E+04  0.18366090260E+03 0.  0.
        -24    2    5    5    0    0 -0.78124595172E+01  0.84237180025E+00 -0.19677809360E+03  0.21129300988E+03  0.76559609382E+02 0.  0.
          4    1    4    4  501    0 -0.13390091370E+01 -0.20504328260E+02 -0.15240171771E+03  0.15378070095E+03  0.00000000000E+00 0. -1.
         -3    1    4    4    0  501  0.69470716904E+01  0.65297143437E+01  0.83415760445E+01  0.12668104254E+02  0.00000000000E+00 0.  1.
          5    1    3    3  502    0  0.25151065204E+02  0.76472578619E+02 -0.43435769184E+03  0.44177972546E+03  0.47000000000E+01 0. -1.
         13    1    6    6    0    0 -0.28116370320E+02  0.29152795708E+02 -0.83965579404E+02  0.93223571602E+02  0.00000000000E+00 0. -1.
        -14    1    6    6    0    0  0.20303910803E+02 -0.28310423908E+02 -0.11281251419E+03  0.11806943827E+03  0.00000000000E+00 0.  1.
         -5    1    5    5    0  503 -0.22946668241E+02 -0.63340336503E+02 -0.93240471913E+03  0.93484715225E+03  0.47000000000E+01 0.  1.
<mgrwt>
<rscale>  2 0.19430638E+03</rscale>
<asrwt>0</asrwt>
<pdfrwt beam="1">  1       21 0.35975422E-02 0.19642670E+03</pdfrwt>
<pdfrwt beam="2">  1       21 0.26630532E+00 0.19642670E+03</pdfrwt>
<totfact> 0.24904034E+04</totfact>
</mgrwt>
</event>
<event>
12    1  0.1473662E-001  0.2298641E+03  0.7546771E-02  0.1126803E+00
         21   -1    0    0  504  503  0.00000000000E+00  0.00000000000E+00  0.77787195288E+02  0.77787195288E+02  0.00000000000E+00 0.  1.
         21   -1    0    0  502  504 -0.00000000000E+00 -0.00000000000E+00 -0.68411486329E+03  0.68411486329E+03  0.00000000000E+00 0.  1.
          6    2    1    2  502    0 -0.85400849571E+02 -0.12467173138E+03 -0.33854411992E+03  0.40899194956E+03  0.17270190490E+03 0.  0.
         24    2    3    3    0    0  0.39224821763E+01 -0.26215880805E+02 -0.65752606137E+02  0.10549646013E+03  0.78124513529E+02 0.  0.
         -6    2    1    2    0  503  0.85400849571E+02  0.12467173138E+03 -0.26778354808E+03  0.35291010902E+03  0.17320846029E+03 0.  0.
        -24    2    5    5    0    0  0.47154131718E+02 -0.11278616793E+01 -0.71706668874E+02  0.11678179306E+03  0.79191897434E+02 0.  0.
          2    1    4    4  501    0 -0.53187529956E+01 -0.40501625117E+02 -0.35436744597E+01  0.41002785262E+02  0.00000000000E+00 0. -1.
         -1    1    4    4    0  501  0.92412351719E+01  0.14285744312E+02 -0.62208931677E+02  0.64493674872E+02  0.00000000000E+00 0.  1.
          5    1    3    3  502    0 -0.89323331747E+02 -0.98455850572E+02 -0.27279151379E+03  0.30349548942E+03  0.47000000000E+01 0. -1.
         11    1    6    6    0    0  0.71299696142E+01  0.14705339282E+02 -0.71905415217E+02  0.73739217569E+02  0.00000000000E+00 0. -1.
        -12    1    6    6    0    0  0.40024162104E+02 -0.15833200961E+02  0.19874634348E+00  0.43042575491E+02  0.00000000000E+00 0.  1.
         -5    1    5    5    0  503  0.38246717852E+02  0.12579959306E+03 -0.19607687921E+03  0.23612831596E+03  0.47000000000E+01 0.  1.
<mgrwt>
<rscale>  2 0.22976870E+03</rscale>
<asrwt>0</asrwt>
<pdfrwt beam="1">  1       21 0.11967261E-01 0.22986413E+03</pdfrwt>
<pdfrwt beam="2">  1       21 0.10524844E+00 0.22986413E+03</pdfrwt>
<totfact> 0.42031330E+04</totfact>
</mgrwt>
</event>
<event>
12    1  0.1473662E-001  0.1854370E+03  0.7546771E-02  0.1162729E+00
         21   -1    0    0  504  503  0.00000000000E+00  0.00000000000E+00  0.88193123214E+02  0.88193123214E+02  0.00000000000E+00 0. -1.
         21   -1    0    0  502  504 -0.00000000000E+00 -0.00000000000E+00 -0.41301264039E+03  0.41301264039E+03  0.00000000000E+00 0.  1.
          6    2    1    2  502    0  0.17613289321E+02 -0.62718960103E+02 -0.10198423053E+03  0.21130501983E+03  0.17321989554E+03 0.  0.
         24    2    3    3    0    0 -0.55525908722E+01 -0.71936543914E+02 -0.13469121967E+03  0.16991107106E+03  0.74312514413E+02 0.  0.
         -6    2    1    2    0  503 -0.17613289321E+02  0.62718960103E+02 -0.22283528665E+03  0.28990074378E+03  0.17361733886E+03 0.  0.
        -24    2    5    5    0    0  0.27740204283E+02 -0.14458444090E+02 -0.15653942371E+03  0.17840849049E+03  0.79664501291E+02 0.  0.
          2    1    4    4  501    0 -0.19320256992E+02 -0.20350861418E+02 -0.35088612235E+01  0.28279710002E+02  0.00000000000E+00 0. -1.
         -1    1    4    4    0  501  0.13767666120E+02 -0.51585682496E+02 -0.13118235844E+03  0.14163136106E+03  0.00000000000E+00 0.  1.
          5    1    3    3  502    0  0.23165880194E+02  0.92175838108E+01  0.32706989133E+02  0.41393948768E+02  0.47000000000E+01 0. -1.
         13    1    6    6    0    0  0.13265198300E+02 -0.26927998020E+00  0.60345437171E+01  0.14575792106E+02  0.00000000000E+00 0. -1.
        -14    1    6    6    0    0  0.14475005983E+02 -0.14189164110E+02 -0.16257396743E+03  0.16383269839E+03  0.00000000000E+00 0.  1.
         -5    1    5    5    0  503 -0.45353493605E+02  0.77177404194E+02 -0.66295862939E+02  0.11149225329E+03  0.47000000000E+01 0.  1.
<mgrwt>
<rscale>  2 0.18534390E+03</rscale>
<asrwt>0</asrwt>
<pdfrwt beam="1">  1       21 0.13568173E-01 0.18543699E+03</pdfrwt>
<pdfrwt beam="2">  1       21 0.63540405E-01 0.18543699E+03</pdfrwt>
<totfact> 0.10803637E+05</totfact>
</mgrwt>
</event>
<event>
12    1  0.1473662E-001  0.2010235E+03  0.7546771E-02  0.1149187E+00
         21   -1    0    0  504  503  0.00000000000E+00  0.00000000000E+00  0.23360600516E+03  0.23360600516E+03  0.00000000000E+00 0.  1.
         21   -1    0    0  502  504 -0.00000000000E+00 -0.00000000000E+00 -0.19221023849E+03  0.19221023849E+03  0.00000000000E+00 0.  1.
          6    2    1    2  502    0 -0.85466147561E+02 -0.62345909979E+02 -0.48873528144E+02  0.20545522492E+03  0.16920919840E+03 0.  0.
         24    2    3    3    0    0 -0.57308371412E+02 -0.98450984251E+02 -0.67729390436E+02  0.15571519789E+03  0.81750270896E+02 0.  0.
         -6    2    1    2    0  503  0.85466147561E+02  0.62345909979E+02  0.90269294813E+02  0.22036101873E+03  0.17093553791E+03 0.  0.
        -24    2    5    5    0    0  0.55902358890E+02  0.97843080565E+02  0.24088137041E+02  0.13951485392E+03  0.78649945801E+02 0.  0.
          4    1    4    4  501    0 -0.47339057294E+02 -0.65270433810E+02 -0.11241623588E+01  0.80637953943E+02  0.00000000000E+00 0. -1.
         -3    1    4    4    0  501 -0.99693141175E+01 -0.33180550442E+02 -0.66605228077E+02  0.75077243948E+02  0.00000000000E+00 0.  1.
          5    1    3    3  502    0 -0.28157776149E+02  0.36105074272E+02  0.18855862292E+02  0.49740027027E+02  0.47000000000E+01 0. -1.
         13    1    6    6    0    0  0.20672441163E+02  0.38352480254E+02 -0.29005823934E+02  0.52341192071E+02  0.00000000000E+00 0. -1.
        -14    1    6    6    0    0  0.35229917727E+02  0.59490600311E+02  0.53093960974E+02  0.87173661850E+02  0.00000000000E+00 0.  1.
         -5    1    5    5    0  503  0.29563788671E+02 -0.35497170586E+02  0.66181157772E+02  0.80846164809E+02  0.47000000000E+01 0.  1.
<mgrwt>
<rscale>  2 0.20065599E+03</rscale>
<asrwt>0</asrwt>
<pdfrwt beam="1">  1       21 0.35939385E-01 0.20102346E+03</pdfrwt>
<pdfrwt beam="2">  1       21 0.29570806E-01 0.20102346E+03</pdfrwt>
<totfact> 0.81528091E+04</totfact>
</mgrwt>
</event>
<event>
12    1  0.1473662E-001  0.1953663E+03  0.7546771E-02  0.1154283E+00
         21   -1    0    0  504  503  0.00000000000E+00  0.00000000000E+00  0.91626317128E+03  0.91626317128E+03  0.00000000000E+00 0. -1.
         21   -1    0    0  502  504 -0.00000000000E+00 -0.00000000000E+00 -0.43043088621E+02  0.43043088621E+02  0.00000000000E+00 0. -1.
          6    2    1    2  502    0  0.75557518733E+02  0.50706222879E+02  0.53573021036E+03  0.56934804177E+03  0.16991255017E+03 0.  0.
         24    2    3    3    0    0  0.13274456743E+02 -0.13343830743E+01  0.41841978849E+03  0.42662022543E+03  0.82168762726E+02 0.  0.
         -6    2    1    2    0  503 -0.75557518733E+02 -0.50706222879E+02  0.33748987230E+03  0.38995821813E+03  0.17288128384E+03 0.  0.
        -24    2    5    5    0    0 -0.75074443707E+02  0.16862364415E+02  0.12659427967E+03  0.16845248831E+03  0.80184897214E+02 0.  0.
          4    1    4    4  501    0  0.16561144351E+02 -0.23702701506E+02  0.38608018181E+03  0.38716146031E+03  0.00000000000E+00 0. -1.
         -3    1    4    4    0  501 -0.32866876080E+01  0.22368318432E+02  0.32339606676E+02  0.39458765121E+02  0.00000000000E+00 0.  1.
          5    1    3    3  502    0  0.62283061990E+02  0.52040605953E+02  0.11731042187E+03  0.14272781634E+03  0.47000000000E+01 0. -1.
         13    1    6    6    0    0 -0.13897764261E+02  0.34096391301E+02  0.14458470028E+02  0.39557036122E+02  0.00000000000E+00 0. -1.
        -14    1    6    6    0    0 -0.61176679446E+02 -0.17234026887E+02  0.11213580964E+03  0.12889545219E+03  0.00000000000E+00 0.  1.
         -5    1    5    5    0  503 -0.48307502551E+00 -0.67568587294E+02  0.21089559263E+03  0.22150572982E+03  0.47000000000E+01 0.  1.
<mgrwt>
<rscale>  2 0.19470747E+03</rscale>
<asrwt>0</asrwt>
<pdfrwt beam="1">  1       21 0.14096355E+00 0.19536632E+03</pdfrwt>
<pdfrwt beam="2">  1       21 0.66220143E-02 0.19536632E+03</pdfrwt>
<totfact> 0.58433245E+04</totfact>
</mgrwt>
</event>
<event>
12    1  0.1473662E-001  0.2485556E+03  0.7546771E-02  0.1114252E+00
         21   -1    0    0  504  503  0.00000000000E+00  0.00000000000E+00  0.63811975744E+03  0.63811975744E+03  0.00000000000E+00 0. -1.
         21   -1    0    0  502  504 -0.00000000000E+00 -0.00000000000E+00 -0.12513193288E+03  0.12513193288E+03  0.00000000000E+00 0. -1.
          6    2    1    2  502    0  0.17499370567E+03 -0.30716551509E+02  0.74787970706E+02  0.25956329503E+03  0.17382048212E+03 0.  0.
         24    2    3    3    0    0  0.11501400097E+03 -0.55809474721E+02 -0.10849609802E+02  0.15193846069E+03  0.81392038405E+02 0.  0.
         -6    2    1    2    0  503 -0.17499370567E+03  0.30716551509E+02  0.43819985386E+03  0.50368839530E+03  0.17354130366E+03 0.  0.
        -24    2    5    5    0    0 -0.58838376787E+02  0.53916722453E+02  0.30175281388E+03  0.32293941721E+03  0.82862168465E+02 0.  0.
          4    1    4    4  501    0  0.45305793836E+02  0.13682927585E+02 -0.23251963377E+02  0.52730363769E+02  0.00000000000E+00 0. -1.
         -3    1    4    4    0  501  0.69708207138E+02 -0.69492402306E+02  0.12402353575E+02  0.99208096922E+02  0.00000000000E+00 0.  1.
          5    1    3    3  502    0  0.59979704695E+02  0.25092923213E+02  0.85637580508E+02  0.10762483434E+03  0.47000000000E+01 0. -1.
         11    1    6    6    0    0 -0.71228420254E+02  0.16518333989E+02  0.22631349569E+03  0.23783217095E+03  0.00000000000E+00 0. -1.
        -12    1    6    6    0    0  0.12390043467E+02  0.37398388463E+02  0.75439318189E+02  0.85107246258E+02  0.00000000000E+00 0.  1.
         -5    1    5    5    0  503 -0.11615532888E+03 -0.23200170944E+02  0.13644703998E+03  0.18074897809E+03  0.47000000000E+01 0.  1.
<mgrwt>
<rscale>  2 0.24850675E+03</rscale>
<asrwt>0</asrwt>
<pdfrwt beam="1">  1       21 0.98172269E-01 0.24855555E+03</pdfrwt>
<pdfrwt beam="2">  1       21 0.19251067E-01 0.24855555E+03</pdfrwt>
<totfact> 0.20598351E+04</totfact>
</mgrwt>
</event>
<event>
12    1  0.1473662E-001  0.1918326E+03  0.7546771E-02  0.1159570E+00
         21   -1    0    0  504  503  0.00000000000E+00  0.00000000000E+00  0.25831373252E+02  0.25831373252E+02  0.00000000000E+00 0.  1.
         21   -1    0    0  502  504 -0.00000000000E+00 -0.00000000000E+00 -0.24709554640E+04  0.24709554640E+04  0.00000000000E+00 0.  1.
          6    2    1    2  502    0  0.62968318708E+02  0.35019672336E+01 -0.20891546976E+04  0.20979435434E+04  0.18116977621E+03 0.  0.
         24    2    3    3    0    0  0.20083024096E+02  0.69851147870E+02 -0.13338969909E+04  0.13385505912E+04  0.84581275867E+02 0.  0.
         -6    2    1    2    0  503 -0.62968318708E+02 -0.35019672336E+01 -0.35596939314E+03  0.39884329385E+03  0.16847697547E+03 0.  0.
        -24    2    5    5    0    0  0.39993298044E+00 -0.11341015968E+02 -0.30799838812E+03  0.31884146056E+03  0.81658381692E+02 0.  0.
          2    1    4    4  501    0  0.72155374878E+01  0.88509171165E+02 -0.10786762825E+04  0.10823254870E+04  0.00000000000E+00 0. -1.
         -1    1    4    4    0  501  0.12867486608E+02 -0.18658023295E+02 -0.25522070840E+03  0.25622510424E+03  0.00000000000E+00 0.  1.
          5    1    3    3  502    0  0.42885294612E+02 -0.66349180636E+02 -0.75525770673E+03  0.75939295219E+03  0.47000000000E+01 0. -1.
         13    1    6    6    0    0 -0.40168615378E+01 -0.12559068607E+02 -0.26384914054E+01  0.13447193677E+02  0.00000000000E+00 0. -1.
        -14    1    6    6    0    0  0.44167945182E+01  0.12180526390E+01 -0.30535989671E+03  0.30539426689E+03  0.00000000000E+00 0.  1.
         -5    1    5    5    0  503 -0.63368251688E+02  0.78390487342E+01 -0.47971005022E+02  0.80001833291E+02  0.47000000000E+01 0.  1.
<mgrwt>
<rscale>  2 0.18877562E+03</rscale>
<asrwt>0</asrwt>
<pdfrwt beam="1">  1       21 0.39740568E-02 0.19183264E+03</pdfrwt>
<pdfrwt beam="2">  1       21 0.38014706E+00 0.19183264E+03</pdfrwt>
<totfact> 0.45764241E+03</totfact>
</mgrwt>
</event>
<event>
12    1  0.1473662E-001  0.2040416E+03  0.7546771E-02  0.1146912E+00
         21   -1    0    0  504  503  0.00000000000E+00  0.00000000000E+00  0.28886729569E+03  0.28886729569E+03  0.00000000000E+00 0. -1.
         21   -1    0    0  502  504 -0.00000000000E+00 -0.00000000000E+00 -0.14346705759E+03  0.14346705759E+03  0.00000000000E+00 0. -1.
          6    2    1    2  502    0 -0.11319772102E+02  0.10811936989E+03  0.92727633985E+02  0.22412363207E+03  0.17267035924E+03 0.  0.
         24    2    3    3    0    0  0.15062549174E+02  0.19115782064E+02  0.96475162524E+02  0.13109783192E+03  0.85363288595E+02 0.  0.
         -6    2    1    2    0  503  0.11319772102E+02 -0.10811936989E+03  0.52672604108E+02  0.20821072121E+03  0.16958586561E+03 0.  0.
        -24    2    5    5    0    0 -0.35405993690E+01 -0.36182525893E+02  0.89331560134E+02  0.12598110840E+03  0.81051841523E+02 0.  0.
          4    1    4    4  501    0  0.51745273680E+01 -0.32256168930E+02  0.19557401267E+02  0.38075295295E+02  0.00000000000E+00 0. -1.
         -3    1    4    4    0  501  0.98880218065E+01  0.51371950994E+02  0.76917761256E+02  0.93022536629E+02  0.00000000000E+00 0.  1.
          5    1    3    3  502    0 -0.26382321276E+02  0.89003587830E+02 -0.37475285384E+01  0.93025800146E+02  0.47000000000E+01 0. -1.
         11    1    6    6    0    0 -0.18728300530E+02 -0.28677446180E+02 -0.81067552923E+00  0.34260799100E+02  0.00000000000E+00 0. -1.
        -12    1    6    6    0    0  0.15187701161E+02 -0.75050797126E+01  0.90142235664E+02  0.91720309302E+02  0.00000000000E+00 0.  1.
         -5    1    5    5    0  503  0.14860371471E+02 -0.71936844001E+02 -0.36658956026E+02  0.82229612805E+02  0.47000000000E+01 0.  1.
<mgrwt>
<rscale>  2 0.20338761E+03</rscale>
<asrwt>0</asrwt>
<pdfrwt beam="1">  1       21 0.44441122E-01 0.20404163E+03</pdfrwt>
<pdfrwt beam="2">  1       21 0.22071855E-01 0.20404163E+03</pdfrwt>
<totfact> 0.92834015E+04</totfact>
</mgrwt>
</event>
<event>
12    1  0.1473662E-001  0.1841323E+03  0.7546771E-02  0.1163981E+00
         21   -1    0    0  504  503  0.00000000000E+00  0.00000000000E+00  0.43419329964E+03  0.43419329964E+03  0.00000000000E+00 0.  1.
         21   -1    0    0  502  504 -0.00000000000E+00 -0.00000000000E+00 -0.99304292039E+02  0.99304292039E+02  0.00000000000E+00 0. -1.
          6    2    1    2  502    0  0.61641830297E+02  0.16467095876E+02  0.43345503877E+02  0.18867544430E+03  0.17218800796E+03 0.  0.
         24    2    3    3    0    0  0.12749451957E+02  0.69351238629E+02  0.31590589114E+02  0.11554907945E+03  0.85915549335E+02 0.  0.
         -6    2    1    2    0  503 -0.61641830297E+02 -0.16467095876E+02  0.29154350372E+03  0.34482214738E+03  0.17272468923E+03 0.  0.
        -24    2    5    5    0    0 -0.74768758667E+02  0.95930401045E+01  0.29514495837E+03  0.31504787306E+03  0.80387947956E+02 0.  0.
          2    1    4    4  501    0 -0.12063902525E+02  0.80699302160E+02  0.13230350353E+02  0.82661703852E+02  0.00000000000E+00 0. -1.
         -1    1    4    4    0  501  0.24813354482E+02 -0.11348063532E+02  0.18360238761E+02  0.32887375601E+02  0.00000000000E+00 0.  1.
          5    1    3    3  502    0  0.48892378341E+02 -0.52884142753E+02  0.11754914764E+02  0.73126364846E+02  0.47000000000E+01 0. -1.
         11    1    6    6    0    0 -0.39909614741E+02 -0.30275576319E+02  0.88188547073E+02  0.10142291509E+03  0.00000000000E+00 0. -1.
        -12    1    6    6    0    0 -0.34859143926E+02  0.39868616424E+02  0.20695641130E+03  0.21362495797E+03  0.00000000000E+00 0.  1.
         -5    1    5    5    0  503  0.13126928369E+02 -0.26060135980E+02 -0.36014546473E+01  0.29774274320E+02  0.47000000000E+01 0.  1.
<mgrwt>
<rscale>  2 0.18400632E+03</rscale>
<asrwt>0</asrwt>
<pdfrwt beam="1">  1       21 0.66798968E-01 0.18413229E+03</pdfrwt>
<pdfrwt beam="2">  1       21 0.15277584E-01 0.18413229E+03</pdfrwt>
<totfact> 0.78184071E+04</totfact>
</mgrwt>
</event>
<event>
12    1  0.1473662E-001  0.2761530E+03  0.7546771E-02  0.1097850E+00
         21   -1    0    0  504  503  0.00000000000E+00  0.00000000000E+00  0.29456218979E+03  0.29456218979E+03  0.00000000000E+00 0. -1.
         21   -1    0    0  502  504 -0.00000000000E+00 -0.00000000000E+00 -0.27989978465E+03  0.27989978465E+03  0.00000000000E+00 0. -1.
          6    2    1    2  502    0  0.89708303879E+02  0.19445261140E+03  0.86535298106E+02  0.28939386677E+03  0.17435898153E+03 0.  0.
         24    2    3    3    0    0  0.46031605618E+01  0.67031281829E+02 -0.17213652375E+02  0.10428574870E+03  0.77876990978E+02 0.  0.
         -6    2    1    2    0  503 -0.89708303879E+02 -0.19445261140E+03 -0.71872892966E+02  0.28506810767E+03  0.17389282735E+03 0.  0.
        -24    2    5    5    0    0  0.23263431970E+02 -0.85415712183E+02 -0.28750457858E+02  0.12217767547E+03  0.79143947352E+02 0.  0.
          2    1    4    4  501    0  0.43538668565E+00  0.75509633930E+02 -0.35700385545E+02  0.83524917874E+02  0.00000000000E+00 0. -1.
         -1    1    4    4    0  501  0.41677738761E+01 -0.84783521012E+01  0.18486733170E+02  0.20760830829E+02  0.00000000000E+00 0.  1.
          5    1    3    3  502    0  0.85105143317E+02  0.12742132957E+03  0.10374895048E+03  0.18510811807E+03  0.47000000000E+01 0. -1.
         11    1    6    6    0    0  0.51459485327E+01 -0.96686893655E+02 -0.18790550128E+02  0.98630223386E+02  0.00000000000E+00 0. -1.
        -12    1    6    6    0    0  0.18117483437E+02  0.11271181472E+02 -0.99599077306E+01  0.23547452089E+02  0.00000000000E+00 0.  1.
         -5    1    5    5    0  503 -0.11297173585E+03 -0.10903689921E+03 -0.43122435108E+02  0.16289043219E+03  0.47000000000E+01 0.  1.
<mgrwt>
<rscale>  2 0.27607940E+03</rscale>
<asrwt>0</asrwt>
<pdfrwt beam="1">  1       21 0.45317260E-01 0.27615295E+03</pdfrwt>
<pdfrwt beam="2">  1       21 0.43061505E-01 0.27615295E+03</pdfrwt>
<totfact> 0.23229693E+04</totfact>
</mgrwt>
</event>
<event>
12    1  0.1473662E-001  0.4082464E+03  0.7546771E-02  0.1041083E+00
         21   -1    0    0  504  503  0.00000000000E+00  0.00000000000E+00  0.55645181358E+03  0.55645181358E+03  0.00000000000E+00 0. -1.
         21   -1    0    0  502  504 -0.00000000000E+00 -0.00000000000E+00 -0.55026871435E+03  0.55026871435E+03  0.00000000000E+00 0.  1.
          6    2    1    2  502    0  0.36831981029E+02  0.36767318881E+03 -0.37123927827E+03  0.55180041484E+03  0.17356534067E+03 0.  0.
         24    2    3    3    0    0  0.15761033825E+02  0.35708748865E+03 -0.29084981390E+03  0.46789214441E+03  0.81052821161E+02 0.  0.
         -6    2    1    2    0  503 -0.36831981029E+02 -0.36767318881E+03  0.37742237750E+03  0.55492011309E+03  0.17014262334E+03 0.  0.
        -24    2    5    5    0    0 -0.41077385361E+02 -0.21027317052E+03  0.13531992958E+03  0.26608023616E+03  0.81148326565E+02 0.  0.
          4    1    4    4  501    0 -0.24149106893E+02  0.53278632484E+02 -0.31425902542E+02  0.66403158010E+02  0.00000000000E+00 0. -1.
         -3    1    4    4    0  501  0.39910140718E+02  0.30380885616E+03 -0.25942391136E+03  0.40148898640E+03  0.00000000000E+00 0.  1.
          5    1    3    3  502    0  0.21070947205E+02  0.10585700166E+02 -0.80389464368E+02  0.83908270424E+02  0.47000000000E+01 0. -1.
         11    1    6    6    0    0 -0.36024226233E+02 -0.76181072842E+02  0.92720877153E+02  0.12529350261E+03  0.00000000000E+00 0. -1.
        -12    1    6    6    0    0 -0.50531591274E+01 -0.13409209768E+03  0.42599052425E+02  0.14078673355E+03  0.00000000000E+00 0.  1.
         -5    1    5    5    0  503  0.42454043314E+01 -0.15740001829E+03  0.24210244792E+03  0.28883987693E+03  0.47000000000E+01 0.  1.
<mgrwt>
<rscale>  2 0.40788505E+03</rscale>
<asrwt>0</asrwt>
<pdfrwt beam="1">  1       21 0.85607971E-01 0.40824637E+03</pdfrwt>
<pdfrwt beam="2">  1       21 0.84656725E-01 0.40824637E+03</pdfrwt>
<totfact> 0.12393871E+03</totfact>
</mgrwt>
</event>
<event>
12    1  0.1473662E-001  0.1969349E+03  0.7546771E-02  0.1152635E+00
         21   -1    0    0  504  503  0.00000000000E+00  0.00000000000E+00  0.42098757426E+03  0.42098757426E+03  0.00000000000E+00 0. -1.
         21   -1    0    0  502  504 -0.00000000000E+00 -0.00000000000E+00 -0.34317693849E+03  0.34317693849E+03  0.00000000000E+00 0. -1.
          6    2    1    2  502    0  0.91938706193E+02 -0.99534032314E+01 -0.28832647826E+03  0.34842450453E+03  0.17238236963E+03 0.  0.
         24    2    3    3    0    0  0.13795461519E+02 -0.12822459702E+02 -0.24543998959E+03  0.25911639133E+03  0.80906029037E+02 0.  0.
         -6    2    1    2    0  503 -0.91938706193E+02  0.99534032314E+01  0.36613711404E+03  0.41574000822E+03  0.17387228711E+03 0.  0.
        -24    2    5    5    0    0  0.53147727481E+01  0.47270016208E+02  0.16980966212E+03  0.19343992467E+03  0.79504602786E+02 0.  0.
          2    1    4    4  501    0  0.13185409866E+02 -0.97937050879E+01 -0.25164727238E+03  0.25218271430E+03  0.00000000000E+00 0. -1.
         -1    1    4    4    0  501  0.61005165284E+00 -0.30287546144E+01  0.62072827924E+01  0.69336770330E+01  0.00000000000E+00 0.  1.
          5    1    3    3  502    0  0.78143244674E+02  0.28690564709E+01 -0.42886488667E+02  0.89308113200E+02  0.47000000000E+01 0. -1.
         13    1    6    6    0    0  0.70855546038E+01  0.46717575225E+02  0.17845142430E+03  0.18460132111E+03  0.00000000000E+00 0. -1.
        -14    1    6    6    0    0 -0.17707818557E+01  0.55244098291E+00 -0.86417621779E+01  0.88386035639E+01  0.00000000000E+00 0.  1.
         -5    1    5    5    0  503 -0.97253478941E+02 -0.37316612977E+02  0.19632745191E+03  0.22230008355E+03  0.47000000000E+01 0.  1.
<mgrwt>
<rscale>  2 0.19660556E+03</rscale>
<asrwt>0</asrwt>
<pdfrwt beam="1">  1       21 0.64767319E-01 0.19693493E+03</pdfrwt>
<pdfrwt beam="2">  1       21 0.52796452E-01 0.19693493E+03</pdfrwt>
<totfact> 0.74453364E+03</totfact>
</mgrwt>
</event>
<event>
12    1  0.1473662E-001  0.1812422E+03  0.7546771E-02  0.1167112E+00
         21   -1    0    0  504  503  0.00000000000E+00  0.00000000000E+00  0.54942977794E+02  0.54942977794E+02  0.00000000000E+00 0. -1.
         21   -1    0    0  502  504 -0.00000000000E+00 -0.00000000000E+00 -0.86312882099E+03  0.86312882099E+03  0.00000000000E+00 0. -1.
          6    2    1    2  502    0 -0.51381141184E+02 -0.11955000473E+02 -0.66023937191E+03  0.68411265408E+03  0.17120499860E+03 0.  0.
         24    2    3    3    0    0 -0.35319834468E+00 -0.20706123631E+02 -0.15155705728E+03  0.17278084368E+03  0.80341832361E+02 0.  0.
         -6    2    1    2    0  503  0.51381141184E+02  0.11955000473E+02 -0.14794647129E+03  0.23395914471E+03  0.17339486532E+03 0.  0.
        -24    2    5    5    0    0  0.78102739778E+02 -0.35623040682E+02 -0.62113037381E+02  0.13213978403E+03  0.78954759980E+02 0.  0.
          4    1    4    4  501    0  0.12840532944E+02 -0.49504927550E+02 -0.98533401558E+02  0.11101553207E+03  0.00000000000E+00 0. -1.
         -3    1    4    4    0  501 -0.13193731289E+02  0.28798803919E+02 -0.53023655722E+02  0.61765311613E+02  0.00000000000E+00 0.  1.
          5    1    3    3  502    0 -0.51027942839E+02  0.87511231583E+01 -0.50868231463E+03  0.51133181040E+03  0.47000000000E+01 0. -1.
         13    1    6    6    0    0  0.13312094328E+02 -0.13528857433E+02  0.18416874368E+02  0.26446608485E+02  0.00000000000E+00 0. -1.
        -14    1    6    6    0    0  0.64790645450E+02 -0.22094183249E+02 -0.80529911749E+02  0.10569317555E+03  0.00000000000E+00 0.  1.
         -5    1    5    5    0  503 -0.26721598594E+02  0.47578041155E+02 -0.85833433906E+02  0.10181936067E+03  0.47000000000E+01 0.  1.
<mgrwt>
<rscale>  2 0.18071640E+03</rscale>
<asrwt>0</asrwt>
<pdfrwt beam="1">  1       21 0.84527662E-02 0.18124217E+03</pdfrwt>
<pdfrwt beam="2">  1       21 0.13278904E+00 0.18124217E+03</pdfrwt>
<totfact> 0.44940840E+04</totfact>
</mgrwt>
</event>
<event>
12    1  0.1473662E-001  0.2089742E+03  0.7546771E-02  0.1143468E+00
         21   -1    0    0  504  503  0.00000000000E+00  0.00000000000E+00  0.41253671963E+03  0.41253671963E+03  0.00000000000E+00 0. -1.
         21   -1    0    0  502  504 -0.00000000000E+00 -0.00000000000E+00 -0.29067160569E+03  0.29067160569E+03  0.00000000000E+00 0. -1.
          6    2    1    2  502    0  0.96726949977E+02 -0.54225684237E+02 -0.22175038538E+03  0.30103693745E+03  0.17074389187E+03 0.  0.
         24    2    3    3    0    0  0.53830947393E+02 -0.10312923281E+02 -0.34779825759E+02  0.10419060708E+03  0.81497969551E+02 0.  0.
         -6    2    1    2    0  503 -0.96726949977E+02  0.54225684237E+02  0.34361549933E+03  0.40217138787E+03  0.17712618711E+03 0.  0.
        -24    2    5    5    0    0 -0.45831742154E+02  0.57584581840E+02  0.89029888794E+02  0.14248402302E+03  0.83419680309E+02 0.  0.
          4    1    4    4  501    0  0.62126238593E+02  0.78383123773E+01  0.16633300510E+01  0.62640843939E+02  0.00000000000E+00 0. -1.
         -3    1    4    4    0  501 -0.82952911997E+01 -0.18151235659E+02 -0.36443155810E+02  0.41549763145E+02  0.00000000000E+00 0.  1.
          5    1    3    3  502    0  0.42896002584E+02 -0.43912760955E+02 -0.18697055962E+03  0.19684633037E+03  0.47000000000E+01 0. -1.
         13    1    6    6    0    0 -0.43061153403E+02  0.75338693705E+01  0.80545305125E+02  0.91643702990E+02  0.00000000000E+00 0. -1.
        -14    1    6    6    0    0 -0.27705887517E+01  0.50050712470E+02  0.84845836683E+01  0.50840320030E+02  0.00000000000E+00 0.  1.
         -5    1    5    5    0  503 -0.50895207823E+02 -0.33588976033E+01  0.25458561053E+03  0.25968736485E+03  0.47000000000E+01 0.  1.
<mgrwt>
<rscale>  2 0.20761564E+03</rscale>
<asrwt>0</asrwt>
<pdfrwt beam="1">  1       21 0.63467188E-01 0.20897419E+03</pdfrwt>
<pdfrwt beam="2">  1       21 0.44718708E-01 0.20897419E+03</pdfrwt>
<totfact> 0.10898086E+04</totfact>
</mgrwt>
</event>
<event>
12    1  0.1473662E-001  0.2072133E+03  0.7546771E-02  0.1144194E+00
         21   -1    0    0  504  503  0.00000000000E+00  0.00000000000E+00  0.57955637249E+03  0.57955637249E+03  0.00000000000E+00 0.  1.
         21   -1    0    0  502  504 -0.00000000000E+00 -0.00000000000E+00 -0.19535996984E+03  0.19535996984E+03  0.00000000000E+00 0. -1.
          6    2    1    2  502    0  0.26126164690E+02  0.10779655781E+03 -0.11371669209E+03  0.23636590770E+03  0.17502766041E+03 0.  0.
         24    2    3    3    0    0  0.39348145811E+02  0.14524980865E+03 -0.94334160487E+02  0.19192111820E+03  0.72725499562E+02 0.  0.
         -6    2    1    2    0  503 -0.26126164690E+02 -0.10779655781E+03  0.49791309473E+03  0.53855043462E+03  0.17267439406E+03 0.  0.
        -24    2    5    5    0    0  0.51631391074E+01 -0.13844332528E+03  0.41320167284E+03  0.44307080387E+03  0.79893069065E+02 0.  0.
          2    1    4    4  501    0 -0.43599435861E+01  0.11090518589E+03 -0.70147366016E+02  0.13129974229E+03  0.00000000000E+00 0. -1.
         -1    1    4    4    0  501  0.43708089397E+02  0.34344622751E+02 -0.24186794471E+02  0.60621375912E+02  0.00000000000E+00 0.  1.
          5    1    3    3  502    0 -0.13221981121E+02 -0.37453250832E+02 -0.19382531600E+02  0.44444789502E+02  0.47000000000E+01 0. -1.
         13    1    6    6    0    0  0.25990764583E+02 -0.39295523118E+02  0.64010204587E+02  0.79479332357E+02  0.00000000000E+00 0. -1.
        -14    1    6    6    0    0 -0.20827625475E+02 -0.99147802166E+02  0.34919146826E+03  0.36359147152E+03  0.00000000000E+00 0.  1.
         -5    1    5    5    0  503 -0.31289303797E+02  0.30646767470E+02  0.84711421892E+02  0.95479630746E+02  0.47000000000E+01 0.  1.
<mgrwt>
<rscale>  2 0.20671555E+03</rscale>
<asrwt>0</asrwt>
<pdfrwt beam="1">  1       21 0.89162518E-01 0.20721331E+03</pdfrwt>
<pdfrwt beam="2">  1       21 0.30055380E-01 0.20721331E+03</pdfrwt>
<totfact> 0.11286692E+04</totfact>
</mgrwt>
</event>
<event>
12    1  0.1473662E-001  0.2325879E+03  0.7546771E-02  0.1124837E+00
         21   -1    0    0  504  503  0.00000000000E+00  0.00000000000E+00  0.69803100853E+02  0.69803100853E+02  0.00000000000E+00 0. -1.
         21   -1    0    0  502  504 -0.00000000000E+00 -0.00000000000E+00 -0.85057408350E+03  0.85057408350E+03  0.00000000000E+00 0.  1.
          6    2    1    2  502    0 -0.40370344512E+02 -0.15003034703E+03 -0.52768803448E+03  0.57667305359E+03  0.17308460144E+03 0.  0.
         24    2    3    3    0    0  0.11098461051E+02 -0.70792410147E+02 -0.41897681052E+03  0.43256230173E+03  0.80211195897E+02 0.  0.
         -6    2    1    2    0  503  0.40370344512E+02  0.15003034703E+03 -0.25308294817E+03  0.34370413076E+03  0.17303953625E+03 0.  0.
        -24    2    5    5    0    0  0.79773362230E+02  0.13112649641E+03 -0.14356901757E+03  0.22569843442E+03  0.82278630968E+02 0.  0.
          4    1    4    4  501    0  0.44567889144E+02 -0.40019836491E+02 -0.19397332611E+03  0.20301117038E+03  0.00000000000E+00 0. -1.
         -3    1    4    4    0  501 -0.33469428093E+02 -0.30772573656E+02 -0.22500348441E+03  0.22955113135E+03  0.00000000000E+00 0.  1.
          5    1    3    3  502    0 -0.51468805562E+02 -0.79237936885E+02 -0.10871122396E+03  0.14411075186E+03  0.47000000000E+01 0. -1.
         11    1    6    6    0    0  0.31675207158E+02  0.85337694958E+02 -0.33202246817E+02  0.96892879630E+02  0.00000000000E+00 0. -1.
        -12    1    6    6    0    0  0.48098155072E+02  0.45788801448E+02 -0.11036677075E+03  0.12880555479E+03  0.00000000000E+00 0.  1.
         -5    1    5    5    0  503 -0.39403017718E+02  0.18903850627E+02 -0.10951393060E+03  0.11800569634E+03  0.47000000000E+01 0.  1.
<mgrwt>
<rscale>  2 0.23257955E+03</rscale>
<asrwt>0</asrwt>
<pdfrwt beam="1">  1       21 0.10738938E-01 0.23258794E+03</pdfrwt>
<pdfrwt beam="2">  1       21 0.13085756E+00 0.23258794E+03</pdfrwt>
<totfact> 0.29720615E+04</totfact>
</mgrwt>
</event>
<event>
12    1  0.1473662E-001  0.2322790E+03  0.7546771E-02  0.1125893E+00
         21   -1    0    0  504  503  0.00000000000E+00  0.00000000000E+00  0.83743503991E+02  0.83743503991E+02  0.00000000000E+00 0.  1.
         21   -1    0    0  502  504 -0.00000000000E+00 -0.00000000000E+00 -0.77582271632E+03  0.77582271632E+03  0.00000000000E+00 0. -1.
          6    2    1    2  502    0 -0.12552687538E+03  0.79386353621E+02 -0.52878878317E+03  0.57563436254E+03  0.17227348185E+03 0.  0.
         24    2    3    3    0    0 -0.10456090735E+03  0.21682975718E+02 -0.20315092359E+03  0.24422621957E+03  0.83504573451E+02 0.  0.
         -6    2    1    2    0  503  0.12552687538E+03 -0.79386353621E+02 -0.16329042916E+03  0.28393185777E+03  0.17858988218E+03 0.  0.
        -24    2    5    5    0    0  0.77680633337E+02  0.10377389818E+02 -0.28874038020E+02  0.11530016229E+03  0.79488655399E+02 0.  0.
          2    1    4    4  501    0 -0.86371911422E+01 -0.26122653895E+02 -0.31097042498E+02  0.41521321865E+02  0.00000000000E+00 0. -1.
         -1    1    4    4    0  501 -0.95923716210E+02  0.47805629612E+02 -0.17205388109E+03  0.20270489770E+03  0.00000000000E+00 0.  1.
          5    1    3    3  502    0 -0.20965968030E+02  0.57703377903E+02 -0.32563785958E+03  0.33140814297E+03  0.47000000000E+01 0. -1.
         13    1    6    6    0    0  0.45506433603E+02 -0.11179311590E+01 -0.55647216900E+02  0.71893657704E+02  0.00000000000E+00 0. -1.
        -14    1    6    6    0    0  0.32174199734E+02  0.11495320977E+02  0.26773178880E+02  0.43406504584E+02  0.00000000000E+00 0.  1.
         -5    1    5    5    0  503  0.47846242045E+02 -0.89763743438E+02 -0.13441639114E+03  0.16863169548E+03  0.47000000000E+01 0.  1.
<mgrwt>
<rscale>  2 0.23106437E+03</rscale>
<asrwt>0</asrwt>
<pdfrwt beam="1">  1       21 0.12883616E-01 0.23227900E+03</pdfrwt>
<pdfrwt beam="2">  1       21 0.11935734E+00 0.23227900E+03</pdfrwt>
<totfact> 0.27030185E+04</totfact>
</mgrwt>
</event>
<event>
12    1  0.1473662E-001  0.1780437E+03  0.7546771E-02  0.1170627E+00
         21   -1    0    0  504  503  0.00000000000E+00  0.00000000000E+00  0.37721756991E+03  0.37721756991E+03  0.00000000000E+00 0. -1.
         21   -1    0    0  502  504 -0.00000000000E+00 -0.00000000000E+00 -0.20140494020E+03  0.20140494020E+03  0.00000000000E+00 0. -1.
          6    2    1    2  502    0 -0.14776740280E+02 -0.96257427163E+00 -0.13494671987E+03  0.22047319235E+03  0.17371969588E+03 0.  0.
         24    2    3    3    0    0  0.35669713907E+01 -0.67213134819E+02 -0.97949542622E+02  0.14226507477E+03  0.78197888861E+02 0.  0.
         -6    2    1    2    0  503  0.14776740280E+02  0.96257427163E+00  0.31075934958E+03  0.35814931776E+03  0.17742683524E+03 0.  0.
        -24    2    5    5    0    0  0.50451172727E+02  0.42528378915E+02  0.27122813400E+03  0.29043529964E+03  0.80212086116E+02 0.  0.
          4    1    4    4  501    0  0.32977565441E+02 -0.65474236787E+02 -0.64017697007E+02  0.97327596474E+02  0.00000000000E+00 0. -1.
         -3    1    4    4    0  501 -0.29410594050E+02 -0.17388980314E+01 -0.33931845615E+02  0.44937478296E+02  0.00000000000E+00 0.  1.
          5    1    3    3  502    0 -0.18343711671E+02  0.66250560547E+02 -0.36997177246E+02  0.78208117576E+02  0.47000000000E+01 0. -1.
         11    1    6    6    0    0  0.79453954629E+01  0.12857884854E+02  0.20855787546E+03  0.20910485870E+03  0.00000000000E+00 0. -1.
        -12    1    6    6    0    0  0.42505777264E+02  0.29670494061E+02  0.62670258535E+02  0.81330440940E+02  0.00000000000E+00 0.  1.
         -5    1    5    5    0  503 -0.35674432447E+02 -0.41565804644E+02  0.39531215579E+02  0.67714018129E+02  0.47000000000E+01 0.  1.
<mgrwt>
<rscale>  2 0.17711292E+03</rscale>
<asrwt>0</asrwt>
<pdfrwt beam="1">  1       21 0.58033472E-01 0.17804370E+03</pdfrwt>
<pdfrwt beam="2">  1       21 0.30985375E-01 0.17804370E+03</pdfrwt>
<totfact> 0.28067296E+04</totfact>
</mgrwt>
</event>
<event>
12    1  0.1473662E-001  0.1776352E+03  0.7546771E-02  0.1170268E+00
         21   -1    0    0  504  503  0.00000000000E+00  0.00000000000E+00  0.60753915683E+03  0.60753915683E+03  0.00000000000E+00 0. -1.
         21   -1    0    0  502  504 -0.00000000000E+00 -0.00000000000E+00 -0.63601620716E+02  0.63601620716E+02  0.00000000000E+00 0. -1.
          6    2    1    2  502    0 -0.27840609909E+02  0.43432797817E+02  0.12752186915E+03  0.21866886888E+03  0.16997864460E+03 0.  0.
         24    2    3    3    0    0 -0.77577991776E+01  0.22770967102E+02 -0.32390492163E+01  0.84688503502E+02  0.81135385589E+02 0.  0.
         -6    2    1    2    0  503  0.27840609909E+02 -0.43432797817E+02  0.41641566696E+03  0.45247190867E+03  0.16931424320E+03 0.  0.
        -24    2    5    5    0    0  0.38916032284E+02  0.38465635872E+02  0.24294686276E+03  0.26026489928E+03  0.75634495865E+02 0.  0.
          2    1    4    4  501    0 -0.94009986436E+01  0.45242937694E+02 -0.25698670289E+02  0.52874604881E+02  0.00000000000E+00 0. -1.
         -1    1    4    4    0  501  0.16431994661E+01 -0.22471970592E+02  0.22459621072E+02  0.31813898621E+02  0.00000000000E+00 0.  1.
          5    1    3    3  502    0 -0.20082810731E+02  0.20661830715E+02  0.13076091836E+03  0.13398036538E+03  0.47000000000E+01 0. -1.
         13    1    6    6    0    0  0.29161313571E+02 -0.13594882206E+02  0.14882451043E+03  0.15226272669E+03  0.00000000000E+00 0. -1.
        -14    1    6    6    0    0  0.97547187129E+01  0.52060518078E+02  0.94122352321E+02  0.10800217260E+03  0.00000000000E+00 0.  1.
         -5    1    5    5    0  503 -0.11075422375E+02 -0.81898433689E+02  0.17346880421E+03  0.19220700938E+03  0.47000000000E+01 0.  1.
<mgrwt>
<rscale>  2 0.17747602E+03</rscale>
<asrwt>0</asrwt>
<pdfrwt beam="1">  1       21 0.93467559E-01 0.17763515E+03</pdfrwt>
<pdfrwt beam="2">  1       21 0.97848651E-02 0.17763515E+03</pdfrwt>
<totfact> 0.81665305E+04</totfact>
</mgrwt>
</event>
<event>
12    1  0.1473662E-001  0.2363669E+03  0.7546771E-02  0.1123699E+00
         21   -1    0    0  504  503  0.00000000000E+00  0.00000000000E+00  0.16102356243E+04  0.16102356243E+04  0.00000000000E+00 0.  1.
         21   -1    0    0  502  504 -0.00000000000E+00 -0.00000000000E+00 -0.47179713167E+02  0.47179713167E+02  0.00000000000E+00 0. -1.
          6    2    1    2  502    0 -0.14544322766E+03 -0.76962810087E+02  0.34491034845E+03  0.41812968998E+03  0.16968288825E+03 0.  0.
         24    2    3    3    0    0 -0.14627293332E+03 -0.87689213058E+01  0.25122244672E+03  0.30215293451E+03  0.81920773283E+02 0.  0.
         -6    2    1    2    0  503  0.14544322766E+03  0.76962810087E+02  0.12181455627E+04  0.12392856475E+04  0.15771270582E+03 0.  0.
        -24    2    5    5    0    0  0.13662738509E+03  0.99942233107E+01  0.74566221282E+03  0.76197535366E+03  0.76337258948E+02 0.  0.
          2    1    4    4  501    0 -0.15046268275E+03  0.76201585072E+01  0.23102568677E+03  0.27580782016E+03  0.00000000000E+00 0. -1.
         -1    1    4    4    0  501  0.41897494339E+01 -0.16389079813E+02  0.20196759951E+02  0.26345114347E+02  0.00000000000E+00 0.  1.
          5    1    3    3  502    0  0.82970565315E+00 -0.68193888782E+02  0.93687901730E+02  0.11597675547E+03  0.47000000000E+01 0. -1.
         13    1    6    6    0    0 -0.96559551920E+01  0.34017907839E+01  0.57800738422E+02  0.58700383417E+02  0.00000000000E+00 0. -1.
        -14    1    6    6    0    0  0.14628334029E+03  0.65924325268E+01  0.68786147440E+03  0.70327497025E+03  0.00000000000E+00 0.  1.
         -5    1    5    5    0  503  0.88158425677E+01  0.66968586777E+02  0.47248334990E+03  0.47731029386E+03  0.47000000000E+01 0.  1.
<mgrwt>
<rscale>  2 0.23422780E+03</rscale>
<asrwt>0</asrwt>
<pdfrwt beam="1">  1       21 0.24772852E+00 0.23636685E+03</pdfrwt>
<pdfrwt beam="2">  1       21 0.72584186E-02 0.23636685E+03</pdfrwt>
<totfact> 0.93738037E+03</totfact>
</mgrwt>
</event>
<event>
12    1  0.1473662E-001  0.1900638E+03  0.7546771E-02  0.1158502E+00
         21   -1    0    0  504  503  0.00000000000E+00  0.00000000000E+00  0.49839448998E+02  0.49839448998E+02  0.00000000000E+00 0. -1.
         21   -1    0    0  502  504 -0.00000000000E+00 -0.00000000000E+00 -0.77059896326E+03  0.77059896326E+03  0.00000000000E+00 0.  1.
          6    2    1    2  502    0  0.24681102734E+02 -0.73725476968E+02 -0.25819937337E+03  0.32035228821E+03  0.17295684250E+03 0.  0.
         24    2    3    3    0    0 -0.14297436537E+01  0.27710595448E+02 -0.10065796960E+03  0.13111054602E+03  0.79297081702E+02 0.  0.
         -6    2    1    2    0  503 -0.24681102734E+02  0.73725476968E+02 -0.46256014089E+03  0.50008612405E+03  0.17343484291E+03 0.  0.
        -24    2    5    5    0    0 -0.59612652163E+02  0.97084909153E+02 -0.40562745950E+03  0.42916859146E+03  0.81687796601E+02 0.  0.
          2    1    4    4  501    0  0.95920958896E+01  0.10997974725E+02  0.10618448694E+02  0.18047581674E+02  0.00000000000E+00 0. -1.
         -1    1    4    4    0  501 -0.11021839543E+02  0.16712620723E+02 -0.11127641829E+03  0.11306296434E+03  0.00000000000E+00 0.  1.
          5    1    3    3  502    0  0.26110846388E+02 -0.10143607242E+03 -0.15754140377E+03  0.18924174220E+03  0.47000000000E+01 0. -1.
         13    1    6    6    0    0  0.10155081019E+02 -0.23226124048E+01 -0.72534415108E+01  0.12693802135E+02  0.00000000000E+00 0. -1.
        -14    1    6    6    0    0 -0.69767733183E+02  0.99407521558E+02 -0.39837401799E+03  0.41647478933E+03  0.00000000000E+00 0.  1.
         -5    1    5    5    0  503  0.34931549429E+02 -0.23359432184E+02 -0.56932681391E+02  0.70917532585E+02  0.47000000000E+01 0.  1.
<mgrwt>
<rscale>  2 0.18995468E+03</rscale>
<asrwt>0</asrwt>
<pdfrwt beam="1">  1       21 0.76676077E-02 0.19006380E+03</pdfrwt>
<pdfrwt beam="2">  1       21 0.11855368E+00 0.19006380E+03</pdfrwt>
<totfact> 0.70393140E+04</totfact>
</mgrwt>
</event>
<event>
12    1  0.1473662E-001  0.2304107E+03  0.7546771E-02  0.1126694E+00
         21   -1    0    0  504  503  0.00000000000E+00  0.00000000000E+00  0.21518343917E+03  0.21518343917E+03  0.00000000000E+00 0.  1.
         21   -1    0    0  502  504 -0.00000000000E+00 -0.00000000000E+00 -0.26870383690E+03  0.26870383690E+03  0.00000000000E+00 0.  1.
          6    2    1    2  502    0 -0.11595842081E+03  0.97365008614E+02 -0.99271071108E+02  0.25088610407E+03  0.17367438325E+03 0.  0.
         24    2    3    3    0    0  0.54914170358E+01  0.59530666383E+02 -0.21112410020E+02  0.10151285724E+03  0.79278436085E+02 0.  0.
         -6    2    1    2    0  503  0.11595842081E+03 -0.97365008614E+02  0.45750673378E+02  0.23300117200E+03  0.17108513021E+03 0.  0.
        -24    2    5    5    0    0  0.87924996249E+02  0.27636280169E+01  0.42920134294E+02  0.12887759773E+03  0.83838264918E+02 0.  0.
          4    1    4    4  501    0  0.16969004722E+00  0.48013383659E+02  0.24687050259E+02  0.53988556709E+02  0.00000000000E+00 0. -1.
         -3    1    4    4    0  501  0.53217269886E+01  0.11517282724E+02 -0.45799460279E+02  0.47524300535E+02  0.00000000000E+00 0.  1.
          5    1    3    3  502    0 -0.12144983784E+03  0.37834342231E+02 -0.78158661088E+02  0.14937324683E+03  0.47000000000E+01 0. -1.
         11    1    6    6    0    0 -0.11159051701E+02  0.12742696946E+02 -0.59429267910E+01  0.17950463481E+02  0.00000000000E+00 0. -1.
        -12    1    6    6    0    0  0.99084047950E+02 -0.99790689293E+01  0.48863061085E+02  0.11092713425E+03  0.00000000000E+00 0.  1.
         -5    1    5    5    0  503  0.28033424558E+02 -0.10012863663E+03  0.28305390836E+01  0.10412357426E+03  0.47000000000E+01 0.  1.
<mgrwt>
<rscale>  2 0.22992282E+03</rscale>
<asrwt>0</asrwt>
<pdfrwt beam="1">  1       21 0.33105144E-01 0.23041070E+03</pdfrwt>
<pdfrwt beam="2">  1       21 0.41339052E-01 0.23041070E+03</pdfrwt>
<totfact> 0.48641301E+04</totfact>
</mgrwt>
</event>
<event>
12    1  0.1473662E-001  0.2138600E+03  0.7546771E-02  0.1138580E+00
         21   -1    0    0  504  503  0.00000000000E+00  0.00000000000E+00  0.18319937447E+03  0.18319937447E+03  0.00000000000E+00 0.  1.
         21   -1    0    0  502  504 -0.00000000000E+00 -0.00000000000E+00 -0.28791701982E+03  0.28791701982E+03  0.00000000000E+00 0.  1.
          6    2    1    2  502    0 -0.12355547197E+03 -0.26760716535E+02 -0.13844990203E+03  0.25461243809E+03  0.17227021698E+03 0.  0.
         24    2    3    3    0    0 -0.19271735208E+02 -0.58659523050E+02 -0.44378457224E+02  0.11051469926E+03  0.80197954241E+02 0.  0.
         -6    2    1    2    0  503  0.12355547197E+03  0.26760716535E+02  0.33732256680E+02  0.21650395619E+03  0.17249349931E+03 0.  0.
        -24    2    5    5    0    0  0.89284438312E+02  0.39064591719E+02 -0.41789105063E+02  0.13253101310E+03  0.79500860879E+02 0.  0.
          4    1    4    4  501    0  0.37651686388E+00 -0.56134831568E+02  0.59281426481E+01  0.56448241384E+02  0.00000000000E+00 0. -1.
         -3    1    4    4    0  501 -0.19648252072E+02 -0.25246914827E+01 -0.50306599872E+02  0.54066457876E+02  0.00000000000E+00 0.  1.
          5    1    3    3  502    0 -0.10428373676E+03  0.31898806516E+02 -0.94071444805E+02  0.14409773883E+03  0.47000000000E+01 0. -1.
         13    1    6    6    0    0  0.59241542723E+02 -0.17276489200E+02 -0.24369670905E+02  0.66346954137E+02  0.00000000000E+00 0. -1.
        -14    1    6    6    0    0  0.30042895589E+02  0.56341080918E+02 -0.17419434159E+02  0.66184058963E+02  0.00000000000E+00 0.  1.
         -5    1    5    5    0  503  0.34271033655E+02 -0.12303875184E+02  0.75521361744E+02  0.83972943094E+02  0.47000000000E+01 0.  1.
<mgrwt>
<rscale>  2 0.21381497E+03</rscale>
<asrwt>0</asrwt>
<pdfrwt beam="1">  1       21 0.28184519E-01 0.21386000E+03</pdfrwt>
<pdfrwt beam="2">  1       21 0.44294926E-01 0.21386000E+03</pdfrwt>
<totfact> 0.58308271E+04</totfact>
</mgrwt>
</event>
<event>
12    1  0.1473662E-001  0.3133234E+03  0.7546771E-02  0.1078832E+00
         21   -1    0    0  504  503  0.00000000000E+00  0.00000000000E+00  0.78877130043E+03  0.78877130043E+03  0.00000000000E+00 0.  1.
         21   -1    0    0  502  504 -0.00000000000E+00 -0.00000000000E+00 -0.17594847072E+03  0.17594847072E+03  0.00000000000E+00 0. -1.
          6    2    1    2  502    0 -0.19661951982E+03 -0.17093087906E+03  0.44702022435E+02  0.31592641583E+03  0.17301626634E+03 0.  0.
         24    2    3    3    0    0 -0.64879914168E+02 -0.12445373525E+03 -0.17212600977E+02  0.16305078276E+03  0.81185889453E+02 0.  0.
         -6    2    1    2    0  503  0.19661951982E+03  0.17093087906E+03  0.56812080727E+03  0.64879335533E+03  0.17405448937E+03 0.  0.
        -24    2    5    5    0    0  0.27874591411E+02  0.50816106420E+02  0.12753850301E+03  0.16192862431E+03  0.81212930655E+02 0.  0.
          2    1    4    4  501    0 -0.82533357466E+02 -0.86700125683E+02 -0.19640726101E+02  0.12130302968E+03  0.00000000000E+00 0. -1.
         -1    1    4    4    0  501  0.17653443297E+02 -0.37753609565E+02  0.24281251234E+01  0.41747753078E+02  0.00000000000E+00 0.  1.
          5    1    3    3  502    0 -0.13173960565E+03 -0.46477143814E+02  0.61914623413E+02  0.15287563307E+03  0.47000000000E+01 0. -1.
         13    1    6    6    0    0  0.43493061212E+02  0.63088054707E+02  0.11579664826E+03  0.13885464619E+03  0.00000000000E+00 0. -1.
        -14    1    6    6    0    0 -0.15618469801E+02 -0.12271948287E+02  0.11741854750E+02  0.23073978128E+02  0.00000000000E+00 0.  1.
         -5    1    5    5    0  503  0.16874492841E+03  0.12011477264E+03  0.44058230427E+03  0.48686473101E+03  0.47000000000E+01 0.  1.
<mgrwt>
<rscale>  2 0.31317943E+03</rscale>
<asrwt>0</asrwt>
<pdfrwt beam="1">  1       21 0.12134943E+00 0.31332342E+03</pdfrwt>
<pdfrwt beam="2">  1       21 0.27068996E-01 0.31332342E+03</pdfrwt>
<totfact> 0.61983617E+03</totfact>
</mgrwt>
</event>
<event>
12    1  0.1473662E-001  0.3553317E+03  0.7546771E-02  0.1060461E+00
         21   -1    0    0  504  503  0.00000000000E+00  0.00000000000E+00  0.50513941332E+03  0.50513941332E+03  0.00000000000E+00 0.  1.
         21   -1    0    0  502  504 -0.00000000000E+00 -0.00000000000E+00 -0.24986253780E+03  0.24986253780E+03  0.00000000000E+00 0.  1.
          6    2    1    2  502    0  0.29602461310E+03  0.92750710730E+02  0.12877830739E+03  0.37782490863E+03  0.17301602013E+03 0.  0.
         24    2    3    3    0    0  0.17218107071E+03  0.16408804820E+01  0.22493617213E+02  0.19085766678E+03  0.79193892131E+02 0.  0.
         -6    2    1    2    0  503 -0.29602461310E+03 -0.92750710730E+02  0.12649856813E+03  0.37717704249E+03  0.17328406661E+03 0.  0.
        -24    2    5    5    0    0 -0.16783239077E+03 -0.34769082807E+02  0.14048021050E+03  0.23571082262E+03  0.80301319086E+02 0.  0.
          4    1    4    4  501    0  0.11164186659E+03 -0.31698610199E+02  0.33686349726E+02  0.12084485269E+03  0.00000000000E+00 0. -1.
         -3    1    4    4    0  501  0.60539204122E+02  0.33339490681E+02 -0.11192732513E+02  0.70012814083E+02  0.00000000000E+00 0.  1.
          5    1    3    3  502    0  0.12384354239E+03  0.91109830248E+02  0.10628469018E+03  0.18696724185E+03  0.47000000000E+01 0. -1.
         13    1    6    6    0    0  0.62744579465E+01  0.35650184169E+01 -0.20051678838E+01  0.74899183626E+01  0.00000000000E+00 0. -1.
        -14    1    6    6    0    0 -0.17410684872E+03 -0.38334101224E+02  0.14248537838E+03  0.22822090425E+03  0.00000000000E+00 0.  1.
         -5    1    5    5    0  503 -0.12819222233E+03 -0.57981627923E+02 -0.13981642364E+02  0.14146621988E+03  0.47000000000E+01 0.  1.
<mgrwt>
<rscale>  2 0.35529906E+03</rscale>
<asrwt>0</asrwt>
<pdfrwt beam="1">  1       21 0.77713755E-01 0.35533172E+03</pdfrwt>
<pdfrwt beam="2">  1       21 0.38440391E-01 0.35533172E+03</pdfrwt>
<totfact> 0.87984761E+03</totfact>
</mgrwt>
</event>
<event>
12    1  0.1473662E-001  0.2356566E+03  0.7546771E-02  0.1123944E+00
         21   -1    0    0  504  503  0.00000000000E+00  0.00000000000E+00  0.81707922362E+03  0.81707922362E+03  0.00000000000E+00 0. -1.
         21   -1    0    0  502  504 -0.00000000000E+00 -0.00000000000E+00 -0.10016651389E+03  0.10016651389E+03  0.00000000000E+00 0. -1.
          6    2    1    2  502    0 -0.37995764822E+02  0.15460139610E+03  0.94002500737E+02  0.25371343389E+03  0.17374914840E+03 0.  0.
         24    2    3    3    0    0 -0.25360492667E+02  0.90065037149E+02  0.12920800603E+03  0.17897315471E+03  0.81128390705E+02 0.  0.
         -6    2    1    2    0  503  0.37995764822E+02 -0.15460139610E+03  0.62291020899E+03  0.66353230363E+03  0.16405096669E+03 0.  0.
        -24    2    5    5    0    0  0.33541352055E+02 -0.11716589924E+03  0.60308077389E+03  0.62067726058E+03  0.81737211414E+02 0.  0.
          2    1    4    4  501    0  0.90748969695E+01  0.59017010207E+02  0.24655106782E+02  0.64600584667E+02  0.00000000000E+00 0. -1.
         -1    1    4    4    0  501 -0.34435389637E+02  0.31048026942E+02  0.10455289925E+03  0.11437257004E+03  0.00000000000E+00 0.  1.
          5    1    3    3  502    0 -0.12635272155E+02  0.64536358949E+02 -0.35205505294E+02  0.74740279179E+02  0.47000000000E+01 0. -1.
         11    1    6    6    0    0  0.58018911679E+02 -0.76775275729E+02  0.33845126179E+03  0.35186630086E+03  0.00000000000E+00 0. -1.
        -12    1    6    6    0    0 -0.24477559624E+02 -0.40390623514E+02  0.26462951210E+03  0.26881095972E+03  0.00000000000E+00 0.  1.
         -5    1    5    5    0  503  0.44544127671E+01 -0.37435496855E+02  0.19829435107E+02  0.42855043047E+02  0.47000000000E+01 0. -1.
<mgrwt>
<rscale>  2 0.23387231E+03</rscale>
<asrwt>0</asrwt>
<pdfrwt beam="1">  1       21 0.12570449E+00 0.23565661E+03</pdfrwt>
<pdfrwt beam="2">  1       21 0.15410233E-01 0.23565661E+03</pdfrwt>
<totfact> 0.17102735E+04</totfact>
</mgrwt>
</event>
<event>
12    1  0.1473662E-001  0.2383027E+03  0.7546771E-02  0.1121109E+00
         21   -1    0    0  504  503  0.00000000000E+00  0.00000000000E+00  0.23306473751E+03  0.23306473751E+03  0.00000000000E+00 0. -1.
         21   -1    0    0  502  504 -0.00000000000E+00 -0.00000000000E+00 -0.26390928662E+03  0.26390928662E+03  0.00000000000E+00 0.  1.
          6    2    1    2  502    0 -0.13043112506E+03 -0.96521783305E+02 -0.86118826035E+02  0.25338635282E+03  0.17452638357E+03 0.  0.
         24    2    3    3    0    0 -0.15914312169E+03 -0.94081038517E+02 -0.95026555704E+02  0.22286138544E+03  0.80370242254E+02 0.  0.
         -6    2    1    2    0  503  0.13043112506E+03  0.96521783305E+02  0.55274276927E+02  0.24358767131E+03  0.17306349958E+03 0.  0.
        -24    2    5    5    0    0  0.86341812527E+02  0.49821972758E+01  0.74841035129E+02  0.14001010947E+03  0.80758401011E+02 0.  0.
          2    1    4    4  501    0 -0.11357241862E+03 -0.27466111116E+02 -0.77668964451E+02  0.14030520151E+03  0.00000000000E+00 0. -1.
         -1    1    4    4    0  501 -0.45570703072E+02 -0.66614927401E+02 -0.17357591253E+02  0.82556183931E+02  0.00000000000E+00 0.  1.
          5    1    3    3  502    0  0.28711996635E+02 -0.24407447885E+01  0.89077296690E+01  0.30524967383E+02  0.47000000000E+01 0. -1.
         11    1    6    6    0    0  0.20585025425E+02 -0.12378267343E+02  0.67450556399E+02  0.71599876625E+02  0.00000000000E+00 0. -1.
        -12    1    6    6    0    0  0.65756787102E+02  0.17360464619E+02  0.73904787294E+01  0.68410232842E+02  0.00000000000E+00 0.  1.
         -5    1    5    5    0  503  0.44089312530E+02  0.91539586030E+02 -0.19566758202E+02  0.10357756184E+03  0.47000000000E+01 0.  1.
<mgrwt>
<rscale>  2 0.23803496E+03</rscale>
<asrwt>0</asrwt>
<pdfrwt beam="1">  1       21 0.35856114E-01 0.23830273E+03</pdfrwt>
<pdfrwt beam="2">  1       21 0.40601429E-01 0.23830273E+03</pdfrwt>
<totfact> 0.42900074E+04</totfact>
</mgrwt>
</event>
<event>
12    1  0.1473662E-001  0.1812310E+03  0.7546771E-02  0.1167292E+00
         21   -1    0    0  504  503  0.00000000000E+00  0.00000000000E+00  0.23947344100E+03  0.23947344100E+03  0.00000000000E+00 0. -1.
         21   -1    0    0  502  504 -0.00000000000E+00 -0.00000000000E+00 -0.21608714169E+03  0.21608714169E+03  0.00000000000E+00 0. -1.
          6    2    1    2  502    0  0.43027078839E+02 -0.31641297119E+02 -0.12773895517E+03  0.22172483047E+03  0.17318244305E+03 0.  0.
         24    2    3    3    0    0  0.80046739191E+02  0.20686383966E+02 -0.71207852800E+02  0.13612987153E+03  0.81396416913E+02 0.  0.
         -6    2    1    2    0  503 -0.43027078839E+02  0.31641297119E+02  0.15112525447E+03  0.23383575222E+03  0.17025808433E+03 0.  0.
        -24    2    5    5    0    0 -0.16808504081E+02 -0.13484535116E+02  0.10325348081E+02  0.83601075676E+02  0.80113472927E+02 0.  0.
          4    1    4    4  501    0  0.41811881871E+02  0.32825068934E+02 -0.79044363289E+02  0.95256128327E+02  0.00000000000E+00 0. -1.
         -3    1    4    4    0  501  0.38234857321E+02 -0.12138684967E+02  0.78365104881E+01  0.40873743206E+02  0.00000000000E+00 0.  1.
          5    1    3    3  502    0 -0.37019660353E+02 -0.52327681085E+02 -0.56531102365E+02  0.85594958935E+02  0.47000000000E+01 0. -1.
         11    1    6    6    0    0  0.23142249213E+02  0.19768376132E+02  0.84542120485E+01  0.31588385443E+02  0.00000000000E+00 0. -1.
        -12    1    6    6    0    0 -0.39950753294E+02 -0.33252911248E+02  0.18711360327E+01  0.52012690233E+02  0.00000000000E+00 0.  1.
         -5    1    5    5    0  503 -0.26218574757E+02  0.45125832234E+02  0.14079990639E+03  0.15023467654E+03  0.47000000000E+01 0.  1.
<mgrwt>
<rscale>  2 0.18052879E+03</rscale>
<asrwt>0</asrwt>
<pdfrwt beam="1">  1       21 0.36842068E-01 0.18123096E+03</pdfrwt>
<pdfrwt beam="2">  1       21 0.33244175E-01 0.18123096E+03</pdfrwt>
<totfact> 0.62220168E+04</totfact>
</mgrwt>
</event>
<event>
12    1  0.1473662E-001  0.2691336E+03  0.7546771E-02  0.1102885E+00
         21   -1    0    0  504  503  0.00000000000E+00  0.00000000000E+00  0.28816741089E+03  0.28816741089E+03  0.00000000000E+00 0. -1.
         21   -1    0    0  502  504 -0.00000000000E+00 -0.00000000000E+00 -0.24433094586E+03  0.24433094586E+03  0.00000000000E+00 0.  1.
          6    2    1    2  502    0  0.91970889647E+02 -0.18575090414E+03  0.24656774433E+02  0.27026073318E+03  0.17167080254E+03 0.  0.
         24    2    3    3    0    0  0.12181120513E+03 -0.15212669888E+03  0.52796109716E+02  0.21701654291E+03  0.79550289063E+02 0.  0.
         -6    2    1    2    0  503 -0.91970889647E+02  0.18575090414E+03  0.19179690596E+02  0.26223762357E+03  0.15949503990E+03 0.  0.
        -24    2    5    5    0    0 -0.90771621541E+02  0.66738170945E+02  0.33032736432E+02  0.14232321332E+03  0.80444170929E+02 0.  0.
          2    1    4    4  501    0  0.96755757931E+02 -0.10423377390E+03  0.72315528419E+02  0.15954902684E+03  0.00000000000E+00 0. -1.
         -1    1    4    4    0  501  0.25055447195E+02 -0.47892924980E+02 -0.19519418703E+02  0.57467516075E+02  0.00000000000E+00 0.  1.
          5    1    3    3  502    0 -0.29840315479E+02 -0.33624205252E+02 -0.28139335282E+02  0.53244190264E+02  0.47000000000E+01 0. -1.
         11    1    6    6    0    0 -0.75463670148E+02  0.49886137810E+02  0.58835745307E+02  0.10791217347E+03  0.00000000000E+00 0. -1.
        -12    1    6    6    0    0 -0.15307951393E+02  0.16852033136E+02 -0.25803008875E+02  0.34411039852E+02  0.00000000000E+00 0.  1.
         -5    1    5    5    0  503 -0.11992681055E+01  0.11901273319E+03 -0.13853045836E+02  0.11991441024E+03  0.47000000000E+01 0.  1.
<mgrwt>
<rscale>  2 0.26721359E+03</rscale>
<asrwt>0</asrwt>
<pdfrwt beam="1">  1       21 0.44333448E-01 0.26913362E+03</pdfrwt>
<pdfrwt beam="2">  1       21 0.37589376E-01 0.26913362E+03</pdfrwt>
<totfact> 0.32164623E+04</totfact>
</mgrwt>
</event>
<event>
12    1  0.1473662E-001  0.2600415E+03  0.7546771E-02  0.1107954E+00
         21   -1    0    0  504  503  0.00000000000E+00  0.00000000000E+00  0.18957456522E+03  0.18957456522E+03  0.00000000000E+00 0.  1.
         21   -1    0    0  502  504 -0.00000000000E+00 -0.00000000000E+00 -0.42907316593E+03  0.42907316593E+03  0.00000000000E+00 0. -1.
          6    2    1    2  502    0 -0.75393054238E+02  0.17468476335E+03 -0.25425225316E+03  0.36368365431E+03  0.17726452832E+03 0.  0.
         24    2    3    3    0    0 -0.49213040500E+02  0.20156409710E+03 -0.21392412159E+03  0.30839948028E+03  0.79351755142E+02 0.  0.
         -6    2    1    2    0  503  0.75393054238E+02 -0.17468476335E+03  0.14753652444E+02  0.25496407684E+03  0.16908616457E+03 0.  0.
        -24    2    5    5    0    0  0.37149612849E+02 -0.17176204747E+03  0.54539513239E+02  0.19950140655E+03  0.77097068837E+02 0.  0.
          4    1    4    4  501    0 -0.10105361059E+02  0.16295462177E+03 -0.18336890768E+03  0.24552084103E+03  0.00000000000E+00 0. -1.
         -3    1    4    4    0  501 -0.39107679441E+02  0.38609475332E+02 -0.30555213914E+02  0.62878639251E+02  0.00000000000E+00 0.  1.
          5    1    3    3  502    0 -0.26180013738E+02 -0.26879333751E+02 -0.40328131569E+02  0.55284174029E+02  0.47000000000E+01 0. -1.
         13    1    6    6    0    0  0.49162106340E+02 -0.76390877835E+02  0.40734144080E+01  0.90934435838E+02  0.00000000000E+00 0. -1.
        -14    1    6    6    0    0 -0.12012493491E+02 -0.95371169635E+02  0.50466098831E+02  0.10856697071E+03  0.00000000000E+00 0.  1.
         -5    1    5    5    0  503  0.38243441390E+02 -0.29227158762E+01 -0.39785860794E+02  0.55462670298E+02  0.47000000000E+01 0.  1.
<mgrwt>
<rscale>  2 0.25865429E+03</rscale>
<asrwt>0</asrwt>
<pdfrwt beam="1">  1       21 0.29165318E-01 0.26004152E+03</pdfrwt>
<pdfrwt beam="2">  1       21 0.66011256E-01 0.26004152E+03</pdfrwt>
<totfact> 0.22904540E+04</totfact>
</mgrwt>
</event>
<event>
12    1  0.1473662E-001  0.2301763E+03  0.7546771E-02  0.1126874E+00
         21   -1    0    0  504  503  0.00000000000E+00  0.00000000000E+00  0.82905766119E+03  0.82905766119E+03  0.00000000000E+00 0. -1.
         21   -1    0    0  502  504 -0.00000000000E+00 -0.00000000000E+00 -0.87753714103E+02  0.87753714103E+02  0.00000000000E+00 0. -1.
          6    2    1    2  502    0  0.15110970949E+03 -0.55925046113E+01  0.12770228755E+03  0.26145794527E+03  0.17084192252E+03 0.  0.
         24    2    3    3    0    0  0.66381539746E+02 -0.61276142641E+02  0.40250160102E+02  0.12748222028E+03  0.80438589146E+02 0.  0.
         -6    2    1    2    0  503 -0.15110970949E+03  0.55925046113E+01  0.61360165954E+03  0.65535343002E+03  0.17353876005E+03 0.  0.
        -24    2    5    5    0    0 -0.16998859328E+03  0.15061296572E+02  0.60174550825E+03  0.63068100416E+03  0.80857330004E+02 0.  0.
          2    1    4    4  501    0  0.50829542143E+02 -0.68549147714E+02  0.17822596701E+01  0.85356923893E+02  0.00000000000E+00 0. -1.
         -1    1    4    4    0  501  0.15551997602E+02  0.72730050738E+01  0.38467900432E+02  0.42125296389E+02  0.00000000000E+00 0.  1.
          5    1    3    3  502    0  0.84728169744E+02  0.55683638029E+02  0.87452127445E+02  0.13397572499E+03  0.47000000000E+01 0. -1.
         11    1    6    6    0    0 -0.13445195169E+03  0.30534422791E+02  0.35364890359E+03  0.37957505885E+03  0.00000000000E+00 0. -1.
        -12    1    6    6    0    0 -0.35536641592E+02 -0.15473126219E+02  0.24809660465E+03  0.25110594531E+03  0.00000000000E+00 0.  1.
         -5    1    5    5    0  503  0.18878883788E+02 -0.94687919603E+01  0.11856151292E+02  0.24672425858E+02  0.47000000000E+01 0.  1.
<mgrwt>
<rscale>  2 0.22966801E+03</rscale>
<asrwt>0</asrwt>
<pdfrwt beam="1">  1       21 0.12754733E+00 0.23017628E+03</pdfrwt>
<pdfrwt beam="2">  1       21 0.13500572E-01 0.23017628E+03</pdfrwt>
<totfact> 0.21047487E+04</totfact>
</mgrwt>
</event>
<event>
12    1  0.1473662E-001  0.1878613E+03  0.7546771E-02  0.1160676E+00
         21   -1    0    0  504  503  0.00000000000E+00  0.00000000000E+00  0.25860932807E+04  0.25860932807E+04  0.00000000000E+00 0.  1.
         21   -1    0    0  502  504 -0.00000000000E+00 -0.00000000000E+00 -0.14338022598E+02  0.14338022598E+02  0.00000000000E+00 0.  1.
          6    2    1    2  502    0  0.63830081594E+02 -0.38259276908E+02  0.15923956288E+04  0.16034387107E+04  0.17249292384E+03 0.  0.
         24    2    3    3    0    0  0.65436604369E+02 -0.76543613059E+02  0.14566751770E+04  0.14623344856E+04  0.79866780007E+02 0.  0.
         -6    2    1    2    0  503 -0.63830081594E+02  0.38259276908E+02  0.97935962936E+03  0.99699259266E+03  0.17120424819E+03 0.  0.
        -24    2    5    5    0    0 -0.21766234170E+02  0.39246698822E+02  0.25340501759E+03  0.26980449414E+03  0.81032646523E+02 0.  0.
          2    1    4    4  501    0  0.83173481658E+02 -0.65029391684E+02  0.11080226973E+04  0.11130413054E+04  0.00000000000E+00 0. -1.
         -1    1    4    4    0  501 -0.17736877289E+02 -0.11514221375E+02  0.34865247966E+03  0.34929318013E+03  0.00000000000E+00 0.  1.
          5    1    3    3  502    0 -0.16065227749E+01  0.38284336150E+02  0.13572045181E+03  0.14110422513E+03  0.47000000000E+01 0. -1.
         13    1    6    6    0    0  0.30181845691E+02  0.10168895177E+02  0.11041468399E+03  0.11491628553E+03  0.00000000000E+00 0. -1.
        -14    1    6    6    0    0 -0.51948079861E+02  0.29077803645E+02  0.14299033359E+03  0.15488820861E+03  0.00000000000E+00 0.  1.
         -5    1    5    5    0  503 -0.42063847424E+02 -0.98742191344E+00  0.72595461177E+03  0.72718809851E+03  0.47000000000E+01 0.  1.
<mgrwt>
<rscale>  2 0.18756494E+03</rscale>
<asrwt>0</asrwt>
<pdfrwt beam="1">  1       21 0.39786013E+00 0.18786128E+03</pdfrwt>
<pdfrwt beam="2">  1       21 0.22058517E-02 0.18786128E+03</pdfrwt>
<totfact> 0.94836871E+03</totfact>
</mgrwt>
</event>
<event>
12    1  0.1473662E-001  0.1795087E+03  0.7546771E-02  0.1168315E+00
         21   -1    0    0  504  503  0.00000000000E+00  0.00000000000E+00  0.37244948278E+02  0.37244948278E+02  0.00000000000E+00 0. -1.
         21   -1    0    0  502  504 -0.00000000000E+00 -0.00000000000E+00 -0.12953095246E+04  0.12953095246E+04  0.00000000000E+00 0. -1.
          6    2    1    2  502    0 -0.50552886998E+01 -0.49138823752E+02 -0.10134658455E+04  0.10292406951E+04  0.17257812304E+03 0.  0.
         24    2    3    3    0    0  0.68801534989E+01 -0.10897787294E+02 -0.95221594021E+03  0.95590262487E+03  0.82876614131E+02 0.  0.
         -6    2    1    2    0  503  0.50552886998E+01  0.49138823752E+02 -0.24459873076E+03  0.30331377769E+03  0.17242542941E+03 0.  0.
        -24    2    5    5    0    0 -0.17890835370E+02  0.15707159200E+02 -0.36654563848E+02  0.91400900889E+02  0.80273101298E+02 0.  0.
          2    1    4    4  501    0  0.40405973079E+02 -0.24879240923E+02 -0.56198370459E+03  0.56398342486E+03  0.00000000000E+00 0. -1.
         -1    1    4    4    0  501 -0.33525819580E+02  0.13981453629E+02 -0.39023223562E+03  0.39191920002E+03  0.00000000000E+00 0.  1.
          5    1    3    3  502    0 -0.11935442199E+02 -0.38241036458E+02 -0.61249905315E+02  0.73338070270E+02  0.47000000000E+01 0. -1.
         11    1    6    6    0    0 -0.72834368794E+01  0.12208379127E+02 -0.62050017478E+02  0.63657659733E+02  0.00000000000E+00 0. -1.
        -12    1    6    6    0    0 -0.10607398490E+02  0.34987800724E+01  0.25395453630E+02  0.27743241155E+02  0.00000000000E+00 0.  1.
         -5    1    5    5    0  503  0.22946124070E+02  0.33431664553E+02 -0.20794416691E+03  0.21191287680E+03  0.47000000000E+01 0.  1.
<mgrwt>
<rscale>  2 0.17947203E+03</rscale>
<asrwt>0</asrwt>
<pdfrwt beam="1">  1       21 0.57299933E-02 0.17950874E+03</pdfrwt>
<pdfrwt beam="2">  1       21 0.19927834E+00 0.17950874E+03</pdfrwt>
<totfact> 0.29227514E+04</totfact>
</mgrwt>
</event>
<event>
12    1  0.1473662E-001  0.1844716E+03  0.7546771E-02  0.1163616E+00
         21   -1    0    0  504  503  0.00000000000E+00  0.00000000000E+00  0.12050445628E+03  0.12050445628E+03  0.00000000000E+00 0.  1.
         21   -1    0    0  502  504 -0.00000000000E+00 -0.00000000000E+00 -0.30606969557E+03  0.30606969557E+03  0.00000000000E+00 0.  1.
          6    2    1    2  502    0 -0.31094046941E+02 -0.55377628738E+02 -0.15261244509E+03  0.23918243354E+03  0.17287034622E+03 0.  0.
         24    2    3    3    0    0 -0.50909114188E+02 -0.89154884499E+02 -0.15067636280E+03  0.19969346912E+03  0.81448044565E+02 0.  0.
         -6    2    1    2    0  503  0.31094046941E+02  0.55377628738E+02 -0.32952794207E+02  0.18739171830E+03  0.17319424910E+03 0.  0.
        -24    2    5    5    0    0 -0.42799337700E+02  0.23480371603E+01  0.21028000330E+01  0.89804042008E+02  0.78886295431E+02 0.  0.
          4    1    4    4  501    0 -0.47848516460E+01 -0.64635419968E+02 -0.37097803593E+02  0.74678506621E+02  0.00000000000E+00 0. -1.
         -3    1    4    4    0  501 -0.46124262542E+02 -0.24519464531E+02 -0.11357855921E+03  0.12501496250E+03  0.00000000000E+00 0.  1.
          5    1    3    3  502    0  0.19815067247E+02  0.33777255761E+02 -0.19360822824E+01  0.39488964425E+02  0.47000000000E+01 0. -1.
         11    1    6    6    0    0 -0.35254092028E+00 -0.33430699674E+02  0.67082979375E+01  0.34098932931E+02  0.00000000000E+00 0. -1.
        -12    1    6    6    0    0 -0.42446796780E+02  0.35778736834E+02 -0.46054979045E+01  0.55705109077E+02  0.00000000000E+00 0.  1.
         -5    1    5    5    0  503  0.73893384642E+02  0.53029591577E+02 -0.35055594240E+02  0.97587676292E+02  0.47000000000E+01 0.  1.
<mgrwt>
<rscale>  2 0.18439553E+03</rscale>
<asrwt>0</asrwt>
<pdfrwt beam="1">  1       21 0.18539147E-01 0.18447160E+03</pdfrwt>
<pdfrwt beam="2">  1       21 0.47087645E-01 0.18447160E+03</pdfrwt>
<totfact> 0.11506751E+05</totfact>
</mgrwt>
</event>
<event>
12    1  0.1473662E-001  0.1854458E+03  0.7546771E-02  0.1162914E+00
         21   -1    0    0  504  503  0.00000000000E+00  0.00000000000E+00  0.15821120626E+03  0.15821120626E+03  0.00000000000E+00 0.  1.
         21   -1    0    0  502  504 -0.00000000000E+00 -0.00000000000E+00 -0.41645306161E+03  0.41645306161E+03  0.00000000000E+00 0.  1.
          6    2    1    2  502    0 -0.45249474071E+02  0.49355828944E+02 -0.32870054746E+03  0.37740455577E+03  0.17293535225E+03 0.  0.
         24    2    3    3    0    0  0.23253685886E+02  0.27880669021E+02 -0.10444823360E+03  0.14189435282E+03  0.88918548396E+02 0.  0.
         -6    2    1    2    0  503  0.45249474071E+02 -0.49355828944E+02  0.70458692120E+02  0.19725971210E+03  0.17164921779E+03 0.  0.
        -24    2    5    5    0    0 -0.30426823675E+02  0.35282554139E+01  0.58051888814E+02  0.10398781287E+03  0.80654840183E+02 0.  0.
          2    1    4    4  501    0  0.51728561024E+02 -0.15257718186E+01 -0.39417011149E+02  0.65052846004E+02  0.00000000000E+00 0. -1.
         -1    1    4    4    0  501 -0.28474875138E+02  0.29406440840E+02 -0.65031222447E+02  0.76841506817E+02  0.00000000000E+00 0.  1.
          5    1    3    3  502    0 -0.68503159957E+02  0.21475159923E+02 -0.22425231387E+03  0.23551020295E+03  0.47000000000E+01 0. -1.
         13    1    6    6    0    0 -0.46532335839E+02 -0.22413595834E+02  0.20451809002E+02  0.55550914018E+02  0.00000000000E+00 0. -1.
        -14    1    6    6    0    0  0.16105512164E+02  0.25941851248E+02  0.37600079812E+02  0.48436898849E+02  0.00000000000E+00 0.  1.
         -5    1    5    5    0  503  0.75676297745E+02 -0.52884084358E+02  0.12406803306E+02  0.93271899236E+02  0.47000000000E+01 0.  1.
<mgrwt>
<rscale>  2 0.18514539E+03</rscale>
<asrwt>0</asrwt>
<pdfrwt beam="1">  1       21 0.24340186E-01 0.18544581E+03</pdfrwt>
<pdfrwt beam="2">  1       21 0.64069701E-01 0.18544581E+03</pdfrwt>
<totfact> 0.35978727E+04</totfact>
</mgrwt>
</event>
<event>
12    1  0.1473662E-001  0.1821125E+03  0.7546771E-02  0.1166485E+00
         21   -1    0    0  504  503  0.00000000000E+00  0.00000000000E+00  0.90719738253E+03  0.90719738253E+03  0.00000000000E+00 0. -1.
         21   -1    0    0  502  504 -0.00000000000E+00 -0.00000000000E+00 -0.20467927513E+03  0.20467927513E+03  0.00000000000E+00 0. -1.
          6    2    1    2  502    0  0.18434376274E+02 -0.46329465316E+02 -0.15397815676E+03  0.23623356414E+03  0.17207782682E+03 0.  0.
         24    2    3    3    0    0  0.66661486047E+01 -0.36309366505E+02 -0.77169568233E+01  0.89082885689E+02  0.80705647057E+02 0.  0.
         -6    2    1    2    0  503 -0.18434376274E+02  0.46329465316E+02  0.85649626416E+03  0.87564309351E+03  0.17515345019E+03 0.  0.
        -24    2    5    5    0    0 -0.30197128364E+01  0.20669200560E+02  0.83313941769E+03  0.83738484848E+03  0.81582845211E+02 0.  0.
          2    1    4    4  501    0  0.29531002246E+02 -0.52455758634E+02 -0.59566160991E+00  0.60200012627E+02  0.00000000000E+00 0. -1.
         -1    1    4    4    0  501 -0.22864853641E+02  0.16146392129E+02 -0.71212952134E+01  0.28882873063E+02  0.00000000000E+00 0.  1.
          5    1    3    3  502    0  0.11768227669E+02 -0.10020098811E+02 -0.14626119993E+03  0.14715067845E+03  0.47000000000E+01 0. -1.
         11    1    6    6    0    0  0.38103842545E+02  0.48875573991E+01  0.47403128604E+03  0.47558537738E+03  0.00000000000E+00 0. -1.
        -12    1    6    6    0    0 -0.41123555382E+02  0.15781643161E+02  0.35910813165E+03  0.36179947109E+03  0.00000000000E+00 0.  1.
         -5    1    5    5    0  503 -0.15414663437E+02  0.25660264756E+02  0.23356846470E+02  0.38258245036E+02  0.47000000000E+01 0.  1.
<mgrwt>
<rscale>  2 0.18136897E+03</rscale>
<asrwt>0</asrwt>
<pdfrwt beam="1">  1       21 0.13956883E+00 0.18211254E+03</pdfrwt>
<pdfrwt beam="2">  1       21 0.31489120E-01 0.18211254E+03</pdfrwt>
<totfact> 0.35292856E+03</totfact>
</mgrwt>
</event>
<event>
12    1  0.1473662E-001  0.2007056E+03  0.7546771E-02  0.1152770E+00
         21   -1    0    0  504  503  0.00000000000E+00  0.00000000000E+00  0.31922922354E+03  0.31922922354E+03  0.00000000000E+00 0. -1.
         21   -1    0    0  502  504 -0.00000000000E+00 -0.00000000000E+00 -0.23896276380E+03  0.23896276380E+03  0.00000000000E+00 0. -1.
          6    2    1    2  502    0 -0.11482884029E+02  0.68000106457E+02 -0.15912130866E+03  0.25612955221E+03  0.18848577013E+03 0.  0.
         24    2    3    3    0    0 -0.34727573503E+02 -0.19159225064E+02 -0.21466141209E+02  0.91484176371E+02  0.79595722507E+02 0.  0.
         -6    2    1    2    0  503  0.11482884029E+02 -0.68000106457E+02  0.23938776839E+03  0.30206243513E+03  0.17081961232E+03 0.  0.
        -24    2    5    5    0    0  0.54718160914E+02 -0.15234330665E+02  0.80629656232E+02  0.12920485086E+03  0.83466101240E+02 0.  0.
          2    1    4    4  501    0 -0.31122082395E+01 -0.25808119325E+02 -0.44687003590E+02  0.51697902792E+02  0.00000000000E+00 0. -1.
         -1    1    4    4    0  501 -0.31615365263E+02  0.66488942607E+01  0.23220862381E+02  0.39786273579E+02  0.00000000000E+00 0.  1.
          5    1    3    3  502    0  0.23244689474E+02  0.87159331521E+02 -0.13765516745E+03  0.16464537584E+03  0.47000000000E+01 0. -1.
         13    1    6    6    0    0  0.59277483338E+01 -0.33970599849E+02  0.16819474110E+01  0.34524901180E+02  0.00000000000E+00 0. -1.
        -14    1    6    6    0    0  0.48790412580E+02  0.18736269184E+02  0.78947708821E+02  0.94679949677E+02  0.00000000000E+00 0.  1.
         -5    1    5    5    0  503 -0.43235276885E+02 -0.52765775792E+02  0.15875811216E+03  0.17285758427E+03  0.47000000000E+01 0.  1.
<mgrwt>
<rscale>  2 0.19644954E+03</rscale>
<asrwt>0</asrwt>
<pdfrwt beam="1">  1       21 0.49112188E-01 0.20070565E+03</pdfrwt>
<pdfrwt beam="2">  1       21 0.36763502E-01 0.20070565E+03</pdfrwt>
<totfact> 0.28096651E+04</totfact>
</mgrwt>
</event>
<event>
12    1  0.1473662E-001  0.2082960E+03  0.7546771E-02  0.1143099E+00
         21   -1    0    0  504  503  0.00000000000E+00  0.00000000000E+00  0.10047762250E+03  0.10047762250E+03  0.00000000000E+00 0.  1.
         21   -1    0    0  502  504 -0.00000000000E+00 -0.00000000000E+00 -0.43014863871E+03  0.43014863871E+03  0.00000000000E+00 0.  1.
          6    2    1    2  502    0 -0.92279137569E+02 -0.67229012937E+02 -0.17028698452E+03  0.26904439441E+03  0.17421839644E+03 0.  0.
         24    2    3    3    0    0 -0.32679332164E+01 -0.79931637094E+02 -0.57524626766E+02  0.12474681825E+03  0.76504509560E+02 0.  0.
         -6    2    1    2    0  503  0.92279137569E+02  0.67229012937E+02 -0.15938403169E+03  0.26158186680E+03  0.17316646347E+03 0.  0.
        -24    2    5    5    0    0  0.45203683789E+02  0.10306079952E+03 -0.14487085717E+03  0.20048573343E+03  0.80883018162E+02 0.  0.
          4    1    4    4  501    0  0.17728106039E+02 -0.84042423376E+02 -0.32529022275E+02  0.91845260960E+02  0.00000000000E+00 0. -1.
         -3    1    4    4    0  501 -0.20996039255E+02  0.41107862824E+01 -0.24995604491E+02  0.32901557290E+02  0.00000000000E+00 0.  1.
          5    1    3    3  502    0 -0.89011204352E+02  0.12702624157E+02 -0.11276235775E+03  0.14429757616E+03  0.47000000000E+01 0. -1.
         13    1    6    6    0    0 -0.17211181906E+02  0.27234908053E+02 -0.69778652362E+02  0.76857174842E+02  0.00000000000E+00 0. -1.
        -14    1    6    6    0    0  0.62414865694E+02  0.75825891464E+02 -0.75092204810E+02  0.12362855859E+03  0.00000000000E+00 0.  1.
         -5    1    5    5    0  503  0.47075453780E+02 -0.35831786580E+02 -0.14513174523E+02  0.61096133371E+02  0.47000000000E+01 0.  1.
<mgrwt>
<rscale>  2 0.20807591E+03</rscale>
<asrwt>0</asrwt>
<pdfrwt beam="1">  1       21 0.15458096E-01 0.20829601E+03</pdfrwt>
<pdfrwt beam="2">  1       21 0.66176713E-01 0.20829601E+03</pdfrwt>
<totfact> 0.77298293E+04</totfact>
</mgrwt>
</event>
<event>
12    1  0.1473662E-001  0.1748908E+03  0.7546771E-02  0.1173090E+00
         21   -1    0    0  504  503  0.00000000000E+00  0.00000000000E+00  0.24651844737E+02  0.24651844737E+02  0.00000000000E+00 0.  1.
         21   -1    0    0  502  504 -0.00000000000E+00 -0.00000000000E+00 -0.13876379210E+04  0.13876379210E+04  0.00000000000E+00 0.  1.
          6    2    1    2  502    0  0.10365297685E+02 -0.19313249442E+02 -0.91836482274E+03  0.93486937663E+03  0.17351185179E+03 0.  0.
         24    2    3    3    0    0 -0.12952134636E+02 -0.42061400671E+02 -0.26498952014E+03  0.28066561855E+03  0.81343865377E+02 0.  0.
         -6    2    1    2    0  503 -0.10365297685E+02  0.19313249442E+02 -0.44462125356E+03  0.47742038914E+03  0.17251587711E+03 0.  0.
        -24    2    5    5    0    0 -0.13407284631E+02  0.80058127332E+01 -0.88596453927E+02  0.12117207720E+03  0.81175688023E+02 0.  0.
          2    1    4    4  501    0 -0.42202921084E+02 -0.44866513586E+02 -0.15425215999E+03  0.16609581407E+03  0.00000000000E+00 0. -1.
         -1    1    4    4    0  501  0.29250786448E+02  0.28051129147E+01 -0.11073736015E+03  0.11456980448E+03  0.00000000000E+00 0.  1.
          5    1    3    3  502    0  0.23317432321E+02  0.22748151229E+02 -0.65337530260E+03  0.65420375808E+03  0.47000000000E+01 0. -1.
         13    1    6    6    0    0  0.32405966257E+02  0.51040447175E+01 -0.19335535518E+02  0.38079664590E+02  0.00000000000E+00 0. -1.
        -14    1    6    6    0    0 -0.45813250888E+02  0.29017680157E+01 -0.69260918409E+02  0.83092412610E+02  0.00000000000E+00 0.  1.
         -5    1    5    5    0  503  0.30419869465E+01  0.11307436709E+02 -0.35602479963E+03  0.35624831194E+03  0.47000000000E+01 0.  1.
<mgrwt>
<rscale>  2 0.17464329E+03</rscale>
<asrwt>0</asrwt>
<pdfrwt beam="1">  1       21 0.37925906E-02 0.17489083E+03</pdfrwt>
<pdfrwt beam="2">  1       21 0.21348281E+00 0.17489083E+03</pdfrwt>
<totfact> 0.47877009E+04</totfact>
</mgrwt>
</event>
<event>
12    1  0.1473662E-001  0.1902910E+03  0.7546771E-02  0.1158252E+00
         21   -1    0    0  504  503  0.00000000000E+00  0.00000000000E+00  0.55385385828E+02  0.55385385828E+02  0.00000000000E+00 0.  1.
         21   -1    0    0  502  504 -0.00000000000E+00 -0.00000000000E+00 -0.76950525647E+03  0.76950525647E+03  0.00000000000E+00 0.  1.
          6    2    1    2  502    0  0.82156067384E+01 -0.77253545976E+02 -0.19638113959E+03  0.27328926828E+03  0.17345277632E+03 0.  0.
         24    2    3    3    0    0  0.10358046546E+02 -0.12131021650E+03 -0.15650238753E+03  0.21364041975E+03  0.79534733881E+02 0.  0.
         -6    2    1    2    0  503 -0.82156067384E+01  0.77253545976E+02 -0.51773873106E+03  0.55160137402E+03  0.17370974532E+03 0.  0.
        -24    2    5    5    0    0 -0.40296602262E+02  0.93744679743E+02 -0.25679667574E+03  0.28813601766E+03  0.81645274617E+02 0.  0.
          4    1    4    4  501    0 -0.21679743095E+02 -0.81220835176E+02 -0.56645028821E+02  0.10136811440E+03  0.00000000000E+00 0. -1.
         -3    1    4    4    0  501  0.32037789641E+02 -0.40089381322E+02 -0.99857358708E+02  0.11227230535E+03  0.00000000000E+00 0.  1.
          5    1    3    3  502    0 -0.21424398080E+01  0.44056670522E+02 -0.39878752056E+02  0.59648848533E+02  0.47000000000E+01 0. -1.
         13    1    6    6    0    0 -0.23368967796E+02  0.20959496293E+02 -0.17314351841E+03  0.17596615330E+03  0.00000000000E+00 0. -1.
        -14    1    6    6    0    0 -0.16927634466E+02  0.72785183450E+02 -0.83653157330E+02  0.11216986436E+03  0.00000000000E+00 0.  1.
         -5    1    5    5    0  503  0.32080995524E+02 -0.16491133767E+02 -0.26094205532E+03  0.26346535636E+03  0.47000000000E+01 0.  1.
<mgrwt>
<rscale>  2 0.19023238E+03</rscale>
<asrwt>0</asrwt>
<pdfrwt beam="1">  1       21 0.85208293E-02 0.19029105E+03</pdfrwt>
<pdfrwt beam="2">  1       21 0.11838541E+00 0.19029105E+03</pdfrwt>
<totfact> 0.58778208E+04</totfact>
</mgrwt>
</event>
<event>
12    1  0.1473662E-001  0.2641352E+03  0.7546771E-02  0.1104786E+00
         21   -1    0    0  504  503  0.00000000000E+00  0.00000000000E+00  0.22010623299E+03  0.22010623299E+03  0.00000000000E+00 0. -1.
         21   -1    0    0  502  504 -0.00000000000E+00 -0.00000000000E+00 -0.35949519210E+03  0.35949519210E+03  0.00000000000E+00 0.  1.
          6    2    1    2  502    0 -0.16496237800E+03 -0.11032384303E+03 -0.17041748122E+03  0.31433984659E+03  0.17430859058E+03 0.  0.
         24    2    3    3    0    0 -0.10237833477E+03 -0.25044690323E+02 -0.25552262739E+02  0.13490373573E+03  0.80234280946E+02 0.  0.
         -6    2    1    2    0  503  0.16496237800E+03  0.11032384303E+03  0.31028522111E+02  0.26526157849E+03  0.17325414668E+03 0.  0.
        -24    2    5    5    0    0  0.57757761411E+02  0.56172031210E+00  0.49195805769E+02  0.11068896255E+03  0.80594941482E+02 0.  0.
          2    1    4    4  501    0 -0.12085545415E+02 -0.11276405841E+02  0.25408878937E+02  0.30312190048E+02  0.00000000000E+00 0. -1.
         -1    1    4    4    0  501 -0.90292789356E+02 -0.13768284482E+02 -0.50961141675E+02  0.10459154568E+03  0.00000000000E+00 0.  1.
          5    1    3    3  502    0 -0.62584043233E+02 -0.85279152711E+02 -0.14486521849E+03  0.17943611086E+03  0.47000000000E+01 0. -1.
         11    1    6    6    0    0  0.39499047330E+02  0.37755841626E+02  0.41337702804E+02  0.68516304556E+02  0.00000000000E+00 0. -1.
        -12    1    6    6    0    0  0.18258714081E+02 -0.37194121314E+02  0.78581029648E+01  0.42172657995E+02  0.00000000000E+00 0.  1.
         -5    1    5    5    0  503  0.10720461659E+03  0.10976212272E+03 -0.18167283658E+02  0.15457261594E+03  0.47000000000E+01 0.  1.
<mgrwt>
<rscale>  2 0.26396140E+03</rscale>
<asrwt>0</asrwt>
<pdfrwt beam="1">  1       21 0.33862498E-01 0.26413523E+03</pdfrwt>
<pdfrwt beam="2">  1       21 0.55306952E-01 0.26413523E+03</pdfrwt>
<totfact> 0.24979553E+04</totfact>
</mgrwt>
</event>
<event>
12    1  0.1473662E-001  0.1951853E+03  0.7546771E-02  0.1154121E+00
         21   -1    0    0  504  503  0.00000000000E+00  0.00000000000E+00  0.60937316407E+02  0.60937316407E+02  0.00000000000E+00 0.  1.
         21   -1    0    0  502  504 -0.00000000000E+00 -0.00000000000E+00 -0.65776221183E+03  0.65776221183E+03  0.00000000000E+00 0.  1.
          6    2    1    2  502    0 -0.90774730218E+02  0.13323325089E+02 -0.38199419463E+03  0.42844183624E+03  0.17095402796E+03 0.  0.
         24    2    3    3    0    0  0.14923849585E+02 -0.12774201259E+02 -0.13720293258E+03  0.16049011926E+03  0.80910643119E+02 0.  0.
         -6    2    1    2    0  503  0.90774730218E+02 -0.13323325089E+02 -0.21483070080E+03  0.29025769200E+03  0.17227807499E+03 0.  0.
        -24    2    5    5    0    0 -0.45559186047E+01 -0.28432823070E+01 -0.12924801952E+03  0.16163324161E+03  0.96909306039E+02 0.  0.
          2    1    4    4  501    0  0.36825520125E+02 -0.19613552195E+01 -0.22465765085E+02  0.43181899537E+02  0.00000000000E+00 0. -1.
         -1    1    4    4    0  501 -0.21901670540E+02 -0.10812846040E+02 -0.11473716749E+03  0.11730821973E+03  0.00000000000E+00 0.  1.
          5    1    3    3  502    0 -0.10569857980E+03  0.26097526348E+02 -0.24479126205E+03  0.26795171698E+03  0.47000000000E+01 0. -1.
         11    1    6    6    0    0 -0.33452181103E+02 -0.34761542649E+02 -0.40487582503E+02  0.62981406819E+02  0.00000000000E+00 0. -1.
        -12    1    6    6    0    0  0.28896262499E+02  0.31918260342E+02 -0.88760437012E+02  0.98651834794E+02  0.00000000000E+00 0.  1.
         -5    1    5    5    0  503  0.95330648822E+02 -0.10480042782E+02 -0.85582681283E+02  0.12862445039E+03  0.47000000000E+01 0.  1.
<mgrwt>
<rscale>  2 0.19489272E+03</rscale>
<asrwt>0</asrwt>
<pdfrwt beam="1">  1       21 0.93749715E-02 0.19518529E+03</pdfrwt>
<pdfrwt beam="2">  1       21 0.10119419E+00 0.19518529E+03</pdfrwt>
<totfact> 0.72480894E+04</totfact>
</mgrwt>
</event>
<event>
12    1  0.1473662E-001  0.1787622E+03  0.7546771E-02  0.1169563E+00
         21   -1    0    0  504  503  0.00000000000E+00  0.00000000000E+00  0.48861643640E+02  0.48861643640E+02  0.00000000000E+00 0. -1.
         21   -1    0    0  502  504 -0.00000000000E+00 -0.00000000000E+00 -0.67476761864E+03  0.67476761864E+03  0.00000000000E+00 0. -1.
          6    2    1    2  502    0  0.44618074043E+02 -0.91060970035E+01 -0.38607771276E+03  0.42450804279E+03  0.17052092120E+03 0.  0.
         24    2    3    3    0    0 -0.21473574729E+02  0.31684112160E+02 -0.14404468061E+03  0.17027581459E+03  0.82340668254E+02 0.  0.
         -6    2    1    2    0  503 -0.44618074043E+02  0.91060970035E+01 -0.23982826224E+03  0.29912121949E+03  0.17286473049E+03 0.  0.
        -24    2    5    5    0    0  0.98479721045E+01  0.62598323551E+02 -0.12754667414E+03  0.16326389172E+03  0.79821122444E+02 0.  0.
          4    1    4    4  501    0 -0.48580532158E+01 -0.53145776942E+01  0.92410893480E+01  0.11715082136E+02  0.00000000000E+00 0. -1.
         -3    1    4    4    0  501 -0.16615521514E+02  0.36998689854E+02 -0.15328576996E+03  0.15856073246E+03  0.00000000000E+00 0.  1.
          5    1    3    3  502    0  0.66091648773E+02 -0.40790209163E+02 -0.24203303215E+03  0.25423222820E+03  0.47000000000E+01 0. -1.
         13    1    6    6    0    0 -0.22039571853E+02  0.12212809876E+02 -0.32516079245E+01  0.25406070271E+02  0.00000000000E+00 0. -1.
        -14    1    6    6    0    0  0.31887543958E+02  0.50385513675E+02 -0.12429506622E+03  0.13785782145E+03  0.00000000000E+00 0.  1.
         -5    1    5    5    0  503 -0.54466046148E+02 -0.53492226547E+02 -0.11228158810E+03  0.13585732777E+03  0.47000000000E+01 0.  1.
<mgrwt>
<rscale>  2 0.17819308E+03</rscale>
<asrwt>0</asrwt>
<pdfrwt beam="1">  1       21 0.75171754E-02 0.17876216E+03</pdfrwt>
<pdfrwt beam="2">  1       21 0.10381041E+00 0.17876216E+03</pdfrwt>
<totfact> 0.10097697E+05</totfact>
</mgrwt>
</event>
<event>
12    1  0.1473662E-001  0.1920052E+03  0.7546771E-02  0.1156952E+00
         21   -1    0    0  504  503  0.00000000000E+00  0.00000000000E+00  0.17547269937E+03  0.17547269937E+03  0.00000000000E+00 0. -1.
         21   -1    0    0  502  504 -0.00000000000E+00 -0.00000000000E+00 -0.23220219170E+03  0.23220219170E+03  0.00000000000E+00 0. -1.
          6    2    1    2  502    0 -0.32847895491E+02 -0.74084651112E+02 -0.93136994673E+02  0.21224843520E+03  0.17264813552E+03 0.  0.
         24    2    3    3    0    0 -0.67787430685E+01 -0.22270424928E+02  0.19576837665E+02  0.85398867824E+02  0.79798439010E+02 0.  0.
         -6    2    1    2    0  503  0.32847895491E+02  0.74084651112E+02  0.36407502344E+02  0.19542645588E+03  0.17406456751E+03 0.  0.
        -24    2    5    5    0    0 -0.13628127555E+02  0.98300510951E+02  0.52898097794E+02  0.14028610473E+03  0.83864570095E+02 0.  0.
          4    1    4    4  501    0 -0.26412741625E+02 -0.26066787716E+02  0.41535847104E+02  0.55698625985E+02  0.00000000000E+00 0. -1.
         -3    1    4    4    0  501  0.19633998557E+02  0.37963627871E+01 -0.21959009439E+02  0.29700241839E+02  0.00000000000E+00 0.  1.
          5    1    3    3  502    0 -0.26069152423E+02 -0.51814226183E+02 -0.11271383234E+03  0.12684956738E+03  0.47000000000E+01 0. -1.
         11    1    6    6    0    0 -0.82813714735E+01  0.16503822437E+02  0.55277826690E+02  0.58280317364E+02  0.00000000000E+00 0. -1.
        -12    1    6    6    0    0 -0.53467560816E+01  0.81796688514E+02 -0.23797288956E+01  0.82005787370E+02  0.00000000000E+00 0.  1.
         -5    1    5    5    0  503  0.46476023046E+02 -0.24215859839E+02 -0.16490595450E+02  0.55140351144E+02  0.47000000000E+01 0.  1.
<mgrwt>
<rscale>  2 0.19168360E+03</rscale>
<asrwt>0</asrwt>
<pdfrwt beam="1">  1       21 0.26995800E-01 0.19200519E+03</pdfrwt>
<pdfrwt beam="2">  1       21 0.35723414E-01 0.19200519E+03</pdfrwt>
<totfact> 0.98808485E+04</totfact>
</mgrwt>
</event>
<event>
12    1  0.1473662E-001  0.2314297E+03  0.7546771E-02  0.1125872E+00
         21   -1    0    0  504  503  0.00000000000E+00  0.00000000000E+00  0.52376833622E+03  0.52376833622E+03  0.00000000000E+00 0. -1.
         21   -1    0    0  502  504 -0.00000000000E+00 -0.00000000000E+00 -0.26024710229E+03  0.26024710229E+03  0.00000000000E+00 0. -1.
          6    2    1    2  502    0 -0.11539566354E+03  0.10026529027E+03 -0.17409166755E+03  0.28959902720E+03  0.17375384958E+03 0.  0.
         24    2    3    3    0    0 -0.36528779010E+02 -0.14878231650E+02 -0.86512943196E+02  0.12476535625E+03  0.80784845780E+02 0.  0.
         -6    2    1    2    0  503  0.11539566354E+03 -0.10026529027E+03  0.43761290148E+03  0.49441641132E+03  0.17196874320E+03 0.  0.
        -24    2    5    5    0    0  0.87638479047E+02 -0.10944532404E+03  0.21217438852E+03  0.26704150628E+03  0.81451905876E+02 0.  0.
          4    1    4    4  501    0 -0.91563018630E+01 -0.29338258613E+02 -0.88559238641E+02  0.93740653032E+02  0.00000000000E+00 0. -1.
         -3    1    4    4    0  501 -0.27372477147E+02  0.14460026963E+02  0.20462954451E+01  0.31024703222E+02  0.00000000000E+00 0.  1.
          5    1    3    3  502    0 -0.78866884533E+02  0.11514352192E+03 -0.87578724355E+02  0.16483367094E+03  0.47000000000E+01 0. -1.
         11    1    6    6    0    0  0.99949618012E+01 -0.17273770359E+02  0.10141389800E+03  0.10335889469E+03  0.00000000000E+00 0. -1.
        -12    1    6    6    0    0  0.77643517246E+02 -0.92171553683E+02  0.11076049052E+03  0.16368261159E+03  0.00000000000E+00 0.  1.
         -5    1    5    5    0  503  0.27757184497E+02  0.91800337689E+01  0.22543851297E+03  0.22737490503E+03  0.47000000000E+01 0.  1.
<mgrwt>
<rscale>  2 0.23109463E+03</rscale>
<asrwt>0</asrwt>
<pdfrwt beam="1">  1       21 0.80579744E-01 0.23142966E+03</pdfrwt>
<pdfrwt beam="2">  1       21 0.40038016E-01 0.23142966E+03</pdfrwt>
<totfact> 0.79221430E+03</totfact>
</mgrwt>
</event>
<event>
12    1  0.1473662E-001  0.1789821E+03  0.7546771E-02  0.1168934E+00
         21   -1    0    0  504  503  0.00000000000E+00  0.00000000000E+00  0.11754653515E+03  0.11754653515E+03  0.00000000000E+00 0.  1.
         21   -1    0    0  502  504 -0.00000000000E+00 -0.00000000000E+00 -0.27657635170E+03  0.27657635170E+03  0.00000000000E+00 0.  1.
          6    2    1    2  502    0 -0.84748236583E+01  0.44207507348E+02 -0.10597470422E+03  0.20800297895E+03  0.17322954418E+03 0.  0.
         24    2    3    3    0    0 -0.41609538112E+02  0.19034829966E+02 -0.13050547306E+03  0.15947029298E+03  0.79406658597E+02 0.  0.
         -6    2    1    2    0  503  0.84748236583E+01 -0.44207507348E+02 -0.53055112328E+02  0.18611990789E+03  0.17262574787E+03 0.  0.
        -24    2    5    5    0    0  0.64434981160E+02 -0.42548625106E+02 -0.35624501223E+01  0.11124731791E+03  0.80006389719E+02 0.  0.
          2    1    4    4  501    0 -0.46600996483E+01 -0.22337599623E+02 -0.66613289123E+01  0.23770952621E+02  0.00000000000E+00 0. -1.
         -1    1    4    4    0  501 -0.36949438463E+02  0.41372429590E+02 -0.12384414415E+03  0.13569934036E+03  0.00000000000E+00 0.  1.
          5    1    3    3  502    0  0.33134714453E+02  0.25172677381E+02  0.24530768837E+02  0.48532685977E+02  0.47000000000E+01 0. -1.
         13    1    6    6    0    0  0.22781611295E+02 -0.22852169541E+02 -0.40791238419E+02  0.52011043036E+02  0.00000000000E+00 0. -1.
        -14    1    6    6    0    0  0.41653369865E+02 -0.19696455565E+02  0.37228788297E+02  0.59236274874E+02  0.00000000000E+00 0.  1.
         -5    1    5    5    0  503 -0.55960157502E+02 -0.16588822416E+01 -0.49492662206E+02  0.74872589979E+02  0.47000000000E+01 0.  1.
<mgrwt>
<rscale>  2 0.17883587E+03</rscale>
<asrwt>0</asrwt>
<pdfrwt beam="1">  1       21 0.18084082E-01 0.17898213E+03</pdfrwt>
<pdfrwt beam="2">  1       21 0.42550208E-01 0.17898213E+03</pdfrwt>
<totfact> 0.14855968E+05</totfact>
</mgrwt>
</event>
<event>
12    1  0.1473662E-001  0.1936457E+03  0.7546771E-02  0.1155774E+00
         21   -1    0    0  504  503  0.00000000000E+00  0.00000000000E+00  0.59959233523E+02  0.59959233523E+02  0.00000000000E+00 0.  1.
         21   -1    0    0  502  504 -0.00000000000E+00 -0.00000000000E+00 -0.61803044452E+03  0.61803044452E+03  0.00000000000E+00 0.  1.
          6    2    1    2  502    0  0.71931651918E+02 -0.35411398533E+02 -0.29280798505E+03  0.35104867421E+03  0.17626833482E+03 0.  0.
         24    2    3    3    0    0  0.64586426937E+02 -0.64822914525E+02 -0.29564722034E+03  0.32024054444E+03  0.82300125242E+02 0.  0.
         -6    2    1    2    0  503 -0.71931651918E+02  0.35411398533E+02 -0.26526322595E+03  0.32694100384E+03  0.17348691955E+03 0.  0.
        -24    2    5    5    0    0 -0.15168742355E+02  0.91390886891E+01 -0.38567778858E+02  0.91727955946E+02  0.81319927750E+02 0.  0.
          2    1    4    4  501    0  0.36512551828E+02  0.82748379984E+00 -0.37279184045E+02  0.52188013312E+02  0.00000000000E+00 0. -1.
         -1    1    4    4    0  501  0.28073875109E+02 -0.65650398325E+02 -0.25836803629E+03  0.26805253112E+03  0.00000000000E+00 0.  1.
          5    1    3    3  502    0  0.73452249813E+01  0.29411515992E+02  0.28392352882E+01  0.30808129771E+02  0.47000000000E+01 0. -1.
         11    1    6    6    0    0  0.11198681151E+02  0.41022001964E+01 -0.57599820015E+02  0.58821575734E+02  0.00000000000E+00 0. -1.
        -12    1    6    6    0    0 -0.26367423506E+02  0.50368884927E+01  0.19032041158E+02  0.32906380212E+02  0.00000000000E+00 0.  1.
         -5    1    5    5    0  503 -0.56762909563E+02  0.26272309844E+02 -0.22669544709E+03  0.23521304789E+03  0.47000000000E+01 0.  1.
<mgrwt>
<rscale>  2 0.19301049E+03</rscale>
<asrwt>0</asrwt>
<pdfrwt beam="1">  1       21 0.92244968E-02 0.19364570E+03</pdfrwt>
<pdfrwt beam="2">  1       21 0.95081613E-01 0.19364570E+03</pdfrwt>
<totfact> 0.86449886E+04</totfact>
</mgrwt>
</event>
<event>
12    1  0.1473662E-001  0.2522178E+03  0.7546771E-02  0.1111963E+00
         21   -1    0    0  504  503  0.00000000000E+00  0.00000000000E+00  0.22163390486E+04  0.22163390486E+04  0.00000000000E+00 0. -1.
         21   -1    0    0  502  504 -0.00000000000E+00 -0.00000000000E+00 -0.38829666245E+02  0.38829666245E+02  0.00000000000E+00 0.  1.
          6    2    1    2  502    0  0.16216521284E+03  0.84128005843E+02  0.51234664508E+03  0.57106297257E+03  0.17389294493E+03 0.  0.
         24    2    3    3    0    0  0.15706761903E+03  0.11815384586E+03  0.39203856406E+03  0.44584369446E+03  0.80323072301E+02 0.  0.
         -6    2    1    2    0  503 -0.16216521284E+03 -0.84128005843E+02  0.16651627372E+04  0.16841057422E+04  0.17340741601E+03 0.  0.
        -24    2    5    5    0    0 -0.54962992914E+02 -0.65100221859E+01  0.38489269123E+03  0.39700421242E+03  0.80041551336E+02 0.  0.
          2    1    4    4  501    0  0.68888464221E+02  0.97457840231E+02  0.18913856187E+03  0.22364491211E+03  0.00000000000E+00 0. -1.
         -1    1    4    4    0  501  0.88179154811E+02  0.20696005624E+02  0.20290000219E+03  0.22219878235E+03  0.00000000000E+00 0.  1.
          5    1    3    3  502    0  0.50975938078E+01 -0.34025840013E+02  0.12030808102E+03  0.12521927810E+03  0.47000000000E+01 0. -1.
         13    1    6    6    0    0 -0.21810254197E+02 -0.29743913924E+01  0.34185514781E+03  0.34256309825E+03  0.00000000000E+00 0. -1.
        -14    1    6    6    0    0 -0.33152738718E+02 -0.35356307934E+01  0.43037543413E+02  0.54441114175E+02  0.00000000000E+00 0.  1.
         -5    1    5    5    0  503 -0.10720221992E+03 -0.77617983657E+02  0.12802700460E+04  0.12871015298E+04  0.47000000000E+01 0.  1.
<mgrwt>
<rscale>  2 0.25213416E+03</rscale>
<asrwt>0</asrwt>
<pdfrwt beam="1">  1       21 0.34097514E+00 0.25221783E+03</pdfrwt>
<pdfrwt beam="2">  1       21 0.59737966E-02 0.25221783E+03</pdfrwt>
<totfact> 0.36709942E+03</totfact>
</mgrwt>
</event>
<event>
12    1  0.1473662E-001  0.1797299E+03  0.7546771E-02  0.1168081E+00
         21   -1    0    0  504  503  0.00000000000E+00  0.00000000000E+00  0.79679756735E+03  0.79679756735E+03  0.00000000000E+00 0. -1.
         21   -1    0    0  502  504 -0.00000000000E+00 -0.00000000000E+00 -0.83637107900E+02  0.83637107900E+02  0.00000000000E+00 0. -1.
          6    2    1    2  502    0  0.79901903349E+01  0.52096850845E+02  0.40556518549E+02  0.18424889082E+03  0.17182810470E+03 0.  0.
         24    2    3    3    0    0  0.14900912052E+02  0.61449516250E+01  0.86107920453E+02  0.11900814181E+03  0.80551637115E+02 0.  0.
         -6    2    1    2    0  503 -0.79901903349E+01 -0.52096850845E+02  0.67260394090E+03  0.69618578443E+03  0.17175756202E+03 0.  0.
        -24    2    5    5    0    0 -0.38859298102E+02 -0.40942675223E+02  0.26387701401E+03  0.28611614618E+03  0.95105325175E+02 0.  0.
          4    1    4    4  501    0  0.91505072373E+01  0.36942301281E+02  0.14288140391E+02  0.40652384462E+02  0.00000000000E+00 0. -1.
         -3    1    4    4    0  501  0.57504048151E+01 -0.30797349656E+02  0.71819780062E+02  0.78355757348E+02  0.00000000000E+00 0.  1.
          5    1    3    3  502    0 -0.69107217176E+01  0.45951899220E+02 -0.45551401904E+02  0.65240749015E+02  0.47000000000E+01 0. -1.
         11    1    6    6    0    0 -0.42231880379E+02 -0.34892857759E+02  0.27082231619E+03  0.27630738352E+03  0.00000000000E+00 0. -1.
        -12    1    6    6    0    0  0.33725822772E+01 -0.60498174639E+01 -0.69453021753E+01  0.98087626574E+01  0.00000000000E+00 0.  1.
         -5    1    5    5    0  503  0.30869107767E+02 -0.11154175622E+02  0.40872692689E+03  0.41006963825E+03  0.47000000000E+01 0.  1.
<mgrwt>
<rscale>  2 0.17971300E+03</rscale>
<asrwt>0</asrwt>
<pdfrwt beam="1">  1       21 0.12258424E+00 0.17972986E+03</pdfrwt>
<pdfrwt beam="2">  1       21 0.12867248E-01 0.17972986E+03</pdfrwt>
<totfact> 0.26137392E+04</totfact>
</mgrwt>
</event>
<event>
12    1  0.1473662E-001  0.1786388E+03  0.7546771E-02  0.1171086E+00
         21   -1    0    0  504  503  0.00000000000E+00  0.00000000000E+00  0.37636011787E+03  0.37636011787E+03  0.00000000000E+00 0. -1.
         21   -1    0    0  502  504 -0.00000000000E+00 -0.00000000000E+00 -0.28964413807E+03  0.28964413807E+03  0.00000000000E+00 0. -1.
          6    2    1    2  502    0 -0.12698436957E+02  0.33622731372E-01 -0.23890050091E+03  0.29830401430E+03  0.17818693605E+03 0.  0.
         24    2    3    3    0    0  0.50437183744E+02 -0.10188367710E+02 -0.68905464179E+02  0.11661472401E+03  0.78761148560E+02 0.  0.
         -6    2    1    2    0  503  0.12698436957E+02 -0.33622731372E-01  0.32561648071E+03  0.36770024164E+03  0.17034119807E+03 0.  0.
        -24    2    5    5    0    0 -0.55819001698E+02  0.17024347170E+02  0.18495740679E+03  0.21024333067E+03  0.81162962093E+02 0.  0.
          4    1    4    4  501    0  0.52152773756E+02 -0.41007440083E+01 -0.84726877004E+02  0.99575958940E+02  0.00000000000E+00 0. -1.
         -3    1    4    4    0  501 -0.17155900119E+01 -0.60876237020E+01  0.15821412826E+02  0.17038765074E+02  0.00000000000E+00 0.  1.
          5    1    3    3  502    0 -0.63135620701E+02  0.10221990442E+02 -0.16999503673E+03  0.18168929028E+03  0.47000000000E+01 0. -1.
         11    1    6    6    0    0 -0.12850268605E+02 -0.29293956898E+02  0.95573776059E+02  0.10078497896E+03  0.00000000000E+00 0. -1.
        -12    1    6    6    0    0 -0.42968733093E+02  0.46318304068E+02  0.89383630735E+02  0.10945835171E+03  0.00000000000E+00 0.  1.
         -5    1    5    5    0  503  0.68517438655E+02 -0.17057969901E+02  0.14065907392E+03  0.15745691097E+03  0.47000000000E+01 0.  1.
<mgrwt>
<rscale>  2 0.17664962E+03</rscale>
<asrwt>0</asrwt>
<pdfrwt beam="1">  1       21 0.57901557E-01 0.17863884E+03</pdfrwt>
<pdfrwt beam="2">  1       21 0.44560637E-01 0.17863884E+03</pdfrwt>
<totfact> 0.13644875E+04</totfact>
</mgrwt>
</event>
<event>
12    1  0.1473662E-001  0.1809645E+03  0.7546771E-02  0.1166887E+00
         21   -1    0    0  504  503  0.00000000000E+00  0.00000000000E+00  0.60919622399E+03  0.60919622399E+03  0.00000000000E+00 0.  1.
         21   -1    0    0  502  504 -0.00000000000E+00 -0.00000000000E+00 -0.53861800671E+02  0.53861800671E+02  0.00000000000E+00 0.  1.
          6    2    1    2  502    0 -0.52214174739E+02 -0.18636848930E+01  0.29349923543E+03  0.34477229468E+03  0.17319451669E+03 0.  0.
         24    2    3    3    0    0 -0.54556608372E+02  0.56269059501E+02  0.24171481716E+03  0.26674269169E+03  0.81135566575E+02 0.  0.
         -6    2    1    2    0  503  0.52214174739E+02  0.18636848930E+01  0.26183518789E+03  0.31828572999E+03  0.17325803569E+03 0.  0.
        -24    2    5    5    0    0  0.54414498352E+02 -0.82528342776E+00  0.28153231180E+03  0.29773971662E+03  0.80167808647E+02 0.  0.
          4    1    4    4  501    0 -0.19141430238E+02  0.64800251205E+02  0.10194655817E+03  0.12230522324E+03  0.00000000000E+00 0. -1.
         -3    1    4    4    0  501 -0.35415178133E+02 -0.85311917031E+01  0.13976825898E+03  0.14443746845E+03  0.00000000000E+00 0.  1.
          5    1    3    3  502    0  0.23424336331E+01 -0.58132744394E+02  0.51784418278E+02  0.78029602988E+02  0.47000000000E+01 0. -1.
         13    1    6    6    0    0  0.12101366017E+02 -0.21710991474E+02  0.21351596314E+03  0.21495784872E+03  0.00000000000E+00 0. -1.
        -14    1    6    6    0    0  0.42313132335E+02  0.20885708046E+02  0.68016348663E+02  0.82781867906E+02  0.00000000000E+00 0.  1.
         -5    1    5    5    0  503 -0.22003236136E+01  0.26889683207E+01 -0.19697123912E+02  0.20546013362E+02  0.47000000000E+01 0.  1.
<mgrwt>
<rscale>  2 0.18094927E+03</rscale>
<asrwt>0</asrwt>
<pdfrwt beam="1">  1       21 0.93722491E-01 0.18096447E+03</pdfrwt>
<pdfrwt beam="2">  1       21 0.82864313E-02 0.18096447E+03</pdfrwt>
<totfact> 0.10841469E+05</totfact>
</mgrwt>
</event>
<event>
12    1  0.1473662E-001  0.1983237E+03  0.7546771E-02  0.1151184E+00
         21   -1    0    0  504  503  0.00000000000E+00  0.00000000000E+00  0.19078437094E+03  0.19078437094E+03  0.00000000000E+00 0.  1.
         21   -1    0    0  502  504 -0.00000000000E+00 -0.00000000000E+00 -0.20809328197E+03  0.20809328197E+03  0.00000000000E+00 0.  1.
          6    2    1    2  502    0 -0.63890372530E+02  0.71756477520E+02  0.11111098544E+02  0.19852795615E+03  0.17337508787E+03 0.  0.
         24    2    3    3    0    0 -0.19780554889E+01  0.79569337111E+02  0.51412349443E+02  0.12409371269E+03  0.80130067647E+02 0.  0.
         -6    2    1    2    0  503  0.63890372530E+02 -0.71756477520E+02 -0.28420009570E+02  0.20034969676E+03  0.17349735525E+03 0.  0.
        -24    2    5    5    0    0  0.14891250966E+01 -0.97308680145E+02  0.11736369831E+01  0.12656145476E+03  0.80902581437E+02 0.  0.
          2    1    4    4  501    0  0.11535412745E+02  0.93093654244E+02  0.43540966883E+02  0.10341813190E+03  0.00000000000E+00 0. -1.
         -1    1    4    4    0  501 -0.13513468234E+02 -0.13524317132E+02  0.78713825600E+01  0.20675580790E+02  0.00000000000E+00 0.  1.
          5    1    3    3  502    0 -0.61912317041E+02 -0.78128595913E+01 -0.40301250899E+02  0.74434243466E+02  0.47000000000E+01 0. -1.
         13    1    6    6    0    0 -0.42118677895E+01 -0.21161504121E+02  0.36519609867E+02  0.42417343055E+02  0.00000000000E+00 0. -1.
        -14    1    6    6    0    0  0.57009928862E+01 -0.76147176024E+02 -0.35345972884E+02  0.84144111710E+02  0.00000000000E+00 0.  1.
         -5    1    5    5    0  503  0.62401247433E+02  0.25552202625E+02 -0.29593646553E+02  0.73788241994E+02  0.47000000000E+01 0.  1.
<mgrwt>
<rscale>  2 0.19829699E+03</rscale>
<asrwt>0</asrwt>
<pdfrwt beam="1">  1       21 0.29351442E-01 0.19832374E+03</pdfrwt>
<pdfrwt beam="2">  1       21 0.32014351E-01 0.19832374E+03</pdfrwt>
<totfact> 0.10411044E+05</totfact>
</mgrwt>
</event>
<event>
12    1  0.1473662E-001  0.2394339E+03  0.7546771E-02  0.1120623E+00
         21   -1    0    0  504  503  0.00000000000E+00  0.00000000000E+00  0.16105929243E+04  0.16105929243E+04  0.00000000000E+00 0.  1.
         21   -1    0    0  502  504 -0.00000000000E+00 -0.00000000000E+00 -0.10220774448E+03  0.10220774448E+03  0.00000000000E+00 0.  1.
          6    2    1    2  502    0  0.16300652692E+03 -0.13024288689E+02  0.62220441736E+02  0.24738628671E+03  0.17489377223E+03 0.  0.
         24    2    3    3    0    0  0.32327816559E+02 -0.54429537140E+02  0.22321792834E+02  0.10453912319E+03  0.80140524110E+02 0.  0.
         -6    2    1    2    0  503 -0.16300652692E+03  0.13024288689E+02  0.14461647381E+04  0.14654143821E+04  0.17119024966E+03 0.  0.
        -24    2    5    5    0    0 -0.10709913037E+03  0.56509561625E+02  0.65692682775E+03  0.67299077372E+03  0.81854567499E+02 0.  0.
          2    1    4    4  501    0 -0.24019414133E+02 -0.16771889997E+02  0.22216020534E+02  0.36766562495E+02  0.00000000000E+00 0. -1.
         -1    1    4    4    0  501  0.56347230692E+02 -0.37657647143E+02  0.10577230009E+00  0.67772560692E+02  0.00000000000E+00 0.  1.
          5    1    3    3  502    0  0.13067871036E+03  0.41405248450E+02  0.39898648901E+02  0.14284716352E+03  0.47000000000E+01 0. -1.
         13    1    6    6    0    0 -0.60590386713E+02  0.42393052253E+00  0.16652554943E+03  0.17720647080E+03  0.00000000000E+00 0. -1.
        -14    1    6    6    0    0 -0.46508743655E+02  0.56085631103E+02  0.49040127832E+03  0.49578430293E+03  0.00000000000E+00 0.  1.
         -5    1    5    5    0  503 -0.55907396556E+02 -0.43485272936E+02  0.78923791032E+03  0.79242360833E+03  0.47000000000E+01 0.  1.
<mgrwt>
<rscale>  2 0.23875811E+03</rscale>
<asrwt>0</asrwt>
<pdfrwt beam="1">  1       21 0.24778351E+00 0.23943390E+03</pdfrwt>
<pdfrwt beam="2">  1       21 0.15724270E-01 0.23943390E+03</pdfrwt>
<totfact> 0.23512784E+03</totfact>
</mgrwt>
</event>
<event>
12    1  0.1473662E-001  0.3630712E+03  0.7546771E-02  0.1057463E+00
         21   -1    0    0  504  503  0.00000000000E+00  0.00000000000E+00  0.17448897069E+03  0.17448897069E+03  0.00000000000E+00 0. -1.
         21   -1    0    0  502  504 -0.00000000000E+00 -0.00000000000E+00 -0.80903673758E+03  0.80903673758E+03  0.00000000000E+00 0.  1.
          6    2    1    2  502    0  0.43827217458E+02 -0.31584626920E+03 -0.44639582072E+03  0.57540411066E+03  0.17361155216E+03 0.  0.
         24    2    3    3    0    0  0.59882566756E+02 -0.31504229483E+03 -0.36710212339E+03  0.49436090581E+03  0.82408536322E+02 0.  0.
         -6    2    1    2    0  503 -0.43827217458E+02  0.31584626920E+03 -0.18815194617E+03  0.40812159761E+03  0.17170437627E+03 0.  0.
        -24    2    5    5    0    0 -0.16053032871E+02  0.25582748511E+03 -0.21002963402E+03  0.33830481597E+03  0.68060997177E+02 0.  0.
          2    1    4    4  501    0  0.41847141872E+01 -0.22548661292E+03 -0.24404895749E+03  0.33229748433E+03  0.00000000000E+00 0. -1.
         -1    1    4    4    0  501  0.55697852569E+02 -0.89555681914E+02 -0.12305316590E+03  0.16206342148E+03  0.00000000000E+00 0.  1.
          5    1    3    3  502    0 -0.16055349298E+02 -0.80397436870E+00 -0.79293697327E+02  0.81043204845E+02  0.47000000000E+01 0. -1.
         13    1    6    6    0    0 -0.39431998833E+02  0.17428426820E+03 -0.12408666910E+03  0.21754859255E+03  0.00000000000E+00 0. -1.
        -14    1    6    6    0    0  0.23378965961E+02  0.81543216918E+02 -0.85942964921E+02  0.12075622342E+03  0.00000000000E+00 0.  1.
         -5    1    5    5    0  503 -0.27774184587E+02  0.60018784090E+02  0.21877687851E+02  0.69816781642E+02  0.47000000000E+01 0.  1.
<mgrwt>
<rscale>  2 0.36284392E+03</rscale>
<asrwt>0</asrwt>
<pdfrwt beam="1">  1       21 0.26844457E-01 0.36307115E+03</pdfrwt>
<pdfrwt beam="2">  1       21 0.12446719E+00 0.36307115E+03</pdfrwt>
<totfact> 0.57751765E+03</totfact>
</mgrwt>
</event>
<event>
12    1  0.1473662E-001  0.2010116E+03  0.7546771E-02  0.1148976E+00
         21   -1    0    0  504  503  0.00000000000E+00  0.00000000000E+00  0.13280715473E+04  0.13280715473E+04  0.00000000000E+00 0.  1.
         21   -1    0    0  502  504 -0.00000000000E+00 -0.00000000000E+00 -0.70308425779E+02  0.70308425779E+02  0.00000000000E+00 0.  1.
          6    2    1    2  502    0  0.80592253046E+02 -0.60602364769E+02  0.10213453769E+03  0.22547094321E+03  0.17389055344E+03 0.  0.
         24    2    3    3    0    0  0.21740564151E+02 -0.62490382458E+02  0.12428697816E+03  0.16238444294E+03  0.80893475263E+02 0.  0.
         -6    2    1    2    0  503 -0.80592253046E+02  0.60602364769E+02  0.11556285838E+04  0.11729090298E+04  0.17340821986E+03 0.  0.
        -24    2    5    5    0    0 -0.65903241650E+02  0.80098374174E+02  0.11302703357E+04  0.11373985781E+04  0.73522151821E+02 0.  0.
          4    1    4    4  501    0 -0.28855000840E+02 -0.21668016856E+02  0.65273075107E+02  0.74583432221E+02  0.00000000000E+00 0. -1.
         -3    1    4    4    0  501  0.50595564992E+02 -0.40822365602E+02  0.59013903056E+02  0.87801010723E+02  0.00000000000E+00 0.  1.
          5    1    3    3  502    0  0.58851688895E+02  0.18880176884E+01 -0.22152440474E+02  0.63086500264E+02  0.47000000000E+01 0. -1.
         11    1    6    6    0    0  0.10843027088E+02  0.14540309849E+02  0.37173350527E+03  0.37217575255E+03  0.00000000000E+00 0. -1.
        -12    1    6    6    0    0 -0.76746268738E+02  0.65558064325E+02  0.75853683045E+03  0.76522282553E+03  0.00000000000E+00 0.  1.
         -5    1    5    5    0  503 -0.14689011397E+02 -0.19496009405E+02  0.25358248089E+02  0.35510451766E+02  0.47000000000E+01 0.  1.
<mgrwt>
<rscale>  2 0.20090729E+03</rscale>
<asrwt>0</asrwt>
<pdfrwt beam="1">  1       21 0.20431868E+00 0.20101165E+03</pdfrwt>
<pdfrwt beam="2">  1       21 0.10816682E-01 0.20101165E+03</pdfrwt>
<totfact> 0.88339715E+03</totfact>
</mgrwt>
</event>
<event>
12    1  0.1473662E-001  0.2703240E+03  0.7546771E-02  0.1101129E+00
         21   -1    0    0  504  503  0.00000000000E+00  0.00000000000E+00  0.67621919580E+02  0.67621919580E+02  0.00000000000E+00 0.  1.
         21   -1    0    0  502  504 -0.00000000000E+00 -0.00000000000E+00 -0.15378004338E+04  0.15378004338E+04  0.00000000000E+00 0.  1.
          6    2    1    2  502    0 -0.90241903074E+01 -0.20870003639E+03 -0.29718804902E+03  0.40174093855E+03  0.17157477677E+03 0.  0.
         24    2    3    3    0    0 -0.31133843139E+02 -0.30547307523E+02 -0.97734056430E+02  0.13335461864E+03  0.79555353948E+02 0.  0.
         -6    2    1    2    0  503  0.90241903074E+01  0.20870003639E+03 -0.11729904652E+04  0.12036814148E+04  0.17118754558E+03 0.  0.
        -24    2    5    5    0    0  0.55958582548E+02  0.16622690139E+03 -0.69570357512E+03  0.72219240165E+03  0.82435762028E+02 0.  0.
          4    1    4    4  501    0 -0.22798348502E+01  0.20708707726E+02 -0.19141352711E+01  0.20921571080E+02  0.00000000000E+00 0. -1.
         -3    1    4    4    0  501 -0.28854008289E+02 -0.51256015249E+02 -0.95819921159E+02  0.11243304756E+03  0.00000000000E+00 0.  1.
          5    1    3    3  502    0  0.22109652832E+02 -0.17815272887E+03 -0.19945399259E+03  0.26838631991E+03  0.47000000000E+01 0. -1.
         11    1    6    6    0    0  0.43107073736E+02  0.17297154202E+03 -0.66003884921E+03  0.68368754312E+03  0.00000000000E+00 0. -1.
        -12    1    6    6    0    0  0.12851508812E+02 -0.67446406321E+01 -0.35664725910E+02  0.38504858528E+02  0.00000000000E+00 0.  1.
         -5    1    5    5    0  503 -0.46934392240E+02  0.42473135001E+02 -0.47728689008E+03  0.48148901318E+03  0.47000000000E+01 0.  1.
<mgrwt>
<rscale>  2 0.27026254E+03</rscale>
<asrwt>0</asrwt>
<pdfrwt beam="1">  1       21 0.10403373E-01 0.27032396E+03</pdfrwt>
<pdfrwt beam="2">  1       21 0.23658467E+00 0.27032396E+03</pdfrwt>
<totfact> 0.56573921E+03</totfact>
</mgrwt>
</event>
<event>
12    1  0.1473662E-001  0.1941532E+03  0.7546771E-02  0.1155041E+00
         21   -1    0    0  504  503  0.00000000000E+00  0.00000000000E+00  0.14366643446E+03  0.14366643446E+03  0.00000000000E+00 0.  1.
         21   -1    0    0  502  504 -0.00000000000E+00 -0.00000000000E+00 -0.88873932162E+03  0.88873932162E+03  0.00000000000E+00 0.  1.
          6    2    1    2  502    0 -0.76579536820E+02 -0.41537863630E+02 -0.80682226612E+03  0.82985397672E+03  0.17350975191E+03 0.  0.
         24    2    3    3    0    0 -0.13968655709E+02 -0.11487901699E+02 -0.16830378120E+03  0.18755259246E+03  0.80763339116E+02 0.  0.
         -6    2    1    2    0  503  0.76579536820E+02  0.41537863630E+02  0.61749378959E+02  0.20255177936E+03  0.17211745393E+03 0.  0.
        -24    2    5    5    0    0  0.19316025749E+02  0.51756743433E+02 -0.22637110252E+02  0.99952048532E+02  0.80162983376E+02 0.  0.
          4    1    4    4  501    0  0.22498466795E+02  0.21872555595E+02 -0.46433203921E+02  0.56041342978E+02  0.00000000000E+00 0. -1.
         -3    1    4    4    0  501 -0.36467122504E+02 -0.33360457293E+02 -0.12187057728E+03  0.13151124948E+03  0.00000000000E+00 0.  1.
          5    1    3    3  502    0 -0.62610881111E+02 -0.30049961931E+02 -0.63851848492E+03  0.64230138426E+03  0.47000000000E+01 0. -1.
         11    1    6    6    0    0  0.20901140643E+02  0.70803663036E+02 -0.50793305988E+01  0.73998756603E+02  0.00000000000E+00 0. -1.
        -12    1    6    6    0    0 -0.15851148940E+01 -0.19046919603E+02 -0.17557779653E+02  0.25953291929E+02  0.00000000000E+00 0.  1.
         -5    1    5    5    0  503  0.57263511071E+02 -0.10218879803E+02  0.84386489211E+02  0.10259973083E+03  0.47000000000E+01 0.  1.
<mgrwt>
<rscale>  2 0.19384161E+03</rscale>
<asrwt>0</asrwt>
<pdfrwt beam="1">  1       21 0.22102528E-01 0.19415317E+03</pdfrwt>
<pdfrwt beam="2">  1       21 0.13672913E+00 0.19415317E+03</pdfrwt>
<totfact> 0.72687061E+03</totfact>
</mgrwt>
</event>
<event>
12    1  0.1473662E-001  0.1742875E+03  0.7546771E-02  0.1174360E+00
         21   -1    0    0  504  503  0.00000000000E+00  0.00000000000E+00  0.25914730276E+03  0.25914730276E+03  0.00000000000E+00 0. -1.
         21   -1    0    0  502  504 -0.00000000000E+00 -0.00000000000E+00 -0.34312262103E+03  0.34312262103E+03  0.00000000000E+00 0. -1.
          6    2    1    2  502    0  0.79789240443E+01 -0.79901031853E+01 -0.28747008659E+03  0.33434037424E+03  0.17034356512E+03 0.  0.
         24    2    3    3    0    0  0.25614108844E+02 -0.55383570379E+02 -0.10584296903E+03  0.14574652409E+03  0.79472591206E+02 0.  0.
         -6    2    1    2    0  503 -0.79789240443E+01  0.79901031853E+01  0.20349476832E+03  0.26792954955E+03  0.17392129774E+03 0.  0.
        -24    2    5    5    0    0 -0.16332764004E+02  0.57624076087E+02  0.19121382632E+03  0.21590811700E+03  0.80413271824E+02 0.  0.
          4    1    4    4  501    0  0.54539255384E+02 -0.34825975044E+02 -0.68457317273E+02  0.94200760103E+02  0.00000000000E+00 0. -1.
         -3    1    4    4    0  501 -0.28925146540E+02 -0.20557595335E+02 -0.37385651755E+02  0.51545763991E+02  0.00000000000E+00 0.  1.
          5    1    3    3  502    0 -0.17635184800E+02  0.47393467194E+02 -0.18162711757E+03  0.18859385014E+03  0.47000000000E+01 0. -1.
         11    1    6    6    0    0  0.31072327366E+02  0.37170701689E+02  0.99233636120E+02  0.11042855215E+03  0.00000000000E+00 0. -1.
        -12    1    6    6    0    0 -0.47405091370E+02  0.20453374399E+02  0.91980190198E+02  0.10547956485E+03  0.00000000000E+00 0.  1.
         -5    1    5    5    0  503  0.83538399596E+01 -0.49633972902E+02  0.12280942003E+02  0.52021432550E+02  0.47000000000E+01 0.  1.
<mgrwt>
<rscale>  2 0.17338802E+03</rscale>
<asrwt>0</asrwt>
<pdfrwt beam="1">  1       21 0.39868815E-01 0.17428747E+03</pdfrwt>
<pdfrwt beam="2">  1       21 0.52788096E-01 0.17428747E+03</pdfrwt>
<totfact> 0.20851652E+04</totfact>
</mgrwt>
</event>
<event>
12    1  0.1473662E-001  0.2449196E+03  0.7546771E-02  0.1116675E+00
         21   -1    0    0  504  503  0.00000000000E+00  0.00000000000E+00  0.14276077934E+04  0.14276077934E+04  0.00000000000E+00 0. -1.
         21   -1    0    0  502  504 -0.00000000000E+00 -0.00000000000E+00 -0.45449350510E+02  0.45449350510E+02  0.00000000000E+00 0.  1.
          6    2    1    2  502    0 -0.53601482552E+02 -0.16219293448E+03  0.89798093877E+03  0.93078213447E+03  0.17551623433E+03 0.  0.
         24    2    3    3    0    0 -0.40586485664E+02 -0.75349504896E+02  0.74560685680E+03  0.75485282405E+03  0.80922125305E+02 0.  0.
         -6    2    1    2    0  503  0.53601482552E+02  0.16219293448E+03  0.48417750408E+03  0.54227500941E+03  0.17451264552E+03 0.  0.
        -24    2    5    5    0    0 -0.23919037438E+02  0.13142592512E+03  0.36435912517E+03  0.39621141432E+03  0.79881278157E+02 0.  0.
          2    1    4    4  501    0 -0.59638707414E+02 -0.33698205200E+02  0.53190829196E+03  0.53630101204E+03  0.00000000000E+00 0. -1.
         -1    1    4    4    0  501  0.19052221751E+02 -0.41651299696E+02  0.21369856484E+03  0.21855181201E+03  0.00000000000E+00 0.  1.
          5    1    3    3  502    0 -0.13014996888E+02 -0.86843429582E+02  0.15237408197E+03  0.17592931041E+03  0.47000000000E+01 0. -1.
         13    1    6    6    0    0 -0.14706753198E+02  0.74841309708E+01  0.12901632871E+03  0.13006734363E+03  0.00000000000E+00 0. -1.
        -14    1    6    6    0    0 -0.92122842396E+01  0.12394179415E+03  0.23534279646E+03  0.26614407069E+03  0.00000000000E+00 0.  1.
         -5    1    5    5    0  503  0.77520519990E+02  0.30767009354E+02  0.11981837891E+03  0.14606359509E+03  0.47000000000E+01 0.  1.
<mgrwt>
<rscale>  2 0.24473986E+03</rscale>
<asrwt>0</asrwt>
<pdfrwt beam="1">  1       21 0.21963193E+00 0.24491961E+03</pdfrwt>
<pdfrwt beam="2">  1       21 0.69922088E-02 0.24491961E+03</pdfrwt>
<totfact> 0.14727893E+04</totfact>
</mgrwt>
</event>
<event>
12    1  0.1473662E-001  0.2296771E+03  0.7546771E-02  0.1126972E+00
         21   -1    0    0  504  503  0.00000000000E+00  0.00000000000E+00  0.53691020700E+03  0.53691020700E+03  0.00000000000E+00 0. -1.
         21   -1    0    0  502  504 -0.00000000000E+00 -0.00000000000E+00 -0.98338007087E+02  0.98338007087E+02  0.00000000000E+00 0.  1.
          6    2    1    2  502    0  0.14795738651E+03  0.18517034566E+02  0.23827004258E+03  0.33094435664E+03  0.17469197236E+03 0.  0.
         24    2    3    3    0    0  0.15595553161E+03 -0.31567200515E+02  0.17530696599E+03  0.24995769143E+03  0.80172933023E+02 0.  0.
         -6    2    1    2    0  503 -0.14795738651E+03 -0.18517034566E+02  0.20030215733E+03  0.30430385745E+03  0.17391266380E+03 0.  0.
        -24    2    5    5    0    0 -0.76590757177E+02  0.56660924071E+02  0.83075894545E+02  0.14775032687E+03  0.76498042034E+02 0.  0.
          4    1    4    4  501    0  0.15210272471E+03 -0.34051002827E+02  0.18338131310E+03  0.24067283946E+03  0.00000000000E+00 0. -1.
         -3    1    4    4    0  501  0.38528069009E+01  0.24838023125E+01 -0.80743471060E+01  0.92848519714E+01  0.00000000000E+00 0.  1.
          5    1    3    3  502    0 -0.79981451009E+01  0.50084235080E+02  0.62963076590E+02  0.80986665213E+02  0.47000000000E+01 0. -1.
         11    1    6    6    0    0  0.90316361694E+01  0.26567290382E+02  0.35588950773E+02  0.45320688292E+02  0.00000000000E+00 0. -1.
        -12    1    6    6    0    0 -0.85622393346E+02  0.30093633689E+02  0.47486943771E+02  0.10242963858E+03  0.00000000000E+00 0.  1.
         -5    1    5    5    0  503 -0.71366629337E+02 -0.75177958637E+02  0.11722626279E+03  0.15655353057E+03  0.47000000000E+01 0.  1.
<mgrwt>
<rscale>  2 0.22952888E+03</rscale>
<asrwt>0</asrwt>
<pdfrwt beam="1">  1       21 0.82601569E-01 0.22967706E+03</pdfrwt>
<pdfrwt beam="2">  1       21 0.15128924E-01 0.22967706E+03</pdfrwt>
<totfact> 0.48529658E+04</totfact>
</mgrwt>
</event>
<event>
12    1  0.1473662E-001  0.1998391E+03  0.7546771E-02  0.1150267E+00
         21   -1    0    0  504  503  0.00000000000E+00  0.00000000000E+00  0.86929417304E+03  0.86929417304E+03  0.00000000000E+00 0.  1.
         21   -1    0    0  502  504 -0.00000000000E+00 -0.00000000000E+00 -0.60476468351E+02  0.60476468351E+02  0.00000000000E+00 0. -1.
          6    2    1    2  502    0  0.82583643214E+02 -0.57126288178E+02  0.17460812446E+03  0.26537456977E+03  0.17277787540E+03 0.  0.
         24    2    3    3    0    0 -0.14148310820E+01  0.42741892526E+01  0.12714916638E+03  0.15091844274E+03  0.81173859141E+02 0.  0.
         -6    2    1    2    0  503 -0.82583643214E+02  0.57126288178E+02  0.63420958023E+03  0.66439607162E+03  0.17063668245E+03 0.  0.
        -24    2    5    5    0    0 -0.10972878160E+03  0.43818126582E+01  0.50571714299E+03  0.52279368935E+03  0.74187648005E+02 0.  0.
          4    1    4    4  501    0  0.42704722709E+01  0.41185151764E+02  0.85364408874E+02  0.94876424688E+02  0.00000000000E+00 0. -1.
         -3    1    4    4    0  501 -0.56853033529E+01 -0.36910962511E+02  0.41784757507E+02  0.56042018055E+02  0.00000000000E+00 0.  1.
          5    1    3    3  502    0  0.83998474296E+02 -0.61400477431E+02  0.47458958076E+02  0.11445612703E+03  0.47000000000E+01 0. -1.
         11    1    6    6    0    0 -0.93040923435E+02  0.11552909955E+02  0.25967194440E+03  0.27607897760E+03  0.00000000000E+00 0. -1.
        -12    1    6    6    0    0 -0.16687858166E+02 -0.71710972968E+01  0.24604519859E+03  0.24671471175E+03  0.00000000000E+00 0.  1.
         -5    1    5    5    0  503  0.27145138387E+02  0.52744475520E+02  0.12849243724E+03  0.14160238227E+03  0.47000000000E+01 0.  1.
<mgrwt>
<rscale>  2 0.19937541E+03</rscale>
<asrwt>0</asrwt>
<pdfrwt beam="1">  1       21 0.13373756E+00 0.19983910E+03</pdfrwt>
<pdfrwt beam="2">  1       21 0.93040727E-02 0.19983910E+03</pdfrwt>
<totfact> 0.36917716E+04</totfact>
</mgrwt>
</event>
<event>
12    1  0.1473662E-001  0.1936647E+03  0.7546771E-02  0.1155802E+00
         21   -1    0    0  504  503  0.00000000000E+00  0.00000000000E+00  0.41469099494E+03  0.41469099494E+03  0.00000000000E+00 0.  1.
         21   -1    0    0  502  504 -0.00000000000E+00 -0.00000000000E+00 -0.11418582445E+03  0.11418582445E+03  0.00000000000E+00 0.  1.
          6    2    1    2  502    0  0.72587300368E+02  0.34802448614E+02  0.25655140312E+02  0.19264990330E+03  0.17313483882E+03 0.  0.
         24    2    3    3    0    0  0.63642876647E+02  0.51375675135E+02  0.77798139414E+02  0.13701127546E+03  0.77650907028E+02 0.  0.
         -6    2    1    2    0  503 -0.72587300368E+02 -0.34802448614E+02  0.27485003017E+03  0.33622691610E+03  0.17614162886E+03 0.  0.
        -24    2    5    5    0    0 -0.85181283925E+02 -0.18859708499E+02  0.87000482056E+02  0.14722341848E+03  0.80586049253E+02 0.  0.
          2    1    4    4  501    0  0.62651738041E+02  0.57803014686E+02  0.89515553037E+02  0.12361012508E+03  0.00000000000E+00 0. -1.
         -1    1    4    4    0  501  0.99113860606E+00 -0.64273395510E+01 -0.11717413623E+02  0.13401150378E+02  0.00000000000E+00 0.  1.
          5    1    3    3  502    0  0.89444237210E+01 -0.16573226521E+02 -0.52142999102E+02  0.55638627844E+02  0.47000000000E+01 0. -1.
         13    1    6    6    0    0 -0.89659983923E+02  0.70192726549E+01  0.53460975154E+02  0.10462436987E+03  0.00000000000E+00 0. -1.
        -14    1    6    6    0    0  0.44786999977E+01 -0.25878981154E+02  0.33539506902E+02  0.42599048610E+02  0.00000000000E+00 0.  1.
         -5    1    5    5    0  503  0.12593983558E+02 -0.15942740115E+02  0.18784954812E+03  0.18900349762E+03  0.47000000000E+01 0.  1.
<mgrwt>
<rscale>  2 0.19297836E+03</rscale>
<asrwt>0</asrwt>
<pdfrwt beam="1">  1       21 0.63798614E-01 0.19366466E+03</pdfrwt>
<pdfrwt beam="2">  1       21 0.17567050E-01 0.19366466E+03</pdfrwt>
<totfact> 0.66626709E+04</totfact>
</mgrwt>
</event>
<event>
12    1  0.1473662E-001  0.2409050E+03  0.7546771E-02  0.1119639E+00
         21   -1    0    0  504  503  0.00000000000E+00  0.00000000000E+00  0.16833775081E+03  0.16833775081E+03  0.00000000000E+00 0. -1.
         21   -1    0    0  502  504 -0.00000000000E+00 -0.00000000000E+00 -0.56065408298E+03  0.56065408298E+03  0.00000000000E+00 0.  1.
          6    2    1    2  502    0 -0.16068013193E+03  0.36569236635E+02 -0.42367387299E+03  0.48605461788E+03  0.17202943655E+03 0.  0.
         24    2    3    3    0    0 -0.18914408860E+03  0.33535771318E+02 -0.38056511764E+03  0.43409450308E+03  0.81902958672E+02 0.  0.
         -6    2    1    2    0  503  0.16068013193E+03 -0.36569236635E+02  0.31357540814E+02  0.24293721592E+03  0.17572643981E+03 0.  0.
        -24    2    5    5    0    0  0.68292915978E+02 -0.39817379065E+02  0.81511205417E+02  0.13765935417E+03  0.77824643488E+02 0.  0.
          4    1    4    4  501    0 -0.95923772471E+02 -0.13955094638E+02 -0.12678161520E+03  0.15959227031E+03  0.00000000000E+00 0. -1.
         -3    1    4    4    0  501 -0.93220316126E+02  0.47490865956E+02 -0.25378350244E+03  0.27450223277E+03  0.00000000000E+00 0.  1.
          5    1    3    3  502    0  0.28463956665E+02  0.30334653173E+01 -0.43108755354E+02  0.51960114791E+02  0.47000000000E+01 0. -1.
         11    1    6    6    0    0  0.61191373944E+02 -0.53490304670E+02  0.34690336004E+02  0.88368638956E+02  0.00000000000E+00 0. -1.
        -12    1    6    6    0    0  0.71015420342E+01  0.13672925605E+02  0.46820869413E+02  0.49290715215E+02  0.00000000000E+00 0.  1.
         -5    1    5    5    0  503  0.92387215953E+02  0.32481424298E+01 -0.50153664604E+02  0.10527786175E+03  0.47000000000E+01 0.  1.
<mgrwt>
<rscale>  2 0.24023130E+03</rscale>
<asrwt>0</asrwt>
<pdfrwt beam="1">  1       21 0.25898116E-01 0.24090495E+03</pdfrwt>
<pdfrwt beam="2">  1       21 0.86254473E-01 0.24090495E+03</pdfrwt>
<totfact> 0.15943022E+04</totfact>
</mgrwt>
</event>
<event>
12    1  0.1473662E-001  0.1807309E+03  0.7546771E-02  0.1167185E+00
         21   -1    0    0  504  503  0.00000000000E+00  0.00000000000E+00  0.15435792953E+03  0.15435792953E+03  0.00000000000E+00 0.  1.
         21   -1    0    0  502  504 -0.00000000000E+00 -0.00000000000E+00 -0.21176457561E+03  0.21176457561E+03  0.00000000000E+00 0.  1.
          6    2    1    2  502    0  0.22319845245E+02  0.48832324922E+02 -0.19109347703E+02  0.18137854847E+03  0.17219244822E+03 0.  0.
         24    2    3    3    0    0  0.10074542176E+02 -0.26454079364E+02 -0.49694870599E+02  0.99064793064E+02  0.80888431472E+02 0.  0.
         -6    2    1    2    0  503 -0.22319845245E+02 -0.48832324922E+02 -0.38297298379E+02  0.18474395667E+03  0.17257136209E+03 0.  0.
        -24    2    5    5    0    0  0.33323224442E+02 -0.42534690892E+02 -0.71119108867E+02  0.11966575262E+03  0.79638731080E+02 0.  0.
          4    1    4    4  501    0  0.17294959071E+02 -0.20676055387E+02  0.16910129699E+02  0.31820863629E+02  0.00000000000E+00 0. -1.
         -3    1    4    4    0  501 -0.72204168954E+01 -0.57780239773E+01 -0.66605000298E+02  0.67243929436E+02  0.00000000000E+00 0.  1.
          5    1    3    3  502    0  0.12245303069E+02  0.75286404286E+02  0.30585522896E+02  0.82313755402E+02  0.47000000000E+01 0. -1.
         13    1    6    6    0    0  0.61163575088E+01 -0.32892272971E+02 -0.82199382835E+02  0.88747112566E+02  0.00000000000E+00 0. -1.
        -14    1    6    6    0    0  0.27206866933E+02 -0.96424179216E+01  0.11080273968E+02  0.30918640056E+02  0.00000000000E+00 0.  1.
         -5    1    5    5    0  503 -0.55643069687E+02 -0.62976340296E+01  0.32821810488E+02  0.65078204049E+02  0.47000000000E+01 0.  1.
<mgrwt>
<rscale>  2 0.18064036E+03</rscale>
<asrwt>0</asrwt>
<pdfrwt beam="1">  1       21 0.23747374E-01 0.18073087E+03</pdfrwt>
<pdfrwt beam="2">  1       21 0.32579165E-01 0.18073087E+03</pdfrwt>
<totfact> 0.15203237E+05</totfact>
</mgrwt>
</event>
<event>
12    1  0.1473662E-001  0.2739008E+03  0.7546771E-02  0.1099236E+00
         21   -1    0    0  504  503  0.00000000000E+00  0.00000000000E+00  0.31414007783E+03  0.31414007783E+03  0.00000000000E+00 0. -1.
         21   -1    0    0  502  504 -0.00000000000E+00 -0.00000000000E+00 -0.25522074423E+03  0.25522074423E+03  0.00000000000E+00 0. -1.
          6    2    1    2  502    0  0.60857436035E+02  0.20275106049E+03 -0.45027385475E+02  0.27639913590E+03  0.17192264783E+03 0.  0.
         24    2    3    3    0    0 -0.16640504736E+02  0.15798496155E+03 -0.16562509634E+02  0.18236577164E+03  0.88015927347E+02 0.  0.
         -6    2    1    2    0  503 -0.60857436035E+02 -0.20275106049E+03  0.10394671907E+03  0.29296168616E+03  0.17381026753E+03 0.  0.
        -24    2    5    5    0    0 -0.36848896896E+01 -0.19662323992E+03  0.77057854026E+02  0.22931145989E+03  0.89283570056E+02 0.  0.
          2    1    4    4  501    0 -0.31937233805E+02  0.16220846701E+03 -0.11557538660E+02  0.16572613063E+03  0.00000000000E+00 0. -1.
         -1    1    4    4    0  501  0.15296729069E+02 -0.42235054598E+01 -0.50049709746E+01  0.16639641013E+02  0.00000000000E+00 0.  1.
          5    1    3    3  502    0  0.77497940770E+02  0.44766098935E+02 -0.28464875840E+02  0.94033364261E+02  0.47000000000E+01 0. -1.
         11    1    6    6    0    0  0.60956794409E+01 -0.99552656670E+02  0.85519779337E+02  0.13138310932E+03  0.00000000000E+00 0. -1.
        -12    1    6    6    0    0 -0.97805691305E+01 -0.97070583246E+02 -0.84619253110E+01  0.97928350564E+02  0.00000000000E+00 0.  1.
         -5    1    5    5    0  503 -0.57172546345E+02 -0.61278205707E+01  0.26888865045E+02  0.63650226267E+02  0.47000000000E+01 0.  1.
<mgrwt>
<rscale>  2 0.27360179E+03</rscale>
<asrwt>0</asrwt>
<pdfrwt beam="1">  1       21 0.48329243E-01 0.27390077E+03</pdfrwt>
<pdfrwt beam="2">  1       21 0.39264730E-01 0.27390077E+03</pdfrwt>
<totfact> 0.24561007E+04</totfact>
</mgrwt>
</event>
<event>
12    1  0.1473662E-001  0.2115383E+03  0.7546771E-02  0.1140514E+00
         21   -1    0    0  504  503  0.00000000000E+00  0.00000000000E+00  0.26485618665E+03  0.26485618665E+03  0.00000000000E+00 0.  1.
         21   -1    0    0  502  504 -0.00000000000E+00 -0.00000000000E+00 -0.23769965810E+03  0.23769965810E+03  0.00000000000E+00 0.  1.
          6    2    1    2  502    0  0.28187439962E+02 -0.11712055112E+03  0.14933101579E+03  0.25827103512E+03  0.17289424525E+03 0.  0.
         24    2    3    3    0    0 -0.49713912415E+02 -0.76895448205E+02  0.87919346205E+02  0.15112551367E+03  0.82004429159E+02 0.  0.
         -6    2    1    2    0  503 -0.28187439962E+02  0.11712055112E+03 -0.12217448724E+03  0.24428480963E+03  0.17388705420E+03 0.  0.
        -24    2    5    5    0    0 -0.46346937977E+01  0.14888971752E+03 -0.82864757678E+02  0.18832628370E+03  0.80066176993E+02 0.  0.
          4    1    4    4  501    0  0.62944083365E+01 -0.65016567778E+01 -0.13059802252E+02  0.15888661115E+02  0.00000000000E+00 0. -1.
         -3    1    4    4    0  501 -0.56008320751E+02 -0.70393791427E+02  0.10097914846E+03  0.13523685255E+03  0.00000000000E+00 0.  1.
          5    1    3    3  502    0  0.77901352377E+02 -0.40225102919E+02  0.61411669587E+02  0.10714552146E+03  0.47000000000E+01 0. -1.
         11    1    6    6    0    0 -0.39831796840E+01  0.11114973324E+03 -0.17140086251E+02  0.11253404585E+03  0.00000000000E+00 0. -1.
        -12    1    6    6    0    0 -0.65151411370E+00  0.37739984287E+02 -0.65724671428E+02  0.75792237854E+02  0.00000000000E+00 0.  1.
         -5    1    5    5    0  503 -0.23552746164E+02 -0.31769166400E+02 -0.39309729562E+02  0.55958525926E+02  0.47000000000E+01 0.  1.
<mgrwt>
<rscale>  2 0.21133419E+03</rscale>
<asrwt>0</asrwt>
<pdfrwt beam="1">  1       21 0.40747105E-01 0.21153832E+03</pdfrwt>
<pdfrwt beam="2">  1       21 0.36569178E-01 0.21153832E+03</pdfrwt>
<totfact> 0.41446817E+04</totfact>
</mgrwt>
</event>
<event>
12    1  0.1473662E-001  0.2342175E+03  0.7546771E-02  0.1123832E+00
         21   -1    0    0  504  503  0.00000000000E+00  0.00000000000E+00  0.32593348327E+03  0.32593348327E+03  0.00000000000E+00 0.  1.
         21   -1    0    0  502  504 -0.00000000000E+00 -0.00000000000E+00 -0.19701527722E+03  0.19701527722E+03  0.00000000000E+00 0.  1.
          6    2    1    2  502    0 -0.15536106602E+03 -0.24043640119E+02 -0.36344932161E+02  0.23629611826E+03  0.17262602338E+03 0.  0.
         24    2    3    3    0    0 -0.99414554703E+02 -0.60866764663E+02 -0.71452581799E+02  0.16052942576E+03  0.84120201862E+02 0.  0.
         -6    2    1    2    0  503  0.15536106602E+03  0.24043640119E+02  0.16526313821E+03  0.28665264222E+03  0.17361645940E+03 0.  0.
        -24    2    5    5    0    0  0.97972138474E+02 -0.44746930482E+02  0.56150126075E+02  0.14539624051E+03  0.79914969750E+02 0.  0.
          4    1    4    4  501    0 -0.12828778601E+02  0.19473933900E+02 -0.17640956533E+01  0.23386399796E+02  0.00000000000E+00 0. -1.
         -3    1    4    4    0  501 -0.86585776102E+02 -0.80340698563E+02 -0.69688486146E+02  0.13714302596E+03  0.00000000000E+00 0.  1.
          5    1    3    3  502    0 -0.55946511321E+02  0.36823124544E+02  0.35107649638E+02  0.75766692505E+02  0.47000000000E+01 0. -1.
         11    1    6    6    0    0 -0.11268345606E+02  0.69245550142E+01  0.44194276939E+01  0.13944763030E+02  0.00000000000E+00 0. -1.
        -12    1    6    6    0    0  0.10924048408E+03 -0.51671485496E+02  0.51730698381E+02  0.13145147747E+03  0.00000000000E+00 0.  1.
         -5    1    5    5    0  503  0.57388927550E+02  0.68790570601E+02  0.10911301214E+03  0.14125640172E+03  0.47000000000E+01 0.  1.
<mgrwt>
<rscale>  2 0.23403397E+03</rscale>
<asrwt>0</asrwt>
<pdfrwt beam="1">  1       21 0.50143613E-01 0.23421749E+03</pdfrwt>
<pdfrwt beam="2">  1       21 0.30310043E-01 0.23421749E+03</pdfrwt>
<totfact> 0.38764869E+04</totfact>
</mgrwt>
</event>
<event>
12    1  0.1473662E-001  0.2533344E+03  0.7546771E-02  0.1111571E+00
         21   -1    0    0  504  503  0.00000000000E+00  0.00000000000E+00  0.15886806883E+03  0.15886806883E+03  0.00000000000E+00 0.  1.
         21   -1    0    0  502  504 -0.00000000000E+00 -0.00000000000E+00 -0.43968989912E+03  0.43968989912E+03  0.00000000000E+00 0. -1.
          6    2    1    2  502    0 -0.10419797004E+03  0.15214831138E+03 -0.23050361430E+03  0.34250585045E+03  0.17370093773E+03 0.  0.
         24    2    3    3    0    0 -0.11219578940E+03  0.14532858313E+03 -0.24972384947E+03  0.32010091242E+03  0.79964372726E+02 0.  0.
         -6    2    1    2    0  503  0.10419797004E+03 -0.15214831138E+03 -0.50318215995E+02  0.25605211751E+03  0.17036560216E+03 0.  0.
        -24    2    5    5    0    0  0.67939870620E+02 -0.96480282671E+02 -0.10024712807E+03  0.17281411263E+03  0.76752588722E+02 0.  0.
          2    1    4    4  501    0 -0.88307036590E+02  0.12459076068E+03 -0.24415480922E+03  0.28798014033E+03  0.00000000000E+00 0. -1.
         -1    1    4    4    0  501 -0.23888752807E+02  0.20737822453E+02 -0.55690402540E+01  0.32120772097E+02  0.00000000000E+00 0.  1.
          5    1    3    3  502    0  0.79978193540E+01  0.68197282522E+01  0.19220235171E+02  0.22404938025E+02  0.47000000000E+01 0. -1.
         13    1    6    6    0    0  0.42850624679E+02 -0.10517499929E+03 -0.87457017982E+02  0.14334115426E+03  0.00000000000E+00 0. -1.
        -14    1    6    6    0    0  0.25089245941E+02  0.86947166218E+01 -0.12790110084E+02  0.29472958368E+02  0.00000000000E+00 0.  1.
         -5    1    5    5    0  503  0.36258099423E+02 -0.55668028712E+02  0.49928912071E+02  0.83238004872E+02  0.47000000000E+01 0.  1.
<mgrwt>
<rscale>  2 0.25276373E+03</rscale>
<asrwt>0</asrwt>
<pdfrwt beam="1">  1       21 0.24441242E-01 0.25333445E+03</pdfrwt>
<pdfrwt beam="2">  1       21 0.67644599E-01 0.25333445E+03</pdfrwt>
<totfact> 0.30649927E+04</totfact>
</mgrwt>
</event>
<event>
12    1  0.1473662E-001  0.1821506E+03  0.7546771E-02  0.1165939E+00
         21   -1    0    0  504  503  0.00000000000E+00  0.00000000000E+00  0.31975119028E+03  0.31975119028E+03  0.00000000000E+00 0. -1.
         21   -1    0    0  502  504 -0.00000000000E+00 -0.00000000000E+00 -0.10551212835E+03  0.10551212835E+03  0.00000000000E+00 0.  1.
          6    2    1    2  502    0  0.27216794793E+02  0.51585355042E+02  0.75978628808E+02  0.19658274289E+03  0.17166892553E+03 0.  0.
         24    2    3    3    0    0  0.83058746391E+01  0.92915407919E+02  0.18596340520E+02  0.12323007981E+03  0.78342632747E+02 0.  0.
         -6    2    1    2    0  503 -0.27216794793E+02 -0.51585355042E+02  0.13826043313E+03  0.22868057574E+03  0.17256029549E+03 0.  0.
        -24    2    5    5    0    0  0.29650852284E+02 -0.67612128650E+02  0.45067825163E+02  0.11823720140E+03  0.80612368459E+02 0.  0.
          4    1    4    4  501    0  0.21629745744E+02  0.95706314441E+02  0.32895247225E+02  0.10348739930E+03  0.00000000000E+00 0. -1.
         -3    1    4    4    0  501 -0.13323871105E+02 -0.27909065213E+01 -0.14298906705E+02  0.19742680501E+02  0.00000000000E+00 0.  1.
          5    1    3    3  502    0  0.18910920154E+02 -0.41330052877E+02  0.57382288288E+02  0.73352663081E+02  0.47000000000E+01 0. -1.
         13    1    6    6    0    0  0.41503279741E+02 -0.23620575316E+02  0.53704737399E+02  0.71865517646E+02  0.00000000000E+00 0. -1.
        -14    1    6    6    0    0 -0.11852427457E+02 -0.43991553334E+02 -0.86369122354E+01  0.46371683755E+02  0.00000000000E+00 0.  1.
         -5    1    5    5    0  503 -0.56867647077E+02  0.16026773608E+02  0.93192607966E+02  0.11044337434E+03  0.47000000000E+01 0.  1.
<mgrwt>
<rscale>  2 0.18193923E+03</rscale>
<asrwt>0</asrwt>
<pdfrwt beam="1">  1       21 0.49192490E-01 0.18215065E+03</pdfrwt>
<pdfrwt beam="2">  1       21 0.16232635E-01 0.18215065E+03</pdfrwt>
<totfact> 0.13433591E+05</totfact>
</mgrwt>
</event>
<event>
12    1  0.1473662E-001  0.1773018E+03  0.7546771E-02  0.1170556E+00
         21   -1    0    0  504  503  0.00000000000E+00  0.00000000000E+00  0.99306510541E+03  0.99306510541E+03  0.00000000000E+00 0.  1.
         21   -1    0    0  502  504 -0.00000000000E+00 -0.00000000000E+00 -0.37690141228E+02  0.37690141228E+02  0.00000000000E+00 0.  1.
          6    2    1    2  502    0 -0.25812688316E+02 -0.97695733878E+01  0.27056634317E+03  0.32348427108E+03  0.17514048115E+03 0.  0.
         24    2    3    3    0    0  0.13094506200E+02  0.30769773653E+02  0.24805553248E+03  0.26277154555E+03  0.79994330381E+02 0.  0.
         -6    2    1    2    0  503  0.25812688316E+02  0.97695733878E+01  0.68480862101E+03  0.70727097556E+03  0.17466438106E+03 0.  0.
        -24    2    5    5    0    0 -0.28697874038E+02 -0.47276916123E+02  0.41544667884E+03  0.42655109870E+03  0.79317224290E+02 0.  0.
          4    1    4    4  501    0  0.22112722266E+02 -0.16149078450E+01  0.21318741863E+03  0.21433724799E+03  0.00000000000E+00 0. -1.
         -3    1    4    4    0  501 -0.90182160655E+01  0.32384681498E+02  0.34868113851E+02  0.48434297561E+02  0.00000000000E+00 0.  1.
          5    1    3    3  502    0 -0.38907194516E+02 -0.40539347041E+02  0.22510810692E+02  0.60712725533E+02  0.47000000000E+01 0. -1.
         13    1    6    6    0    0 -0.32637308830E+02 -0.56067334193E+02  0.41073659102E+03  0.41582843468E+03  0.00000000000E+00 0. -1.
        -14    1    6    6    0    0  0.39394347925E+01  0.87904180695E+01  0.47100878275E+01  0.10722664019E+02  0.00000000000E+00 0.  1.
         -5    1    5    5    0  503  0.54510562354E+02  0.57046489511E+02  0.26936194217E+03  0.28071987686E+03  0.47000000000E+01 0.  1.
<mgrwt>
<rscale>  2 0.17718411E+03</rscale>
<asrwt>0</asrwt>
<pdfrwt beam="1">  1       21 0.15277923E+00 0.17730180E+03</pdfrwt>
<pdfrwt beam="2">  1       21 0.57984840E-02 0.17730180E+03</pdfrwt>
<totfact> 0.60029663E+04</totfact>
</mgrwt>
</event>
<event>
12    1  0.1473662E-001  0.2362917E+03  0.7546771E-02  0.1122509E+00
         21   -1    0    0  504  503  0.00000000000E+00  0.00000000000E+00  0.51011714482E+02  0.51011714482E+02  0.00000000000E+00 0. -1.
         21   -1    0    0  502  504 -0.00000000000E+00 -0.00000000000E+00 -0.12422945192E+04  0.12422945192E+04  0.00000000000E+00 0. -1.
          6    2    1    2  502    0  0.13860806779E+02 -0.16067443214E+03 -0.82170357262E+03  0.85464626199E+03  0.17092418427E+03 0.  0.
         24    2    3    3    0    0 -0.15619914744E+02 -0.88066217768E+02 -0.25268252228E+03  0.28023516229E+03  0.81753585034E+02 0.  0.
         -6    2    1    2    0  503 -0.13860806779E+02  0.16067443214E+03 -0.36957923214E+03  0.43865997173E+03  0.17270022253E+03 0.  0.
        -24    2    5    5    0    0  0.33922253485E+02  0.15591116211E+03 -0.33425762155E+03  0.37886351896E+03  0.79689388757E+02 0.  0.
          2    1    4    4  501    0 -0.92728765657E+01 -0.98130006819E+02 -0.24896979352E+03  0.26777125044E+03  0.00000000000E+00 0. -1.
         -1    1    4    4    0  501 -0.63470381783E+01  0.10063789050E+02 -0.37127287688E+01  0.12463911850E+02  0.00000000000E+00 0.  1.
          5    1    3    3  502    0  0.29480721523E+02 -0.72608214376E+02 -0.56902105033E+03  0.57441109970E+03  0.47000000000E+01 0. -1.
         13    1    6    6    0    0  0.26021914045E+02  0.23905030445E+02 -0.27369650865E+02  0.44695506258E+02  0.00000000000E+00 0. -1.
        -14    1    6    6    0    0  0.79003394393E+01  0.13200613167E+03 -0.30688797068E+03  0.33416801270E+03  0.00000000000E+00 0.  1.
         -5    1    5    5    0  503 -0.47783060264E+02  0.47632700297E+01 -0.35321610587E+02  0.59796452771E+02  0.47000000000E+01 0.  1.
<mgrwt>
<rscale>  2 0.23596729E+03</rscale>
<asrwt>0</asrwt>
<pdfrwt beam="1">  1       21 0.78479568E-02 0.23629169E+03</pdfrwt>
<pdfrwt beam="2">  1       21 0.19112222E+00 0.23629169E+03</pdfrwt>
<totfact> 0.18452020E+04</totfact>
</mgrwt>
</event>
<event>
12    1  0.1473662E-001  0.2347683E+03  0.7546771E-02  0.1123380E+00
         21   -1    0    0  504  503  0.00000000000E+00  0.00000000000E+00  0.67530751673E+02  0.67530751673E+02  0.00000000000E+00 0.  1.
         21   -1    0    0  502  504 -0.00000000000E+00 -0.00000000000E+00 -0.98216909584E+03  0.98216909584E+03  0.00000000000E+00 0.  1.
          6    2    1    2  502    0 -0.13957044572E+03 -0.73628827013E+02 -0.67403050136E+03  0.71374593613E+03  0.17382471372E+03 0.  0.
         24    2    3    3    0    0 -0.15077925682E+03 -0.11712955925E+02 -0.46645941471E+03  0.49679649836E+03  0.79691891573E+02 0.  0.
         -6    2    1    2    0  503  0.13957044572E+03  0.73628827013E+02 -0.24060784281E+03  0.33595391138E+03  0.17341217681E+03 0.  0.
        -24    2    5    5    0    0  0.53684807134E+02  0.49535062771E+02 -0.41013191324E+02  0.11728300044E+03  0.82081906464E+02 0.  0.
          4    1    4    4  501    0 -0.14629971330E+03  0.11383285061E+02 -0.38536445161E+03  0.41235778865E+03  0.00000000000E+00 0. -1.
         -3    1    4    4    0  501 -0.44795435272E+01 -0.23096240986E+02 -0.81094963097E+02  0.84438709711E+02  0.00000000000E+00 0.  1.
          5    1    3    3  502    0  0.11208811105E+02 -0.61915871088E+02 -0.20757108665E+03  0.21694943778E+03  0.47000000000E+01 0. -1.
         13    1    6    6    0    0  0.58405059591E+02 -0.10612109093E+01 -0.28258179492E+02  0.64890691648E+02  0.00000000000E+00 0. -1.
        -14    1    6    6    0    0 -0.47202524568E+01  0.50596273680E+02 -0.12755011831E+02  0.52392308791E+02  0.00000000000E+00 0.  1.
         -5    1    5    5    0  503  0.85885638586E+02  0.24093764242E+02 -0.19959465149E+03  0.21867091094E+03  0.47000000000E+01 0.  1.
<mgrwt>
<rscale>  2 0.23469192E+03</rscale>
<asrwt>0</asrwt>
<pdfrwt beam="1">  1       21 0.10389346E-01 0.23476828E+03</pdfrwt>
<pdfrwt beam="2">  1       21 0.15110294E+00 0.23476828E+03</pdfrwt>
<totfact> 0.21657363E+04</totfact>
</mgrwt>
</event>
<event>
12    1  0.1473662E-001  0.1743846E+03  0.7546771E-02  0.1173805E+00
         21   -1    0    0  504  503  0.00000000000E+00  0.00000000000E+00  0.45605784172E+03  0.45605784172E+03  0.00000000000E+00 0.  1.
         21   -1    0    0  502  504 -0.00000000000E+00 -0.00000000000E+00 -0.66243551127E+02  0.66243551127E+02  0.00000000000E+00 0.  1.
          6    2    1    2  502    0  0.13938533176E+02  0.15705266419E+02  0.21184155155E+03  0.27438449120E+03  0.17311576459E+03 0.  0.
         24    2    3    3    0    0  0.62745311602E+02  0.22001703044E+02  0.19922042355E+03  0.22336361698E+03  0.76036038590E+02 0.  0.
         -6    2    1    2    0  503 -0.13938533176E+02 -0.15705266419E+02  0.17797273904E+03  0.24791690164E+03  0.17131128445E+03 0.  0.
        -24    2    5    5    0    0 -0.64898201467E+02  0.24707399876E+02  0.11186139789E+03  0.15505748738E+03  0.81900060384E+02 0.  0.
          2    1    4    4  501    0  0.61609907967E+02  0.12759742298E+02  0.20358099980E+03  0.21308171029E+03  0.00000000000E+00 0. -1.
         -1    1    4    4    0  501  0.11354036352E+01  0.92419607457E+01 -0.43605762467E+01  0.10281906683E+02  0.00000000000E+00 0.  1.
          5    1    3    3  502    0 -0.48806778427E+02 -0.62964366247E+01  0.12621127997E+02  0.51020874223E+02  0.47000000000E+01 0. -1.
         11    1    6    6    0    0  0.12751466255E+02  0.92354469653E+01 -0.25211777137E+01  0.15945209606E+02  0.00000000000E+00 0. -1.
        -12    1    6    6    0    0 -0.77649667723E+02  0.15471952910E+02  0.11438257561E+03  0.13911227777E+03  0.00000000000E+00 0.  1.
         -5    1    5    5    0  503  0.50959668292E+02 -0.40412666295E+02  0.66111341149E+02  0.92859414267E+02  0.47000000000E+01 0.  1.
<mgrwt>
<rscale>  2 0.17393511E+03</rscale>
<asrwt>0</asrwt>
<pdfrwt beam="1">  1       21 0.70162743E-01 0.17438465E+03</pdfrwt>
<pdfrwt beam="2">  1       21 0.10191316E-01 0.17438465E+03</pdfrwt>
<totfact> 0.14556847E+05</totfact>
</mgrwt>
</event>
<event>
12    1  0.1473662E-001  0.2415465E+03  0.7546771E-02  0.1118817E+00
         21   -1    0    0  504  503  0.00000000000E+00  0.00000000000E+00  0.18893053957E+03  0.18893053957E+03  0.00000000000E+00 0. -1.
         21   -1    0    0  502  504 -0.00000000000E+00 -0.00000000000E+00 -0.91650856287E+03  0.91650856287E+03  0.00000000000E+00 0.  1.
          6    2    1    2  502    0 -0.14489496109E+03 -0.86903711417E+02 -0.81407984627E+03  0.84915881861E+03  0.17262067757E+03 0.  0.
         24    2    3    3    0    0 -0.11662797648E+03 -0.71760673223E+02 -0.79672686399E+03  0.81239538544E+03  0.80379645197E+02 0.  0.
         -6    2    1    2    0  503  0.14489496109E+03  0.86903711417E+02  0.86501822966E+02  0.25628028382E+03  0.17219237408E+03 0.  0.
        -24    2    5    5    0    0  0.16237880311E+03  0.10138864652E+03  0.98864346355E+02  0.23000443823E+03  0.80506827559E+02 0.  0.
          4    1    4    4  501    0 -0.52237939164E+02 -0.38116036992E+02 -0.17733379218E+03  0.18875621423E+03  0.00000000000E+00 0. -1.
         -3    1    4    4    0  501 -0.64390037312E+02 -0.33644636231E+02 -0.61939307181E+03  0.62363917120E+03  0.00000000000E+00 0.  1.
          5    1    3    3  502    0 -0.28266984613E+02 -0.15143038194E+02 -0.17352982278E+02  0.36763433175E+02  0.47000000000E+01 0. -1.
         13    1    6    6    0    0  0.52539307864E+02  0.19923431072E+02 -0.75918584268E+01  0.56700602209E+02  0.00000000000E+00 0. -1.
        -14    1    6    6    0    0  0.10983949525E+03  0.81465215445E+02  0.10645620478E+03  0.17330383602E+03  0.00000000000E+00 0.  1.
         -5    1    5    5    0  503 -0.17483842025E+02 -0.14484935100E+02 -0.12362523389E+02  0.26275845588E+02  0.47000000000E+01 0.  1.
<mgrwt>
<rscale>  2 0.24146997E+03</rscale>
<asrwt>0</asrwt>
<pdfrwt beam="1">  1       21 0.29066237E-01 0.24154648E+03</pdfrwt>
<pdfrwt beam="2">  1       21 0.14100132E+00 0.24154648E+03</pdfrwt>
<totfact> 0.38299159E+03</totfact>
</mgrwt>
</event>
<event>
12    1  0.1473662E-001  0.1779628E+03  0.7546771E-02  0.1169874E+00
         21   -1    0    0  504  503  0.00000000000E+00  0.00000000000E+00  0.24630412744E+03  0.24630412744E+03  0.00000000000E+00 0. -1.
         21   -1    0    0  502  504 -0.00000000000E+00 -0.00000000000E+00 -0.14881104300E+03  0.14881104300E+03  0.00000000000E+00 0. -1.
          6    2    1    2  502    0  0.36694296343E+02 -0.15023137489E+02 -0.24574285749E+02  0.17931153645E+03  0.17313741808E+03 0.  0.
         24    2    3    3    0    0 -0.17593515284E+02 -0.34244161623E+02  0.34999257779E+02  0.96319299771E+02  0.81057171663E+02 0.  0.
         -6    2    1    2    0  503 -0.36694296343E+02  0.15023137489E+02  0.12206737018E+03  0.21580363399E+03  0.17348947961E+03 0.  0.
        -24    2    5    5    0    0  0.74536298739E+01  0.68804984493E+02  0.89787257679E+02  0.13895558834E+03  0.80356837917E+02 0.  0.
          2    1    4    4  501    0 -0.42065199641E+01 -0.58862227996E+02  0.34365942445E+02  0.68289638269E+02  0.00000000000E+00 0. -1.
         -1    1    4    4    0  501 -0.13386995320E+02  0.24618066372E+02  0.63331533365E+00  0.28029661502E+02  0.00000000000E+00 0.  1.
          5    1    3    3  502    0  0.54287811627E+02  0.19221024135E+02 -0.59573543528E+02  0.82992236677E+02  0.47000000000E+01 0. -1.
         11    1    6    6    0    0  0.14261911052E+02  0.33528269900E+02  0.95830374168E+02  0.10252320519E+03  0.00000000000E+00 0. -1.
        -12    1    6    6    0    0 -0.68082811779E+01  0.35276714593E+02 -0.60431164889E+01  0.36432383150E+02  0.00000000000E+00 0.  1.
         -5    1    5    5    0  503 -0.44147926217E+02 -0.53781847004E+02  0.32280112505E+02  0.76848045647E+02  0.47000000000E+01 0.  1.
<mgrwt>
<rscale>  2 0.17787696E+03</rscale>
<asrwt>0</asrwt>
<pdfrwt beam="1">  1       21 0.37892943E-01 0.17796282E+03</pdfrwt>
<pdfrwt beam="2">  1       21 0.22894007E-01 0.17796282E+03</pdfrwt>
<totfact> 0.12087690E+05</totfact>
</mgrwt>
</event>
<event>
12    1  0.1473662E-001  0.1963268E+03  0.7546771E-02  0.1152974E+00
         21   -1    0    0  504  503  0.00000000000E+00  0.00000000000E+00  0.33809076640E+03  0.33809076640E+03  0.00000000000E+00 0.  1.
         21   -1    0    0  502  504 -0.00000000000E+00 -0.00000000000E+00 -0.24842088484E+03  0.24842088484E+03  0.00000000000E+00 0.  1.
          6    2    1    2  502    0 -0.32404883755E+02  0.87206718597E+02 -0.17111312158E+03  0.26008864843E+03  0.17236970850E+03 0.  0.
         24    2    3    3    0    0 -0.65447038053E+02  0.50642563073E+02 -0.69376404076E+02  0.14694638790E+03  0.99660280401E+02 0.  0.
         -6    2    1    2    0  503  0.32404883755E+02 -0.87206718597E+02  0.26078300314E+03  0.32642300280E+03  0.17288468344E+03 0.  0.
        -24    2    5    5    0    0  0.34997446108E+02 -0.11716437000E+03  0.25630032613E+03  0.29565992996E+03  0.82295966947E+02 0.  0.
          2    1    4    4  501    0 -0.55833816570E+02  0.75027479491E+02 -0.27392306790E+02  0.97451917491E+02  0.00000000000E+00 0. -1.
         -1    1    4    4    0  501 -0.96132214832E+01 -0.24384916418E+02 -0.41984097287E+02  0.49494470408E+02  0.00000000000E+00 0.  1.
          5    1    3    3  502    0  0.33042154298E+02  0.36564155523E+02 -0.10173671751E+03  0.11314226053E+03  0.47000000000E+01 0. -1.
         13    1    6    6    0    0  0.22326515246E+02 -0.42215368045E+02  0.28732926020E+02  0.55733218281E+02  0.00000000000E+00 0. -1.
        -14    1    6    6    0    0  0.12670930862E+02 -0.74949001960E+02  0.22756740011E+03  0.23992671168E+03  0.00000000000E+00 0.  1.
         -5    1    5    5    0  503 -0.25925623535E+01  0.29957651408E+02  0.44826770122E+01  0.30763072842E+02  0.47000000000E+01 0.  1.
<mgrwt>
<rscale>  2 0.19621334E+03</rscale>
<asrwt>0</asrwt>
<pdfrwt beam="1">  1       21 0.52013964E-01 0.19632677E+03</pdfrwt>
<pdfrwt beam="2">  1       21 0.38218597E-01 0.19632677E+03</pdfrwt>
<totfact> 0.23113902E+04</totfact>
</mgrwt>
</event>
<event>
12    1  0.1473662E-001  0.1789602E+03  0.7546771E-02  0.1169026E+00
         21   -1    0    0  504  503  0.00000000000E+00  0.00000000000E+00  0.67702398876E+02  0.67702398876E+02  0.00000000000E+00 0. -1.
         21   -1    0    0  502  504 -0.00000000000E+00 -0.00000000000E+00 -0.70760286376E+03  0.70760286376E+03  0.00000000000E+00 0. -1.
          6    2    1    2  502    0 -0.20021610987E+02  0.35454056555E+02 -0.54474403898E+03  0.57338714273E+03  0.17426672778E+03 0.  0.
         24    2    3    3    0    0  0.77418036226E+01 -0.26346601470E+02 -0.42252007373E+03  0.43356255189E+03  0.93269473901E+02 0.  0.
         -6    2    1    2    0  503  0.20021610987E+02 -0.35454056555E+02 -0.95156425907E+02  0.20191811991E+03  0.17337337374E+03 0.  0.
        -24    2    5    5    0    0  0.67974532916E+02 -0.56765777275E+02 -0.40626680924E+02  0.12609427637E+03  0.80039669755E+02 0.  0.
          4    1    4    4  501    0  0.26131983735E+02  0.15099040726E+02 -0.32052741443E+03  0.32194515838E+03  0.00000000000E+00 0. -1.
         -3    1    4    4    0  501 -0.18390180113E+02 -0.41445642197E+02 -0.10199265930E+03  0.11161739350E+03  0.00000000000E+00 0.  1.
          5    1    3    3  502    0 -0.27763414609E+02  0.61800658025E+02 -0.12222396525E+03  0.13982459084E+03  0.47000000000E+01 0. -1.
         11    1    6    6    0    0  0.63875735103E+02 -0.74846057979E+02 -0.43040166116E+02  0.10739877946E+03  0.00000000000E+00 0. -1.
        -12    1    6    6    0    0  0.40987978131E+01  0.18080280704E+02  0.24134851923E+01  0.18695496907E+02  0.00000000000E+00 0.  1.
         -5    1    5    5    0  503 -0.47952921929E+02  0.21311720721E+02 -0.54529744983E+02  0.75823843542E+02  0.47000000000E+01 0.  1.
<mgrwt>
<rscale>  2 0.17874233E+03</rscale>
<asrwt>0</asrwt>
<pdfrwt beam="1">  1       21 0.10415754E-01 0.17896018E+03</pdfrwt>
<pdfrwt beam="2">  1       21 0.10886198E+00 0.17896018E+03</pdfrwt>
<totfact> 0.50919527E+04</totfact>
</mgrwt>
</event>
<event>
12    1  0.1473662E-001  0.2157154E+03  0.7546771E-02  0.1137364E+00
         21   -1    0    0  504  503  0.00000000000E+00  0.00000000000E+00  0.93928849239E+02  0.93928849239E+02  0.00000000000E+00 0. -1.
         21   -1    0    0  502  504 -0.00000000000E+00 -0.00000000000E+00 -0.57112409612E+03  0.57112409612E+03  0.00000000000E+00 0.  1.
          6    2    1    2  502    0  0.54950841978E+02  0.11607031357E+03 -0.11580686953E+03  0.24483538386E+03  0.17332403593E+03 0.  0.
         24    2    3    3    0    0  0.81463757973E+02  0.20710785151E+02 -0.74332718129E+02  0.13741764971E+03  0.79328286145E+02 0.  0.
         -6    2    1    2    0  503 -0.54950841978E+02 -0.11607031357E+03 -0.36138837735E+03  0.42021756150E+03  0.17172456722E+03 0.  0.
        -24    2    5    5    0    0 -0.76884839584E+02 -0.14014430349E+03 -0.28266224071E+03  0.33489141175E+03  0.81869475272E+02 0.  0.
          2    1    4    4  501    0  0.88450171013E+02  0.25685937710E+02 -0.37242865819E+02  0.99349037251E+02  0.00000000000E+00 0. -1.
         -1    1    4    4    0  501 -0.69864130398E+01 -0.49751525590E+01 -0.37089852310E+02  0.38068612459E+02  0.00000000000E+00 0.  1.
          5    1    3    3  502    0 -0.26512915995E+02  0.95359528417E+02 -0.41474151406E+02  0.10741773415E+03  0.47000000000E+01 0. -1.
         11    1    6    6    0    0  0.11711694467E+02 -0.59724521683E+01 -0.50563930394E+01  0.14085491925E+02  0.00000000000E+00 0. -1.
        -12    1    6    6    0    0 -0.88596534051E+02 -0.13417185132E+03 -0.27760584767E+03  0.32080591982E+03  0.00000000000E+00 0.  1.
         -5    1    5    5    0  503  0.21933997606E+02  0.24073989924E+02 -0.78726136641E+02  0.85326149756E+02  0.47000000000E+01 0.  1.
<mgrwt>
<rscale>  2 0.21539392E+03</rscale>
<asrwt>0</asrwt>
<pdfrwt beam="1">  1       21 0.14450593E-01 0.21571540E+03</pdfrwt>
<pdfrwt beam="2">  1       21 0.87865243E-01 0.21571540E+03</pdfrwt>
<totfact> 0.46081026E+04</totfact>
</mgrwt>
</event>
<event>
12    1  0.1473662E-001  0.2443573E+03  0.7546771E-02  0.1117012E+00
         21   -1    0    0  504  503  0.00000000000E+00  0.00000000000E+00  0.39920509674E+03  0.39920509674E+03  0.00000000000E+00 0.  1.
         21   -1    0    0  502  504 -0.00000000000E+00 -0.00000000000E+00 -0.20327506822E+03  0.20327506822E+03  0.00000000000E+00 0.  1.
          6    2    1    2  502    0 -0.17008860887E+03  0.23281466550E+02 -0.57264697458E+02  0.25097760427E+03  0.17389177874E+03 0.  0.
         24    2    3    3    0    0 -0.13663683176E+02 -0.16228494267E+02 -0.25039126863E+01  0.80535156701E+02  0.77650380695E+02 0.  0.
         -6    2    1    2    0  503  0.17008860887E+03 -0.23281466550E+02  0.25319472598E+03  0.35150256070E+03  0.17313093127E+03 0.  0.
        -24    2    5    5    0    0  0.63522305239E+02  0.45556925975E+02  0.90080751230E+02  0.14480626147E+03  0.82120611620E+02 0.  0.
          4    1    4    4  501    0 -0.17229809320E+02 -0.46510905382E+02 -0.54658839800E+01  0.49899965294E+02  0.00000000000E+00 0. -1.
         -3    1    4    4    0  501  0.35661261443E+01  0.30282411115E+02  0.29619712936E+01  0.30635191407E+02  0.00000000000E+00 0.  1.
          5    1    3    3  502    0 -0.15642492570E+03  0.39509960817E+02 -0.54760784772E+02  0.17044244756E+03  0.47000000000E+01 0. -1.
         11    1    6    6    0    0  0.60730783538E+02  0.63865938608E+02  0.90443816775E+02  0.12628210553E+03  0.00000000000E+00 0. -1.
        -12    1    6    6    0    0  0.27915217012E+01 -0.18309012633E+02 -0.36306554491E+00  0.18524155948E+02  0.00000000000E+00 0.  1.
         -5    1    5    5    0  503  0.10656630363E+03 -0.68838392525E+02  0.16311397475E+03  0.20669629922E+03  0.47000000000E+01 0.  1.
<mgrwt>
<rscale>  2 0.24422202E+03</rscale>
<asrwt>0</asrwt>
<pdfrwt beam="1">  1       21 0.61416169E-01 0.24435735E+03</pdfrwt>
<pdfrwt beam="2">  1       21 0.31273088E-01 0.24435735E+03</pdfrwt>
<totfact> 0.23551695E+04</totfact>
</mgrwt>
</event>
<event>
12    1  0.1473662E-001  0.2286615E+03  0.7546771E-02  0.1127653E+00
         21   -1    0    0  504  503  0.00000000000E+00  0.00000000000E+00  0.10990646772E+04  0.10990646772E+04  0.00000000000E+00 0.  1.
         21   -1    0    0  502  504 -0.00000000000E+00 -0.00000000000E+00 -0.69015988009E+02  0.69015988009E+02  0.00000000000E+00 0.  1.
          6    2    1    2  502    0  0.95562764089E+02  0.11646156982E+03  0.84145649337E+03  0.87197195851E+03  0.17201897297E+03 0.  0.
         24    2    3    3    0    0  0.88904322638E+01  0.43108906434E+02  0.57584698130E+03  0.58307195983E+03  0.80223106863E+02 0.  0.
         -6    2    1    2    0  503 -0.95562764089E+02 -0.11646156982E+03  0.18859219583E+03  0.29610870671E+03  0.17151621130E+03 0.  0.
        -24    2    5    5    0    0 -0.82920777493E+02 -0.10275311986E+03  0.21398292331E+03  0.26425716879E+03  0.81296376360E+02 0.  0.
          4    1    4    4  501    0  0.29090073081E+02 -0.12752442936E+02  0.22525827822E+03  0.22748659095E+03  0.00000000000E+00 0. -1.
         -3    1    4    4    0  501 -0.20199640817E+02  0.55861349370E+02  0.35058870308E+03  0.35558536889E+03  0.00000000000E+00 0.  1.
          5    1    3    3  502    0  0.86672331825E+02  0.73352663381E+02  0.26560951208E+03  0.28889999867E+03  0.47000000000E+01 0. -1.
         11    1    6    6    0    0  0.12663277202E+02  0.24528022859E+01  0.18904554520E+02  0.22885738139E+02  0.00000000000E+00 0. -1.
        -12    1    6    6    0    0 -0.95584054695E+02 -0.10520592215E+03  0.19507836879E+03  0.24137143066E+03  0.00000000000E+00 0.  1.
         -5    1    5    5    0  503 -0.12641986596E+02 -0.13708449955E+02 -0.25390727486E+02  0.31851537915E+02  0.47000000000E+01 0.  1.
<mgrwt>
<rscale>  2 0.22856691E+03</rscale>
<asrwt>0</asrwt>
<pdfrwt beam="1">  1       21 0.16908686E+00 0.22866147E+03</pdfrwt>
<pdfrwt beam="2">  1       21 0.10617845E-01 0.22866147E+03</pdfrwt>
<totfact> 0.15411635E+04</totfact>
</mgrwt>
</event>
<event>
12    1  0.1473662E-001  0.2683786E+03  0.7546771E-02  0.1102213E+00
         21   -1    0    0  504  503  0.00000000000E+00  0.00000000000E+00  0.10595410114E+03  0.10595410114E+03  0.00000000000E+00 0. -1.
         21   -1    0    0  502  504 -0.00000000000E+00 -0.00000000000E+00 -0.13873838929E+04  0.13873838929E+04  0.00000000000E+00 0.  1.
          6    2    1    2  502    0 -0.25602382335E+02 -0.20352989224E+03 -0.11739559694E+04  0.12042399506E+04  0.17303566503E+03 0.  0.
         24    2    3    3    0    0 -0.26660786222E+01 -0.95836698535E+02 -0.36371549966E+03  0.38653853388E+03  0.89057805510E+02 0.  0.
         -6    2    1    2    0  503  0.25602382335E+02  0.20352989224E+03 -0.10747382233E+03  0.28909804347E+03  0.17305246961E+03 0.  0.
        -24    2    5    5    0    0  0.37105779212E+01  0.20104162603E+03 -0.43674056402E+02  0.22143754760E+03  0.81827015721E+02 0.  0.
          4    1    4    4  501    0 -0.42638547639E+01 -0.71064466846E+02 -0.10635304552E+03  0.12798167524E+03  0.00000000000E+00 0. -1.
         -3    1    4    4    0  501  0.15977761417E+01 -0.24772231690E+02 -0.25736245413E+03  0.25855685864E+03  0.00000000000E+00 0.  1.
          5    1    3    3  502    0 -0.22936303713E+02 -0.10769319370E+03 -0.81024046978E+03  0.81770141669E+03  0.47000000000E+01 0. -1.
         11    1    6    6    0    0  0.32918893940E+02  0.40569267966E+02  0.12341896281E+01  0.52259375288E+02  0.00000000000E+00 0. -1.
        -12    1    6    6    0    0 -0.29208316018E+02  0.16047235806E+03 -0.44908246030E+02  0.16917817231E+03  0.00000000000E+00 0.  1.
         -5    1    5    5    0  503  0.21891804414E+02  0.24882662106E+01 -0.63799765926E+02  0.67660495870E+02  0.47000000000E+01 0.  1.
<mgrwt>
<rscale>  2 0.26837586E+03</rscale>
<asrwt>0</asrwt>
<pdfrwt beam="1">  1       21 0.16300631E-01 0.26837857E+03</pdfrwt>
<pdfrwt beam="2">  1       21 0.21344367E+00 0.26837857E+03</pdfrwt>
<totfact> 0.34882010E+03</totfact>
</mgrwt>
</event>
<event>
12    1  0.1473662E-001  0.1904257E+03  0.7546771E-02  0.1158349E+00
         21   -1    0    0  504  503  0.00000000000E+00  0.00000000000E+00  0.21659530372E+03  0.21659530372E+03  0.00000000000E+00 0.  1.
         21   -1    0    0  502  504 -0.00000000000E+00 -0.00000000000E+00 -0.34467377014E+03  0.34467377014E+03  0.00000000000E+00 0.  1.
          6    2    1    2  502    0 -0.75153595563E+02  0.18740135948E+02 -0.26578958156E+03  0.32626630003E+03  0.17264513098E+03 0.  0.
         24    2    3    3    0    0 -0.47195260458E+02  0.54765761356E+02 -0.25608257240E+03  0.27940661358E+03  0.85223767779E+02 0.  0.
         -6    2    1    2    0  503  0.75153595563E+02 -0.18740135948E+02  0.13771111513E+03  0.23500277383E+03  0.17396176838E+03 0.  0.
        -24    2    5    5    0    0  0.78427494839E+01 -0.19346015675E+02  0.14491754667E+03  0.16714159387E+03  0.80619104603E+02 0.  0.
          2    1    4    4  501    0 -0.41585049954E+01  0.51381973934E+01 -0.17468121497E+03  0.17480623873E+03  0.00000000000E+00 0. -1.
         -1    1    4    4    0  501 -0.43036755463E+02  0.49627563962E+02 -0.81401357437E+02  0.10460037485E+03  0.00000000000E+00 0.  1.
          5    1    3    3  502    0 -0.27958335105E+02 -0.36025625408E+02 -0.97070091524E+01  0.46859686454E+02  0.47000000000E+01 0. -1.
         13    1    6    6    0    0  0.51059498126E+01  0.30237976650E+02  0.35044840326E+02  0.46567658186E+02  0.00000000000E+00 0. -1.
        -14    1    6    6    0    0  0.27367996714E+01 -0.49583992326E+02  0.10987270634E+03  0.12057393568E+03  0.00000000000E+00 0.  1.
         -5    1    5    5    0  503  0.67310846079E+02  0.60587972765E+00 -0.72064315425E+01  0.67861179961E+02  0.47000000000E+01 0.  1.
<mgrwt>
<rscale>  2 0.19012449E+03</rscale>
<asrwt>0</asrwt>
<pdfrwt beam="1">  1       21 0.33322355E-01 0.19042571E+03</pdfrwt>
<pdfrwt beam="2">  1       21 0.53026733E-01 0.19042571E+03</pdfrwt>
<totfact> 0.29255508E+04</totfact>
</mgrwt>
</event>
<event>
12    1  0.1473662E-001  0.1763554E+03  0.7546771E-02  0.1171403E+00
         21   -1    0    0  504  503  0.00000000000E+00  0.00000000000E+00  0.15356447119E+03  0.15356447119E+03  0.00000000000E+00 0.  1.
         21   -1    0    0  502  504 -0.00000000000E+00 -0.00000000000E+00 -0.20485633117E+03  0.20485633117E+03  0.00000000000E+00 0.  1.
          6    2    1    2  502    0  0.13631264344E+02 -0.32408638359E+02 -0.60630011000E+01  0.17635800051E+03  0.17271147372E+03 0.  0.
         24    2    3    3    0    0 -0.54699545833E+02 -0.24748727570E+02 -0.28466550102E+02  0.10388881492E+03  0.79862391400E+02 0.  0.
         -6    2    1    2    0  503 -0.13631264344E+02  0.32408638359E+02 -0.45228858873E+02  0.18206280185E+03  0.17281516986E+03 0.  0.
        -24    2    5    5    0    0 -0.58934628234E+02  0.16236553604E+02  0.18521445949E+02  0.10206203641E+03  0.79603387105E+02 0.  0.
          4    1    4    4  501    0  0.81953803117E+01 -0.34086606447E+02 -0.18134477941E+02  0.39470498955E+02  0.00000000000E+00 0. -1.
         -3    1    4    4    0  501 -0.62894926145E+02  0.93378788775E+01 -0.10332072161E+02  0.64418315966E+02  0.00000000000E+00 0.  1.
          5    1    3    3  502    0  0.68330810178E+02 -0.76599107890E+01  0.22403549002E+02  0.72469185594E+02  0.47000000000E+01 0. -1.
         11    1    6    6    0    0  0.45530281874E+01 -0.25217240053E+01  0.33736163657E+02  0.34135288133E+02  0.00000000000E+00 0. -1.
        -12    1    6    6    0    0 -0.63487656422E+02  0.18758277609E+02 -0.15214717709E+02  0.67926748279E+02  0.00000000000E+00 0.  1.
         -5    1    5    5    0  503  0.45303363890E+02  0.16172084755E+02 -0.63750304822E+02  0.80000765433E+02  0.47000000000E+01 0.  1.
<mgrwt>
<rscale>  2 0.17632995E+03</rscale>
<asrwt>0</asrwt>
<pdfrwt beam="1">  1       21 0.23625303E-01 0.17635536E+03</pdfrwt>
<pdfrwt beam="2">  1       21 0.31516358E-01 0.17635536E+03</pdfrwt>
<totfact> 0.16406768E+05</totfact>
</mgrwt>
</event>
<event>
12    1  0.1473662E-001  0.2163601E+03  0.7546771E-02  0.1136723E+00
         21   -1    0    0  504  503  0.00000000000E+00  0.00000000000E+00  0.35459113991E+03  0.35459113991E+03  0.00000000000E+00 0. -1.
         21   -1    0    0  502  504 -0.00000000000E+00 -0.00000000000E+00 -0.13206669995E+03  0.13206669995E+03  0.00000000000E+00 0. -1.
          6    2    1    2  502    0  0.18049634278E+02  0.12811242663E+03  0.98441456221E+02  0.23724195753E+03  0.17278438285E+03 0.  0.
         24    2    3    3    0    0  0.29834683085E+02  0.38270660563E+01  0.66587628083E+02  0.10831370386E+03  0.79957435434E+02 0.  0.
         -6    2    1    2    0  503 -0.18049634278E+02 -0.12811242663E+03  0.12408298374E+03  0.24941588232E+03  0.17341600948E+03 0.  0.
        -24    2    5    5    0    0 -0.11181332928E+02 -0.22464589187E+02  0.11589199405E+03  0.14312467181E+03  0.80150093085E+02 0.  0.
          4    1    4    4  501    0  0.40457986808E+02  0.19191506363E+02  0.75373125711E+02  0.87671378981E+02  0.00000000000E+00 0. -1.
         -3    1    4    4    0  501 -0.10623303722E+02 -0.15364440307E+02 -0.87854976281E+01  0.20642324881E+02  0.00000000000E+00 0.  1.
          5    1    3    3  502    0 -0.11785048807E+02  0.12428536057E+03  0.31853828138E+02  0.12892825367E+03  0.47000000000E+01 0. -1.
         13    1    6    6    0    0  0.32402436640E+02  0.40632017520E+01  0.39346259952E+02  0.51132726124E+02  0.00000000000E+00 0. -1.
        -14    1    6    6    0    0 -0.43583769568E+02 -0.26527790939E+02  0.76545734103E+02  0.91991945687E+02  0.00000000000E+00 0.  1.
         -5    1    5    5    0  503 -0.68683013498E+01 -0.10564783744E+03  0.81909896842E+01  0.10629121051E+03  0.47000000000E+01 0.  1.
<mgrwt>
<rscale>  2 0.21623351E+03</rscale>
<asrwt>0</asrwt>
<pdfrwt beam="1">  1       21 0.54552483E-01 0.21636011E+03</pdfrwt>
<pdfrwt beam="2">  1       21 0.20317954E-01 0.21636011E+03</pdfrwt>
<totfact> 0.70389710E+04</totfact>
</mgrwt>
</event>
<event>
12    1  0.1473662E-001  0.1860053E+03  0.7546771E-02  0.1162527E+00
         21   -1    0    0  504  503  0.00000000000E+00  0.00000000000E+00  0.99322623195E+02  0.99322623195E+02  0.00000000000E+00 0. -1.
         21   -1    0    0  502  504 -0.00000000000E+00 -0.00000000000E+00 -0.42946350058E+03  0.42946350058E+03  0.00000000000E+00 0. -1.
          6    2    1    2  502    0 -0.60164348483E+02  0.30830221115E+02 -0.28166493027E+03  0.33656781025E+03  0.17138409082E+03 0.  0.
         24    2    3    3    0    0 -0.69205928509E+02 -0.58994801612E+00 -0.28430926336E+03  0.30343082645E+03  0.80303802075E+02 0.  0.
         -6    2    1    2    0  503  0.60164348483E+02 -0.30830221115E+02 -0.48475947106E+02  0.19221831352E+03  0.17328505776E+03 0.  0.
        -24    2    5    5    0    0  0.22891639793E+02 -0.85074347056E+02 -0.48239606255E+02  0.12623478627E+03  0.76462343367E+02 0.  0.
          2    1    4    4  501    0 -0.76713812012E+02  0.45707838275E+01 -0.14750787295E+03  0.16632640680E+03  0.00000000000E+00 0. -1.
         -1    1    4    4    0  501  0.75078835027E+01 -0.51607318437E+01 -0.13680139042E+03  0.13710441965E+03  0.00000000000E+00 0.  1.
          5    1    3    3  502    0  0.90415800263E+01  0.31420169132E+02  0.26443330870E+01  0.33136983796E+02  0.47000000000E+01 0. -1.
         13    1    6    6    0    0  0.18010725714E+02  0.70026572532E+01 -0.24157485512E+02  0.30935538715E+02  0.00000000000E+00 0. -1.
        -14    1    6    6    0    0  0.48809140789E+01 -0.92077004309E+02 -0.24082120744E+02  0.95299247553E+02  0.00000000000E+00 0.  1.
         -5    1    5    5    0  503  0.37272708690E+02  0.54244125940E+02 -0.23634085017E+00  0.65983527256E+02  0.47000000000E+01 0.  1.
<mgrwt>
<rscale>  2 0.18556127E+03</rscale>
<asrwt>0</asrwt>
<pdfrwt beam="1">  1       21 0.15280404E-01 0.18600528E+03</pdfrwt>
<pdfrwt beam="2">  1       21 0.66071307E-01 0.18600528E+03</pdfrwt>
<totfact> 0.79986420E+04</totfact>
</mgrwt>
</event>
<event>
12    1  0.1473662E-001  0.1873922E+03  0.7546771E-02  0.1160918E+00
         21   -1    0    0  504  503  0.00000000000E+00  0.00000000000E+00  0.26706363027E+03  0.26706363027E+03  0.00000000000E+00 0.  1.
         21   -1    0    0  502  504 -0.00000000000E+00 -0.00000000000E+00 -0.18740342048E+03  0.18740342048E+03  0.00000000000E+00 0.  1.
          6    2    1    2  502    0 -0.70958285368E+02  0.29495592470E+01 -0.84600897715E+02  0.20527327871E+03  0.17302031354E+03 0.  0.
         24    2    3    3    0    0 -0.99387521311E+02 -0.35085311304E+02 -0.84414205317E+02  0.15755538177E+03  0.81173159384E+02 0.  0.
         -6    2    1    2    0  503  0.70958285368E+02 -0.29495592470E+01  0.16426110751E+03  0.24919377204E+03  0.17341293615E+03 0.  0.
        -24    2    5    5    0    0 -0.33700758875E+01  0.21351687418E+02  0.14789481225E+03  0.16916126929E+03  0.79217470115E+02 0.  0.
          4    1    4    4  501    0 -0.72380735288E+02 -0.53852593938E+02 -0.85986523663E+02  0.12463047367E+03  0.00000000000E+00 0. -1.
         -3    1    4    4    0  501 -0.27006786024E+02  0.18767282634E+02  0.15723183459E+01  0.32924908106E+02  0.00000000000E+00 0.  1.
          5    1    3    3  502    0  0.28429235943E+02  0.38034870551E+02 -0.18669239802E+00  0.47717896938E+02  0.47000000000E+01 0. -1.
         11    1    6    6    0    0 -0.32674958057E+02 -0.10271054674E+02  0.38246757561E+02  0.51341619687E+02  0.00000000000E+00 0. -1.
        -12    1    6    6    0    0  0.29304882170E+02  0.31622742091E+02  0.10964805469E+03  0.11781964960E+03  0.00000000000E+00 0.  1.
         -5    1    5    5    0  503  0.74328361256E+02 -0.24301246664E+02  0.16366295260E+02  0.80032502753E+02  0.47000000000E+01 0.  1.
<mgrwt>
<rscale>  2 0.18730128E+03</rscale>
<asrwt>0</asrwt>
<pdfrwt beam="1">  1       21 0.41086712E-01 0.18739217E+03</pdfrwt>
<pdfrwt beam="2">  1       21 0.28831295E-01 0.18739217E+03</pdfrwt>
<totfact> 0.65830970E+04</totfact>
</mgrwt>
</event>
<event>
12    1  0.1473662E-001  0.2344312E+03  0.7546771E-02  0.1123604E+00
         21   -1    0    0  504  503  0.00000000000E+00  0.00000000000E+00  0.55028594298E+03  0.55028594298E+03  0.00000000000E+00 0.  1.
         21   -1    0    0  502  504 -0.00000000000E+00 -0.00000000000E+00 -0.39546027640E+03  0.39546027640E+03  0.00000000000E+00 0.  1.
          6    2    1    2  502    0  0.13089638683E+03  0.88030892107E+02 -0.33149874077E+03  0.40586715178E+03  0.17307058593E+03 0.  0.
         24    2    3    3    0    0  0.12381201332E+03  0.12576878439E+03 -0.29240804088E+03  0.35087160942E+03  0.80381727749E+02 0.  0.
         -6    2    1    2    0  503 -0.13089638683E+03 -0.88030892107E+02  0.48632440735E+03  0.53987906760E+03  0.17342051897E+03 0.  0.
        -24    2    5    5    0    0  0.26928632700E+00 -0.57411100910E+02  0.22523530041E+03  0.24605664301E+03  0.80726848062E+02 0.  0.
          4    1    4    4  501    0  0.43349469462E+02  0.46758049656E+02 -0.42301260164E+02  0.76517241990E+02  0.00000000000E+00 0. -1.
         -3    1    4    4    0  501  0.80462543862E+02  0.79010734732E+02 -0.25010678072E+03  0.27435436743E+03  0.00000000000E+00 0.  1.
          5    1    3    3  502    0  0.70843735044E+01 -0.37737892281E+02 -0.39090699885E+02  0.54995542358E+02  0.47000000000E+01 0. -1.
         13    1    6    6    0    0 -0.31653761976E+02 -0.43625920383E+02  0.78268567262E+02  0.95032363949E+02  0.00000000000E+00 0. -1.
        -14    1    6    6    0    0  0.31923048303E+02 -0.13785180527E+02  0.14696673315E+03  0.15102427906E+03  0.00000000000E+00 0.  1.
         -5    1    5    5    0  503 -0.13116567316E+03 -0.30619791197E+02  0.26108910694E+03  0.29382242459E+03  0.47000000000E+01 0.  1.
<mgrwt>
<rscale>  2 0.23436647E+03</rscale>
<asrwt>0</asrwt>
<pdfrwt beam="1">  1       21 0.84659376E-01 0.23443118E+03</pdfrwt>
<pdfrwt beam="2">  1       21 0.60840042E-01 0.23443118E+03</pdfrwt>
<totfact> 0.29418594E+03</totfact>
</mgrwt>
</event>
<event>
12    1  0.1473662E-001  0.1812002E+03  0.7546771E-02  0.1166769E+00
         21   -1    0    0  504  503  0.00000000000E+00  0.00000000000E+00  0.81662268254E+02  0.81662268254E+02  0.00000000000E+00 0.  1.
         21   -1    0    0  502  504 -0.00000000000E+00 -0.00000000000E+00 -0.43688596244E+03  0.43688596244E+03  0.00000000000E+00 0. -1.
          6    2    1    2  502    0  0.27935310067E+02 -0.44839824902E+02 -0.25222332353E+03  0.31056421444E+03  0.17332782498E+03 0.  0.
         24    2    3    3    0    0 -0.31655003210E+02  0.11789874440E+02 -0.18058153403E+03  0.20141952017E+03  0.82577795476E+02 0.  0.
         -6    2    1    2    0  503 -0.27935310067E+02  0.44839824902E+02 -0.10300037066E+03  0.20798401626E+03  0.17279260174E+03 0.  0.
        -24    2    5    5    0    0 -0.51172009052E+01  0.85202404687E+02 -0.11049747153E+03  0.16078125708E+03  0.79720047063E+02 0.  0.
          4    1    4    4  501    0 -0.55946750119E+02 -0.43795621636E+01 -0.14450117568E+03  0.15501551273E+03  0.00000000000E+00 0. -1.
         -3    1    4    4    0  501  0.24291746910E+02  0.16169436603E+02 -0.36080358347E+02  0.46404007439E+02  0.00000000000E+00 0.  1.
          5    1    3    3  502    0  0.59590313277E+02 -0.56629699342E+02 -0.71641789499E+02  0.10914469427E+03  0.47000000000E+01 0. -1.
         11    1    6    6    0    0  0.25257802214E+02  0.29068737551E+02 -0.82580285340E+02  0.91117789714E+02  0.00000000000E+00 0. -1.
        -12    1    6    6    0    0 -0.30375003119E+02  0.56133667137E+02 -0.27917186193E+02  0.69663467367E+02  0.00000000000E+00 0.  1.
         -5    1    5    5    0  503 -0.22818109162E+02 -0.40362579785E+02  0.74971008724E+01  0.47202759179E+02  0.47000000000E+01 0.  1.
<mgrwt>
<rscale>  2 0.18107213E+03</rscale>
<asrwt>0</asrwt>
<pdfrwt beam="1">  1       21 0.12563426E-01 0.18120024E+03</pdfrwt>
<pdfrwt beam="2">  1       21 0.67213223E-01 0.18120024E+03</pdfrwt>
<totfact> 0.10996842E+05</totfact>
</mgrwt>
</event>
<event>
12    1  0.1473662E-001  0.2828656E+03  0.7546771E-02  0.1094211E+00
         21   -1    0    0  504  503  0.00000000000E+00  0.00000000000E+00  0.92486782127E+03  0.92486782127E+03  0.00000000000E+00 0.  1.
         21   -1    0    0  502  504 -0.00000000000E+00 -0.00000000000E+00 -0.99457857773E+02  0.99457857773E+02  0.00000000000E+00 0. -1.
          6    2    1    2  502    0  0.13776884578E+03 -0.17614362769E+03  0.22705662615E+03  0.36272260383E+03  0.17322281433E+03 0.  0.
         24    2    3    3    0    0  0.15042417864E+03 -0.12180421287E+03  0.11978664684E+03  0.24171901746E+03  0.81335987386E+02 0.  0.
         -6    2    1    2    0  503 -0.13776884578E+03  0.17614362769E+03  0.59835333734E+03  0.66160307522E+03  0.17229358777E+03 0.  0.
        -24    2    5    5    0    0 -0.41103090555E+02  0.13395638846E+03  0.45815425887E+03  0.48609836591E+03  0.82173708397E+02 0.  0.
          2    1    4    4  501    0  0.12364635786E+03 -0.13161875488E+03  0.11056049859E+03  0.21174404902E+03  0.00000000000E+00 0. -1.
         -1    1    4    4    0  501  0.26777820788E+02  0.98145420112E+01  0.92261482567E+01  0.29974968435E+02  0.00000000000E+00 0.  1.
          5    1    3    3  502    0 -0.12655332870E+02 -0.54339414816E+02  0.10726997931E+03  0.12100358637E+03  0.47000000000E+01 0. -1.
         13    1    6    6    0    0 -0.16938414577E+02  0.69652257484E+02  0.11044252608E+03  0.13166585900E+03  0.00000000000E+00 0. -1.
        -14    1    6    6    0    0 -0.24164675979E+02  0.64304130978E+02  0.34771173280E+03  0.35443250691E+03  0.00000000000E+00 0.  1.
         -5    1    5    5    0  503 -0.96665755220E+02  0.42187239227E+02  0.14019907847E+03  0.17550470931E+03  0.47000000000E+01 0.  1.
<mgrwt>
<rscale>  2 0.28272352E+03</rscale>
<asrwt>0</asrwt>
<pdfrwt beam="1">  1       21 0.14228735E+00 0.28286565E+03</pdfrwt>
<pdfrwt beam="2">  1       21 0.15301210E-01 0.28286565E+03</pdfrwt>
<totfact> 0.12285463E+04</totfact>
</mgrwt>
</event>
<event>
12    1  0.1473662E-001  0.1911673E+03  0.7546771E-02  0.1157626E+00
         21   -1    0    0  504  503  0.00000000000E+00  0.00000000000E+00  0.38891252133E+03  0.38891252133E+03  0.00000000000E+00 0.  1.
         21   -1    0    0  502  504 -0.00000000000E+00 -0.00000000000E+00 -0.10359558315E+03  0.10359558315E+03  0.00000000000E+00 0.  1.
          6    2    1    2  502    0  0.45238332372E+02 -0.65322920554E+02  0.21921279290E+03  0.29023428502E+03  0.17282390160E+03 0.  0.
         24    2    3    3    0    0  0.41352022800E+02  0.14609477894E-01  0.19762865637E+03  0.22115417802E+03  0.90233556033E+02 0.  0.
         -6    2    1    2    0  503 -0.45238332372E+02  0.65322920554E+02  0.66104145282E+02  0.20227381946E+03  0.17387164619E+03 0.  0.
        -24    2    5    5    0    0 -0.22395380989E+02  0.40912979203E+02  0.11264518969E+03  0.14477769368E+03  0.78078273989E+02 0.  0.
          4    1    4    4  501    0 -0.25821244296E+02  0.15444825341E+02  0.53073097904E+02  0.61008466690E+02  0.00000000000E+00 0. -1.
         -3    1    4    4    0  501  0.67173267097E+02 -0.15430215863E+02  0.14455555847E+03  0.16014571133E+03  0.00000000000E+00 0.  1.
          5    1    3    3  502    0  0.38863095715E+01 -0.65337530032E+02  0.21584136526E+02  0.69080106995E+02  0.47000000000E+01 0. -1.
         13    1    6    6    0    0 -0.46389406081E+02  0.39045262781E+01  0.52067920623E+02  0.69844761292E+02  0.00000000000E+00 0. -1.
        -14    1    6    6    0    0  0.23994025092E+02  0.37008452925E+02  0.60577269072E+02  0.74932932388E+02  0.00000000000E+00 0.  1.
         -5    1    5    5    0  503 -0.22842951383E+02  0.24409941352E+02 -0.46541044412E+02  0.57496125780E+02  0.47000000000E+01 0.  1.
<mgrwt>
<rscale>  2 0.19092875E+03</rscale>
<asrwt>0</asrwt>
<pdfrwt beam="1">  1       21 0.59832695E-01 0.19116731E+03</pdfrwt>
<pdfrwt beam="2">  1       21 0.15937782E-01 0.19116731E+03</pdfrwt>
<totfact> 0.91601183E+04</totfact>
</mgrwt>
</event>
<event>
12    1  0.1473662E-001  0.2299604E+03  0.7546771E-02  0.1126898E+00
         21   -1    0    0  504  503  0.00000000000E+00  0.00000000000E+00  0.76026371492E+03  0.76026371492E+03  0.00000000000E+00 0. -1.
         21   -1    0    0  502  504 -0.00000000000E+00 -0.00000000000E+00 -0.10652049196E+03  0.10652049196E+03  0.00000000000E+00 0.  1.
          6    2    1    2  502    0 -0.10552221788E+03  0.10853822192E+03  0.69613785383E+02  0.23901914391E+03  0.17137265814E+03 0.  0.
         24    2    3    3    0    0 -0.11205016537E+03  0.82165028725E+02 -0.23604904553E+00  0.16392421208E+03  0.86975629241E+02 0.  0.
         -6    2    1    2    0  503  0.10552221788E+03 -0.10853822192E+03  0.58412943758E+03  0.62776506296E+03  0.17310774202E+03 0.  0.
        -24    2    5    5    0    0  0.80437644494E+02 -0.13055431480E+02  0.42644840438E+03  0.44166939584E+03  0.81073760740E+02 0.  0.
          2    1    4    4  501    0 -0.53905231597E+02 -0.10055448178E+02  0.21578743404E+01  0.54877522296E+02  0.00000000000E+00 0. -1.
         -1    1    4    4    0  501 -0.58144933772E+02  0.92220476903E+02 -0.23939233859E+01  0.10904668978E+03  0.00000000000E+00 0.  1.
          5    1    3    3  502    0  0.65279474921E+01  0.26373193191E+02  0.69849834428E+02  0.75094931835E+02  0.47000000000E+01 0. -1.
         13    1    6    6    0    0  0.73161417393E+02 -0.19678865625E+02  0.42502859672E+03  0.43172810747E+03  0.00000000000E+00 0. -1.
        -14    1    6    6    0    0  0.72762271014E+01  0.66234341450E+01  0.14198076588E+01  0.99412883718E+01  0.00000000000E+00 0.  1.
         -5    1    5    5    0  503  0.25084573383E+02 -0.95482790436E+02  0.15768103320E+03  0.18609566712E+03  0.47000000000E+01 0.  1.
<mgrwt>
<rscale>  2 0.22963386E+03</rscale>
<asrwt>0</asrwt>
<pdfrwt beam="1">  1       21 0.11696365E+00 0.22996038E+03</pdfrwt>
<pdfrwt beam="2">  1       21 0.16387768E-01 0.22996038E+03</pdfrwt>
<totfact> 0.18347408E+04</totfact>
</mgrwt>
</event>
<event>
12    1  0.1473662E-001  0.1823762E+03  0.7546771E-02  0.1165556E+00
         21   -1    0    0  504  503  0.00000000000E+00  0.00000000000E+00  0.41452528775E+03  0.41452528775E+03  0.00000000000E+00 0.  1.
         21   -1    0    0  502  504 -0.00000000000E+00 -0.00000000000E+00 -0.80697254187E+02  0.80697254187E+02  0.00000000000E+00 0. -1.
          6    2    1    2  502    0 -0.58527579355E+02  0.42233517996E+01  0.18685812293E+03  0.26110731351E+03  0.17267818860E+03 0.  0.
         24    2    3    3    0    0 -0.32129056478E+02 -0.50234142628E+02  0.46782690471E+02  0.10844521118E+03  0.77562867045E+02 0.  0.
         -6    2    1    2    0  503  0.58527579355E+02 -0.42233517996E+01  0.14696991063E+03  0.23411522843E+03  0.17252962443E+03 0.  0.
        -24    2    5    5    0    0  0.23449859183E+02 -0.68503095658E+02  0.95294271785E+02  0.14436672664E+03  0.80735268097E+02 0.  0.
          2    1    4    4  501    0 -0.29643363372E+02  0.12452000824E+01 -0.10422521049E+02  0.31446914957E+02  0.00000000000E+00 0. -1.
         -1    1    4    4    0  501 -0.24856931058E+01 -0.51479342711E+02  0.57205211520E+02  0.76998296222E+02  0.00000000000E+00 0.  1.
          5    1    3    3  502    0 -0.26398522877E+02  0.54457494428E+02  0.14007543246E+03  0.15266210233E+03  0.47000000000E+01 0. -1.
         13    1    6    6    0    0  0.13778014615E+02 -0.62199799881E+02  0.17981180497E+02  0.66196462474E+02  0.00000000000E+00 0. -1.
        -14    1    6    6    0    0  0.96718445672E+01 -0.63032957771E+01  0.77313091288E+02  0.78170264165E+02  0.00000000000E+00 0.  1.
         -5    1    5    5    0  503  0.35077720173E+02  0.64279743858E+02  0.51675638847E+02  0.89748501789E+02  0.47000000000E+01 0.  1.
<mgrwt>
<rscale>  2 0.18234101E+03</rscale>
<asrwt>0</asrwt>
<pdfrwt beam="1">  1       21 0.63773120E-01 0.18237618E+03</pdfrwt>
<pdfrwt beam="2">  1       21 0.12414962E-01 0.18237618E+03</pdfrwt>
<totfact> 0.12588508E+05</totfact>
</mgrwt>
</event>
<event>
12    1  0.1473662E-001  0.2031356E+03  0.7546771E-02  0.1149759E+00
         21   -1    0    0  504  503  0.00000000000E+00  0.00000000000E+00  0.39237051992E+03  0.39237051992E+03  0.00000000000E+00 0.  1.
         21   -1    0    0  502  504 -0.00000000000E+00 -0.00000000000E+00 -0.99540470129E+02  0.99540470129E+02  0.00000000000E+00 0.  1.
          6    2    1    2  502    0 -0.85833755695E+02  0.62957686779E+02  0.12170121215E+03  0.22630009264E+03  0.15833332861E+03 0.  0.
         24    2    3    3    0    0 -0.70745061325E+02 -0.60837615903E+01  0.11155589482E+03  0.15475005592E+03  0.80380260525E+02 0.  0.
         -6    2    1    2    0  503  0.85833755695E+02 -0.62957686779E+02  0.17112883764E+03  0.26561089741E+03  0.17301146149E+03 0.  0.
        -24    2    5    5    0    0  0.40479076125E+02 -0.11566044926E+02  0.17612497179E+03  0.19672549135E+03  0.76867315950E+02 0.  0.
          2    1    4    4  501    0 -0.27532098101E+02 -0.42391039075E+02  0.58130503257E+02  0.77033577281E+02  0.00000000000E+00 0. -1.
         -1    1    4    4    0  501 -0.43212963223E+02  0.36307277485E+02  0.53425391566E+02  0.77716478644E+02  0.00000000000E+00 0.  1.
          5    1    3    3  502    0 -0.15088694370E+02  0.69041448369E+02  0.10145317328E+02  0.71550036718E+02  0.47000000000E+01 0. -1.
         13    1    6    6    0    0 -0.23095197250E+02 -0.53199701067E+01  0.50962718676E+02  0.56203993744E+02  0.00000000000E+00 0. -1.
        -14    1    6    6    0    0  0.63574273376E+02 -0.62460748196E+01  0.12516225311E+03  0.14052149761E+03  0.00000000000E+00 0.  1.
         -5    1    5    5    0  503  0.45354679570E+02 -0.51391641852E+02 -0.49961341445E+01  0.68885406056E+02  0.47000000000E+01 0.  1.
<mgrwt>
<rscale>  2 0.19997606E+03</rscale>
<asrwt>0</asrwt>
<pdfrwt beam="1">  1       21 0.60364695E-01 0.20313559E+03</pdfrwt>
<pdfrwt beam="2">  1       21 0.15313919E-01 0.20313559E+03</pdfrwt>
<totfact> 0.96199178E+04</totfact>
</mgrwt>
</event>
<event>
12    1  0.1473662E-001  0.2549341E+03  0.7546771E-02  0.1110361E+00
         21   -1    0    0  504  503  0.00000000000E+00  0.00000000000E+00  0.21422081955E+03  0.21422081955E+03  0.00000000000E+00 0. -1.
         21   -1    0    0  502  504 -0.00000000000E+00 -0.00000000000E+00 -0.32344929463E+03  0.32344929463E+03  0.00000000000E+00 0. -1.
          6    2    1    2  502    0 -0.60149875956E+02  0.17708292451E+03 -0.12337259274E+03  0.28321759956E+03  0.17324849877E+03 0.  0.
         24    2    3    3    0    0 -0.94169702516E+02  0.15642890300E+03 -0.13663737560E+03  0.24100407485E+03  0.77943935730E+02 0.  0.
         -6    2    1    2    0  503  0.60149875956E+02 -0.17708292451E+03  0.14144117664E+02  0.25445251463E+03  0.17195829845E+03 0.  0.
        -24    2    5    5    0    0  0.90001245907E+02 -0.18041826925E+03 -0.90099069470E+01  0.21623697240E+03  0.77629077451E+02 0.  0.
          4    1    4    4  501    0 -0.10124951908E+03  0.14897383263E+03 -0.10671053166E+03  0.20936046783E+03  0.00000000000E+00 0. -1.
         -3    1    4    4    0  501  0.70798165645E+01  0.74550703639E+01 -0.29926843941E+02  0.31643607016E+02  0.00000000000E+00 0.  1.
          5    1    3    3  502    0  0.34019826559E+02  0.20654021513E+02  0.13264782862E+02  0.42213524706E+02  0.47000000000E+01 0. -1.
         11    1    6    6    0    0  0.45173565254E+02 -0.89371662798E+02  0.34365128598E+02  0.10587212651E+03  0.00000000000E+00 0. -1.
        -12    1    6    6    0    0  0.44827680653E+02 -0.91046606449E+02 -0.43375035545E+02  0.11036484588E+03  0.00000000000E+00 0.  1.
         -5    1    5    5    0  503 -0.29851369950E+02  0.33353447360E+01  0.23154024611E+02  0.38215542232E+02  0.47000000000E+01 0.  1.
<mgrwt>
<rscale>  2 0.25471509E+03</rscale>
<asrwt>0</asrwt>
<pdfrwt beam="1">  1       21 0.32957049E-01 0.25493413E+03</pdfrwt>
<pdfrwt beam="2">  1       21 0.49761430E-01 0.25493413E+03</pdfrwt>
<totfact> 0.33097305E+04</totfact>
</mgrwt>
</event>
<event>
12    1  0.1473662E-001  0.2230302E+03  0.7546771E-02  0.1133700E+00
         21   -1    0    0  504  503  0.00000000000E+00  0.00000000000E+00  0.34104910696E+03  0.34104910696E+03  0.00000000000E+00 0. -1.
         21   -1    0    0  502  504 -0.00000000000E+00 -0.00000000000E+00 -0.57361548028E+03  0.57361548028E+03  0.00000000000E+00 0. -1.
          6    2    1    2  502    0 -0.53270507657E+02  0.11467358694E+03 -0.51372470402E+03  0.55578790981E+03  0.17029195708E+03 0.  0.
         24    2    3    3    0    0 -0.86686543011E+02  0.11981439848E+03 -0.47557648926E+03  0.50459771884E+03  0.81091392282E+02 0.  0.
         -6    2    1    2    0  503  0.53270507657E+02 -0.11467358694E+03  0.28115833070E+03  0.35887667744E+03  0.18372447893E+03 0.  0.
        -24    2    5    5    0    0 -0.23161910033E+02  0.96409141364E+00  0.11278857922E+03  0.14073807392E+03  0.80923039372E+02 0.  0.
          4    1    4    4  501    0 -0.68219512059E+02  0.91164486084E+02 -0.44317655113E+03  0.45757001740E+03  0.00000000000E+00 0. -1.
         -3    1    4    4    0  501 -0.18467030952E+02  0.28649912396E+02 -0.32399938128E+02  0.47027701444E+02  0.00000000000E+00 0.  1.
          5    1    3    3  502    0  0.33416035354E+02 -0.51408115416E+01 -0.38148214760E+02  0.51190190969E+02  0.47000000000E+01 0. -1.
         11    1    6    6    0    0 -0.22147228219E+02 -0.36721189054E+02  0.80028592765E+02  0.90793838466E+02  0.00000000000E+00 0. -1.
        -12    1    6    6    0    0 -0.10146818139E+01  0.37685280468E+02  0.32759986452E+02  0.49944235458E+02  0.00000000000E+00 0.  1.
         -5    1    5    5    0  503  0.76432417690E+02 -0.11563767835E+03  0.16836975148E+03  0.21813860351E+03  0.47000000000E+01 0.  1.
<mgrwt>
<rscale>  2 0.22024637E+03</rscale>
<asrwt>0</asrwt>
<pdfrwt beam="1">  1       21 0.52469093E-01 0.22303018E+03</pdfrwt>
<pdfrwt beam="2">  1       21 0.88248536E-01 0.22303018E+03</pdfrwt>
<totfact> 0.36974463E+03</totfact>
</mgrwt>
</event>
<event>
12    1  0.1473662E-001  0.2028157E+03  0.7546771E-02  0.1147745E+00
         21   -1    0    0  504  503  0.00000000000E+00  0.00000000000E+00  0.13914786814E+04  0.13914786814E+04  0.00000000000E+00 0.  1.
         21   -1    0    0  502  504 -0.00000000000E+00 -0.00000000000E+00 -0.33558484949E+02  0.33558484949E+02  0.00000000000E+00 0. -1.
          6    2    1    2  502    0  0.10723624604E+03 -0.14308279075E+02  0.92993639603E+03  0.95142938245E+03  0.16950466020E+03 0.  0.
         24    2    3    3    0    0  0.41300620889E+02  0.43573862945E+02  0.64735164386E+03  0.65550019973E+03  0.83737316802E+02 0.  0.
         -6    2    1    2    0  503 -0.10723624604E+03  0.14308279075E+02  0.42798380044E+03  0.47360778391E+03  0.17155133408E+03 0.  0.
        -24    2    5    5    0    0 -0.11498410497E+03 -0.79718431493E+01  0.19948525452E+03  0.24384680234E+03  0.79887430556E+02 0.  0.
          4    1    4    4  501    0 -0.21229036834E+02 -0.71345949190E+01  0.12760005224E+03  0.12955056071E+03  0.00000000000E+00 0. -1.
         -3    1    4    4    0  501  0.62529657724E+02  0.50708457864E+02  0.51975159162E+03  0.52594963902E+03  0.00000000000E+00 0.  1.
          5    1    3    3  502    0  0.65935625156E+02 -0.57882142020E+02  0.28258475217E+03  0.29592918272E+03  0.47000000000E+01 0. -1.
         13    1    6    6    0    0 -0.60862207632E+02  0.35271239011E+02  0.89057098573E+02  0.11348760032E+03  0.00000000000E+00 0. -1.
        -14    1    6    6    0    0 -0.54121897341E+02 -0.43243082160E+02  0.11042815595E+03  0.13035920202E+03  0.00000000000E+00 0.  1.
         -5    1    5    5    0  503  0.77478589280E+01  0.22280122224E+02  0.22849854592E+03  0.22976098157E+03  0.47000000000E+01 0.  1.
<mgrwt>
<rscale>  2 0.20238224E+03</rscale>
<asrwt>0</asrwt>
<pdfrwt beam="1">  1       21 0.21407360E+00 0.20281568E+03</pdfrwt>
<pdfrwt beam="2">  1       21 0.51628449E-02 0.20281568E+03</pdfrwt>
<totfact> 0.27669369E+04</totfact>
</mgrwt>
</event>
<event>
12    1  0.1473662E-001  0.1951476E+03  0.7546771E-02  0.1154150E+00
         21   -1    0    0  504  503  0.00000000000E+00  0.00000000000E+00  0.14153664434E+03  0.14153664434E+03  0.00000000000E+00 0.  1.
         21   -1    0    0  502  504 -0.00000000000E+00 -0.00000000000E+00 -0.38127139789E+03  0.38127139789E+03  0.00000000000E+00 0.  1.
          6    2    1    2  502    0 -0.89454405838E+02 -0.13376744872E+02 -0.26292331401E+03  0.32743128945E+03  0.17292065300E+03 0.  0.
         24    2    3    3    0    0 -0.92752664361E+02 -0.21450637153E+02 -0.95740958083E+02  0.15995563038E+03  0.85768794190E+02 0.  0.
         -6    2    1    2    0  503  0.89454405838E+02  0.13376744872E+02  0.23188560466E+02  0.19537675278E+03  0.17161974875E+03 0.  0.
        -24    2    5    5    0    0 -0.64981357615E+01  0.19944731403E+02 -0.27702353787E+02  0.86463925986E+02  0.79174314095E+02 0.  0.
          4    1    4    4  501    0 -0.72192823302E+02 -0.22413739613E+02 -0.15562543926E+02  0.77177537103E+02  0.00000000000E+00 0. -1.
         -3    1    4    4    0  501 -0.20559841059E+02  0.96310245972E+00 -0.80178414157E+02  0.82778093282E+02  0.00000000000E+00 0.  1.
          5    1    3    3  502    0  0.32982585227E+01  0.80738922814E+01 -0.16718235593E+03  0.16747565907E+03  0.47000000000E+01 0. -1.
         13    1    6    6    0    0 -0.26589551948E+02  0.27642591423E+01 -0.46768879917E+02  0.53869968722E+02  0.00000000000E+00 0. -1.
        -14    1    6    6    0    0  0.20091416186E+02  0.17180472260E+02  0.19066526130E+02  0.32593957264E+02  0.00000000000E+00 0.  1.
         -5    1    5    5    0  503  0.95952541600E+02 -0.65679865307E+01  0.50890914253E+02  0.10891282679E+03  0.47000000000E+01 0.  1.
<mgrwt>
<rscale>  2 0.19485900E+03</rscale>
<asrwt>0</asrwt>
<pdfrwt beam="1">  1       21 0.21774868E-01 0.19514759E+03</pdfrwt>
<pdfrwt beam="2">  1       21 0.58657138E-01 0.19514759E+03</pdfrwt>
<totfact> 0.53469855E+04</totfact>
</mgrwt>
</event>
<event>
12    1  0.1473662E-001  0.2219120E+03  0.7546771E-02  0.1132724E+00
         21   -1    0    0  504  503  0.00000000000E+00  0.00000000000E+00  0.56562537970E+03  0.56562537970E+03  0.00000000000E+00 0. -1.
         21   -1    0    0  502  504 -0.00000000000E+00 -0.00000000000E+00 -0.10470155044E+03  0.10470155044E+03  0.00000000000E+00 0. -1.
          6    2    1    2  502    0  0.10335500931E+03 -0.94774021517E+02  0.91375899717E+02  0.23998853764E+03  0.17199002892E+03 0.  0.
         24    2    3    3    0    0 -0.47422323320E+00 -0.87294962501E+02  0.60465906081E+02  0.13129647923E+03  0.77214016182E+02 0.  0.
         -6    2    1    2    0  503 -0.10335500931E+03  0.94774021517E+02  0.36954792955E+03  0.43033839249E+03  0.17017957197E+03 0.  0.
        -24    2    5    5    0    0  0.91140871498E+00  0.93979030435E+02  0.16308388657E+03  0.19899101520E+03  0.64561453224E+02 0.  0.
          4    1    4    4  501    0  0.16899417560E+02 -0.59920001382E+02  0.73524904884E+02  0.96342661981E+02  0.00000000000E+00 0. -1.
         -3    1    4    4    0  501 -0.17373640794E+02 -0.27374961120E+02 -0.13058998802E+02  0.34953817251E+02  0.00000000000E+00 0.  1.
          5    1    3    3  502    0  0.10382923255E+03 -0.74790590162E+01  0.30909993635E+02  0.10869205841E+03  0.47000000000E+01 0. -1.
         13    1    6    6    0    0 -0.19300911510E+02  0.76181798024E+01  0.12490083780E+02  0.24219084240E+02  0.00000000000E+00 0. -1.
        -14    1    6    6    0    0  0.20212320225E+02  0.86360850632E+02  0.15059380279E+03  0.17477193096E+03  0.00000000000E+00 0.  1.
         -5    1    5    5    0  503 -0.10426641803E+03  0.79499108287E+00  0.20646404297E+03  0.23134737729E+03  0.47000000000E+01 0.  1.
<mgrwt>
<rscale>  2 0.22156113E+03</rscale>
<asrwt>0</asrwt>
<pdfrwt beam="1">  1       21 0.87019287E-01 0.22191202E+03</pdfrwt>
<pdfrwt beam="2">  1       21 0.16107931E-01 0.22191202E+03</pdfrwt>
<totfact> 0.38519582E+04</totfact>
</mgrwt>
</event>
<event>
12    1  0.1473662E-001  0.3019687E+03  0.7546771E-02  0.1084272E+00
         21   -1    0    0  504  503  0.00000000000E+00  0.00000000000E+00  0.92827476308E+02  0.92827476308E+02  0.00000000000E+00 0. -1.
         21   -1    0    0  502  504 -0.00000000000E+00 -0.00000000000E+00 -0.11700240054E+04  0.11700240054E+04  0.00000000000E+00 0.  1.
          6    2    1    2  502    0  0.21695125231E+03 -0.12056272918E+03 -0.79178399600E+03  0.84741194258E+03  0.17199385617E+03 0.  0.
         24    2    3    3    0    0  0.94621001153E+02 -0.33239732063E+02 -0.21606102807E+03  0.25237495047E+03  0.83383056604E+02 0.  0.
         -6    2    1    2    0  503 -0.21695125231E+03  0.12056272918E+03 -0.28541253307E+03  0.41543953911E+03  0.17183270665E+03 0.  0.
        -24    2    5    5    0    0 -0.22472748589E+03  0.11632138967E+03 -0.29791852758E+03  0.39940992064E+03  0.82095840449E+02 0.  0.
          4    1    4    4  501    0  0.23182451240E+01 -0.10189686935E+02  0.50934434079E+01  0.11625280472E+02  0.00000000000E+00 0. -1.
         -3    1    4    4    0  501  0.92302756029E+02 -0.23050045127E+02 -0.22115447148E+03  0.24074967000E+03  0.00000000000E+00 0.  1.
          5    1    3    3  502    0  0.12233025116E+03 -0.87322997119E+02 -0.57572296793E+03  0.59503699211E+03  0.47000000000E+01 0. -1.
         13    1    6    6    0    0 -0.86132055373E+02  0.90466617826E+02 -0.13364815951E+03  0.18293378705E+03  0.00000000000E+00 0. -1.
        -14    1    6    6    0    0 -0.13859543052E+03  0.25854771840E+02 -0.16427036806E+03  0.21647613359E+03  0.00000000000E+00 0.  1.
         -5    1    5    5    0  503  0.77762335843E+01  0.42413395152E+01  0.12505994508E+02  0.16029618470E+02  0.47000000000E+01 0.  1.
<mgrwt>
<rscale>  2 0.30194577E+03</rscale>
<asrwt>0</asrwt>
<pdfrwt beam="1">  1       21 0.14281150E-01 0.30196871E+03</pdfrwt>
<pdfrwt beam="2">  1       21 0.18000369E+00 0.30196871E+03</pdfrwt>
<totfact> 0.72437297E+03</totfact>
</mgrwt>
</event>
<event>
12    1  0.1473662E-001  0.1760006E+03  0.7546771E-02  0.1171976E+00
         21   -1    0    0  504  503  0.00000000000E+00  0.00000000000E+00  0.49538960520E+03  0.49538960520E+03  0.00000000000E+00 0. -1.
         21   -1    0    0  502  504 -0.00000000000E+00 -0.00000000000E+00 -0.67500906736E+02  0.67500906736E+02  0.00000000000E+00 0. -1.
          6    2    1    2  502    0 -0.24481790876E+02 -0.73325243674E+01  0.29240360038E+03  0.34078149872E+03  0.17314456490E+03 0.  0.
         24    2    3    3    0    0  0.26109711143E+02 -0.37277181182E+02  0.25327222338E+03  0.27000341444E+03  0.81754017753E+02 0.  0.
         -6    2    1    2    0  503  0.24481790876E+02  0.73325243674E+01  0.13548509808E+03  0.22210901322E+03  0.17413522893E+03 0.  0.
        -24    2    5    5    0    0  0.79017821170E+02  0.11294135289E+02  0.54905179422E+02  0.12461498134E+03  0.78376918110E+02 0.  0.
          2    1    4    4  501    0 -0.25164777847E+02 -0.16893839602E+02  0.14879640374E+03  0.15185202543E+03  0.00000000000E+00 0. -1.
         -1    1    4    4    0  501  0.51274488991E+02 -0.20383341580E+02  0.10447581964E+03  0.11815138901E+03  0.00000000000E+00 0.  1.
          5    1    3    3  502    0 -0.50591502019E+02  0.29944656814E+02  0.39131377003E+02  0.70778084281E+02  0.47000000000E+01 0. -1.
         11    1    6    6    0    0  0.61470769185E+02 -0.27301510174E+02  0.21420061095E+02  0.70589283459E+02  0.00000000000E+00 0. -1.
        -12    1    6    6    0    0  0.17547051985E+02  0.38595645463E+02  0.33485118327E+02  0.54025697880E+02  0.00000000000E+00 0.  1.
         -5    1    5    5    0  503 -0.54536030294E+02 -0.39616109219E+01  0.80579918662E+02  0.97494031883E+02  0.47000000000E+01 0.  1.
<mgrwt>
<rscale>  2 0.17575503E+03</rscale>
<asrwt>0</asrwt>
<pdfrwt beam="1">  1       21 0.76213783E-01 0.17600057E+03</pdfrwt>
<pdfrwt beam="2">  1       21 0.10384755E-01 0.17600057E+03</pdfrwt>
<totfact> 0.11715238E+05</totfact>
</mgrwt>
</event>
<event>
12    1  0.1473662E-001  0.1916686E+03  0.7546771E-02  0.1157004E+00
         21   -1    0    0  504  503  0.00000000000E+00  0.00000000000E+00  0.17547787552E+03  0.17547787552E+03  0.00000000000E+00 0.  1.
         21   -1    0    0  502  504 -0.00000000000E+00 -0.00000000000E+00 -0.58102876737E+03  0.58102876737E+03  0.00000000000E+00 0.  1.
          6    2    1    2  502    0  0.57355817734E+02  0.59132883277E+02 -0.50541609766E+03  0.54053889941E+03  0.17306207640E+03 0.  0.
         24    2    3    3    0    0 -0.27983395538E+01  0.16077935581E+02 -0.41737472885E+03  0.42544926572E+03  0.80864594889E+02 0.  0.
         -6    2    1    2    0  503 -0.57355817734E+02 -0.59132883277E+02  0.99865205813E+02  0.21596774348E+03  0.17286589941E+03 0.  0.
        -24    2    5    5    0    0 -0.65657143455E+02 -0.47049116170E+02 -0.86735956003E+00  0.11406549050E+03  0.80533868594E+02 0.  0.
          4    1    4    4  501    0  0.88684601467E+01  0.29039310359E+02 -0.39886322508E+03  0.40001725394E+03  0.00000000000E+00 0. -1.
         -3    1    4    4    0  501 -0.11666799700E+02 -0.12961374777E+02 -0.18511503766E+02  0.25432011778E+02  0.00000000000E+00 0.  1.
          5    1    3    3  502    0  0.60154157288E+02  0.43054947696E+02 -0.88041368816E+02  0.11508963369E+03  0.47000000000E+01 0. -1.
         13    1    6    6    0    0 -0.33582364426E+02 -0.65236222625E+02 -0.14429792575E+02  0.74778064007E+02  0.00000000000E+00 0. -1.
        -14    1    6    6    0    0 -0.32074779029E+02  0.18187106455E+02  0.13562433015E+02  0.39287426490E+02  0.00000000000E+00 0.  1.
         -5    1    5    5    0  503  0.83013257207E+01 -0.12083767108E+02  0.10073256537E+03  0.10190225298E+03  0.47000000000E+01 0.  1.
<mgrwt>
<rscale>  2 0.19162435E+03</rscale>
<asrwt>0</asrwt>
<pdfrwt beam="1">  1       21 0.26996596E-01 0.19166865E+03</pdfrwt>
<pdfrwt beam="2">  1       21 0.89389041E-01 0.19166865E+03</pdfrwt>
<totfact> 0.13961365E+04</totfact>
</mgrwt>
</event>
<event>
12    1  0.1473662E-001  0.2421001E+03  0.7546771E-02  0.1119280E+00
         21   -1    0    0  504  503  0.00000000000E+00  0.00000000000E+00  0.97293712995E+03  0.97293712995E+03  0.00000000000E+00 0.  1.
         21   -1    0    0  502  504 -0.00000000000E+00 -0.00000000000E+00 -0.62884032569E+02  0.62884032569E+02  0.00000000000E+00 0. -1.
          6    2    1    2  502    0 -0.86542095760E+02  0.14351105549E+03  0.58005736325E+03  0.62654172105E+03  0.16734104746E+03 0.  0.
         24    2    3    3    0    0 -0.10447864696E+03  0.14870675051E+03  0.41107625114E+03  0.45646696875E+03  0.79680135528E+02 0.  0.
         -6    2    1    2    0  503  0.86542095760E+02 -0.14351105549E+03  0.32999573413E+03  0.40927944147E+03  0.17472126168E+03 0.  0.
        -24    2    5    5    0    0  0.38299333261E+02 -0.15263413521E+03  0.30851650355E+03  0.35548313989E+03  0.80136206729E+02 0.  0.
          4    1    4    4  501    0 -0.11500556163E+02  0.52108165534E+02  0.58111306258E+02  0.78895168562E+02  0.00000000000E+00 0. -1.
         -3    1    4    4    0  501 -0.92978090799E+02  0.96598584972E+02  0.35296494488E+03  0.37757180019E+03  0.00000000000E+00 0.  1.
          5    1    3    3  502    0  0.17936551202E+02 -0.51956950190E+01  0.16898111212E+03  0.17007475230E+03  0.47000000000E+01 0. -1.
         11    1    6    6    0    0  0.50801720075E+02 -0.13026473378E+03  0.20030138273E+03  0.24427517179E+03  0.00000000000E+00 0. -1.
        -12    1    6    6    0    0 -0.12502386814E+02 -0.22369401428E+02  0.10821512082E+03  0.11120796811E+03  0.00000000000E+00 0.  1.
         -5    1    5    5    0  503  0.48242762498E+02  0.91230797213E+01  0.21479230580E+02  0.53796301577E+02  0.47000000000E+01 0.  1.
<mgrwt>
<rscale>  2 0.24077146E+03</rscale>
<asrwt>0</asrwt>
<pdfrwt beam="1">  1       21 0.14968262E+00 0.24210014E+03</pdfrwt>
<pdfrwt beam="2">  1       21 0.96744673E-02 0.24210014E+03</pdfrwt>
<totfact> 0.25103317E+04</totfact>
</mgrwt>
</event>
<event>
12    1  0.1473662E-001  0.1917233E+03  0.7546771E-02  0.1157140E+00
         21   -1    0    0  504  503  0.00000000000E+00  0.00000000000E+00  0.17939285636E+03  0.17939285636E+03  0.00000000000E+00 0.  1.
         21   -1    0    0  502  504 -0.00000000000E+00 -0.00000000000E+00 -0.28722935797E+03  0.28722935797E+03  0.00000000000E+00 0.  1.
          6    2    1    2  502    0 -0.77725180599E+02 -0.22421753760E+02 -0.17953479847E+03  0.26193104364E+03  0.17271707796E+03 0.  0.
         24    2    3    3    0    0 -0.76918241134E+02  0.66164667387E+00 -0.36100455535E+02  0.11657288164E+03  0.79806893487E+02 0.  0.
         -6    2    1    2    0  503  0.77725180599E+02  0.22421753760E+02  0.71698296862E+02  0.20469117069E+03  0.17382143379E+03 0.  0.
        -24    2    5    5    0    0  0.73985922316E+02 -0.37942055430E+02  0.85402880119E+02  0.14250051934E+03  0.78097565965E+02 0.  0.
          4    1    4    4  501    0 -0.42874194827E+01 -0.11681522611E+02  0.20286332992E+02  0.23798639511E+02  0.00000000000E+00 0. -1.
         -3    1    4    4    0  501 -0.72630821651E+02  0.12343169285E+02 -0.56386788527E+02  0.92774242127E+02  0.00000000000E+00 0.  1.
          5    1    3    3  502    0 -0.80693946441E+00 -0.23083400434E+02 -0.14343434294E+03  0.14535816200E+03  0.47000000000E+01 0. -1.
         13    1    6    6    0    0  0.85708174136E+01 -0.14823726724E+02 -0.13419494944E+02  0.21755105830E+02  0.00000000000E+00 0. -1.
        -14    1    6    6    0    0  0.65415104902E+02 -0.23118328706E+02  0.98822375064E+02  0.12074541351E+03  0.00000000000E+00 0.  1.
         -5    1    5    5    0  503  0.37392582828E+01  0.60363809190E+02 -0.13704583258E+02  0.62190651345E+02  0.47000000000E+01 0.  1.
<mgrwt>
<rscale>  2 0.19147266E+03</rscale>
<asrwt>0</asrwt>
<pdfrwt beam="1">  1       21 0.27598901E-01 0.19172332E+03</pdfrwt>
<pdfrwt beam="2">  1       21 0.44189132E-01 0.19172332E+03</pdfrwt>
<totfact> 0.61649837E+04</totfact>
</mgrwt>
</event>
<event>
12    1  0.1473662E-001  0.2356633E+03  0.7546771E-02  0.1122958E+00
         21   -1    0    0  504  503  0.00000000000E+00  0.00000000000E+00  0.20868808492E+03  0.20868808492E+03  0.00000000000E+00 0. -1.
         21   -1    0    0  502  504 -0.00000000000E+00 -0.00000000000E+00 -0.45478244237E+03  0.45478244237E+03  0.00000000000E+00 0.  1.
          6    2    1    2  502    0  0.13939637602E+03 -0.79445729821E+02 -0.33739396335E+03  0.41073981113E+03  0.17067375988E+03 0.  0.
         24    2    3    3    0    0  0.99793621541E+02 -0.28122576929E+02 -0.31569555787E+03  0.34221715075E+03  0.81848926535E+02 0.  0.
         -6    2    1    2    0  503 -0.13939637602E+03  0.79445729821E+02  0.91299605903E+02  0.25273071616E+03  0.17261003221E+03 0.  0.
        -24    2    5    5    0    0 -0.38736298381E+02  0.75549358204E+02  0.95954940091E+02  0.15177827647E+03  0.81370070324E+02 0.  0.
          2    1    4    4  501    0  0.24554661458E+02 -0.46226624682E+02 -0.96812765693E+02  0.11005700264E+03  0.00000000000E+00 0. -1.
         -1    1    4    4    0  501  0.75238960083E+02  0.18104047753E+02 -0.21888279218E+03  0.23216014812E+03  0.00000000000E+00 0.  1.
          5    1    3    3  502    0  0.39602754480E+02 -0.51323152891E+02 -0.21698405473E+02  0.68522660377E+02  0.47000000000E+01 0. -1.
         13    1    6    6    0    0 -0.18267871557E+02  0.65200661993E+02  0.17354850898E+02  0.69900159551E+02  0.00000000000E+00 0. -1.
        -14    1    6    6    0    0 -0.20468426824E+02  0.10348696211E+02  0.78600089193E+02  0.81878116924E+02  0.00000000000E+00 0.  1.
         -5    1    5    5    0  503 -0.10066007764E+03  0.38963716170E+01 -0.46553341882E+01  0.10095243969E+03  0.47000000000E+01 0.  1.
<mgrwt>
<rscale>  2 0.23530889E+03</rscale>
<asrwt>0</asrwt>
<pdfrwt beam="1">  1       21 0.32105859E-01 0.23566331E+03</pdfrwt>
<pdfrwt beam="2">  1       21 0.69966530E-01 0.23566331E+03</pdfrwt>
<totfact> 0.16877776E+04</totfact>
</mgrwt>
</event>
<event>
12    1  0.1473662E-001  0.1905175E+03  0.7546771E-02  0.1161769E+00
         21   -1    0    0  504  503  0.00000000000E+00  0.00000000000E+00  0.91935499216E+02  0.91935499216E+02  0.00000000000E+00 0.  1.
         21   -1    0    0  502  504 -0.00000000000E+00 -0.00000000000E+00 -0.54167849399E+03  0.54167849399E+03  0.00000000000E+00 0.  1.
          6    2    1    2  502    0 -0.32243232060E+02  0.70630876843E+02 -0.41366885995E+03  0.45543257379E+03  0.17397861019E+03 0.  0.
         24    2    3    3    0    0 -0.25846245061E+02  0.94468175006E+02 -0.17824069489E+03  0.21866760779E+03  0.80333759444E+02 0.  0.
         -6    2    1    2    0  503  0.32243232060E+02 -0.70630876843E+02 -0.36074134823E+02  0.17818141941E+03  0.15626556960E+03 0.  0.
        -24    2    5    5    0    0  0.41378767230E+02  0.10604602952E+02 -0.31760816243E+02  0.96185346960E+02  0.80113741270E+02 0.  0.
          2    1    4    4  501    0 -0.25404849311E+02  0.39737951323E+02 -0.20001892393E+02  0.51230721673E+02  0.00000000000E+00 0. -1.
         -1    1    4    4    0  501 -0.44139574996E+00  0.54730223683E+02 -0.15823880250E+03  0.16743688611E+03  0.00000000000E+00 0.  1.
          5    1    3    3  502    0 -0.63969869988E+01 -0.23837298163E+02 -0.23542816506E+03  0.23676496601E+03  0.47000000000E+01 0. -1.
         11    1    6    6    0    0 -0.21173523106E+02 -0.11746906615E+02 -0.60568043603E+01  0.24959823213E+02  0.00000000000E+00 0. -1.
        -12    1    6    6    0    0  0.62552290336E+02  0.22351509567E+02 -0.25704011883E+02  0.71225523747E+02  0.00000000000E+00 0.  1.
         -5    1    5    5    0  503 -0.91355351699E+01 -0.81235479795E+02 -0.43133185802E+01  0.81996072451E+02  0.47000000000E+01 0.  1.
<mgrwt>
<rscale>  2 0.18637800E+03</rscale>
<asrwt>0</asrwt>
<pdfrwt beam="1">  1       21 0.14143923E-01 0.19051746E+03</pdfrwt>
<pdfrwt beam="2">  1       21 0.83335152E-01 0.19051746E+03</pdfrwt>
<totfact> 0.54774092E+04</totfact>
</mgrwt>
</event>
<event>
12    1  0.1473662E-001  0.1967092E+03  0.7546771E-02  0.1152577E+00
         21   -1    0    0  504  503  0.00000000000E+00  0.00000000000E+00  0.12829537744E+04  0.12829537744E+04  0.00000000000E+00 0. -1.
         21   -1    0    0  502  504 -0.00000000000E+00 -0.00000000000E+00 -0.68340302459E+02  0.68340302459E+02  0.00000000000E+00 0. -1.
          6    2    1    2  502    0 -0.38821615060E+02  0.85998263859E+02  0.11125616558E+04  0.11298176593E+04  0.17260268318E+03 0.  0.
         24    2    3    3    0    0 -0.39567748784E+02  0.10217257459E+03  0.53070810684E+03  0.54771989481E+03  0.79631317746E+02 0.  0.
         -6    2    1    2    0  503  0.38821615060E+02 -0.85998263859E+02  0.10205181617E+03  0.22147641754E+03  0.17243668739E+03 0.  0.
        -24    2    5    5    0    0 -0.46347946454E+01 -0.11647926492E+03  0.52868286400E+02  0.14895979482E+03  0.76190972472E+02 0.  0.
          4    1    4    4  501    0 -0.34893983531E+02  0.11567506620E+03  0.46165523162E+03  0.47720421615E+03  0.00000000000E+00 0. -1.
         -3    1    4    4    0  501 -0.46737652530E+01 -0.13502491612E+02  0.69052875220E+02  0.70515678665E+02  0.00000000000E+00 0.  1.
          5    1    3    3  502    0  0.74613372335E+00 -0.16174310730E+02  0.58185354896E+03  0.58209776453E+03  0.47000000000E+01 0. -1.
         11    1    6    6    0    0 -0.11838619119E+02 -0.21552095180E+01  0.29760989234E+02  0.32101624739E+02  0.00000000000E+00 0. -1.
        -12    1    6    6    0    0  0.72038244734E+01 -0.11432405540E+03  0.23107297166E+02  0.11685817008E+03  0.00000000000E+00 0.  1.
         -5    1    5    5    0  503  0.43456409706E+02  0.30481001064E+02  0.49183529768E+02  0.72516622721E+02  0.47000000000E+01 0.  1.
<mgrwt>
<rscale>  2 0.19667277E+03</rscale>
<asrwt>0</asrwt>
<pdfrwt beam="1">  1       21 0.19737749E+00 0.19670919E+03</pdfrwt>
<pdfrwt beam="2">  1       21 0.10513894E-01 0.19670919E+03</pdfrwt>
<totfact> 0.10331245E+04</totfact>
</mgrwt>
</event>
<event>
12    1  0.1473662E-001  0.1781848E+03  0.7546771E-02  0.1169678E+00
         21   -1    0    0  504  503  0.00000000000E+00  0.00000000000E+00  0.14244527875E+03  0.14244527875E+03  0.00000000000E+00 0.  1.
         21   -1    0    0  502  504 -0.00000000000E+00 -0.00000000000E+00 -0.25542141662E+03  0.25542141662E+03  0.00000000000E+00 0.  1.
          6    2    1    2  502    0  0.33675646718E+02  0.22223637373E+02 -0.12813271672E+03  0.21947167967E+03  0.17355657821E+03 0.  0.
         24    2    3    3    0    0 -0.25846416653E+02  0.36953410922E+02 -0.12790726529E+03  0.15797384974E+03  0.81005412515E+02 0.  0.
         -6    2    1    2    0  503 -0.33675646718E+02 -0.22223637373E+02  0.15156578856E+02  0.17839501571E+03  0.17311013981E+03 0.  0.
        -24    2    5    5    0    0  0.28745842713E+02  0.20541079522E+02 -0.24720359226E+02  0.92735669780E+02  0.82100845721E+02 0.  0.
          2    1    4    4  501    0  0.96602786670E+01  0.45227018122E+02 -0.34482673240E+02  0.57687597505E+02  0.00000000000E+00 0. -1.
         -1    1    4    4    0  501 -0.35506695320E+02 -0.82736072001E+01 -0.93424592048E+02  0.10028625224E+03  0.00000000000E+00 0.  1.
          5    1    3    3  502    0  0.59522063371E+02 -0.14729773548E+02 -0.22545143106E+00  0.61497829922E+02  0.47000000000E+01 0. -1.
         13    1    6    6    0    0 -0.25358119866E+02 -0.99586498338E+01 -0.86102033798E+01  0.28571743942E+02  0.00000000000E+00 0. -1.
        -14    1    6    6    0    0  0.54103962579E+02  0.30499729356E+02 -0.16110155846E+02  0.64163925838E+02  0.00000000000E+00 0.  1.
         -5    1    5    5    0  503 -0.62421489431E+02 -0.42764716896E+02  0.39876938082E+02  0.85659345928E+02  0.47000000000E+01 0.  1.
<mgrwt>
<rscale>  2 0.17807600E+03</rscale>
<asrwt>0</asrwt>
<pdfrwt beam="1">  1       21 0.21914658E-01 0.17818481E+03</pdfrwt>
<pdfrwt beam="2">  1       21 0.39295602E-01 0.17818481E+03</pdfrwt>
<totfact> 0.12202034E+05</totfact>
</mgrwt>
</event>
<event>
12    1  0.1473662E-001  0.1851793E+03  0.7546771E-02  0.1163677E+00
         21   -1    0    0  504  503  0.00000000000E+00  0.00000000000E+00  0.71578674927E+02  0.71578674927E+02  0.00000000000E+00 0. -1.
         21   -1    0    0  502  504 -0.00000000000E+00 -0.00000000000E+00 -0.13793810034E+04  0.13793810034E+04  0.00000000000E+00 0. -1.
          6    2    1    2  502    0 -0.46363317902E+02 -0.48297317682E+02 -0.12448721965E+04  0.12585698803E+04  0.17265332241E+03 0.  0.
         24    2    3    3    0    0 -0.75351967572E+02  0.14806618495E+02 -0.63577571658E+03  0.64550947506E+03  0.81083695243E+02 0.  0.
         -6    2    1    2    0  503  0.46363317902E+02  0.48297317682E+02 -0.62930132019E+02  0.19238979811E+03  0.16903089883E+03 0.  0.
        -24    2    5    5    0    0  0.60481077620E+02 -0.62321159766E+01  0.77188206115E+01  0.10191253698E+03  0.81423491586E+02 0.  0.
          4    1    4    4  501    0 -0.50984853434E+02 -0.17544566905E+02 -0.52128533104E+03  0.52406646855E+03  0.00000000000E+00 0. -1.
         -3    1    4    4    0  501 -0.24367114138E+02  0.32351185399E+02 -0.11449038554E+03  0.12144300651E+03  0.00000000000E+00 0.  1.
          5    1    3    3  502    0  0.28988649671E+02 -0.63103936177E+02 -0.60909647992E+03  0.61306040520E+03  0.47000000000E+01 0. -1.
         13    1    6    6    0    0  0.34567936549E+02 -0.42086070931E+02  0.16300943198E+02  0.56849805213E+02  0.00000000000E+00 0. -1.
        -14    1    6    6    0    0  0.25913141071E+02  0.35853954954E+02 -0.85821225870E+01  0.45062731765E+02  0.00000000000E+00 0.  1.
         -5    1    5    5    0  503 -0.14117759718E+02  0.54529433659E+02 -0.70648952630E+02  0.90477261134E+02  0.47000000000E+01 0.  1.
<mgrwt>
<rscale>  2 0.18433027E+03</rscale>
<asrwt>0</asrwt>
<pdfrwt beam="1">  1       21 0.11012102E-01 0.18517926E+03</pdfrwt>
<pdfrwt beam="2">  1       21 0.21221249E+00 0.18517926E+03</pdfrwt>
<totfact> 0.77407151E+03</totfact>
</mgrwt>
</event>
<event>
12    1  0.1473662E-001  0.1986104E+03  0.7546771E-02  0.1151179E+00
         21   -1    0    0  504  503  0.00000000000E+00  0.00000000000E+00  0.24759640201E+03  0.24759640201E+03  0.00000000000E+00 0.  1.
         21   -1    0    0  502  504 -0.00000000000E+00 -0.00000000000E+00 -0.15833970697E+03  0.15833970697E+03  0.00000000000E+00 0. -1.
          6    2    1    2  502    0 -0.74966476147E+02 -0.52699085234E+02  0.43247654272E+02  0.20326446842E+03  0.17620703276E+03 0.  0.
         24    2    3    3    0    0 -0.40919070919E+02 -0.77557790003E+02 -0.27222212249E+02  0.12101318823E+03  0.78826148780E+02 0.  0.
         -6    2    1    2    0  503  0.74966476147E+02  0.52699085234E+02  0.46009040767E+02  0.20267164056E+03  0.17481932366E+03 0.  0.
        -24    2    5    5    0    0  0.39501121001E+01  0.53480466633E+02 -0.24755015326E+02  0.10230443399E+03  0.83532165864E+02 0.  0.
          4    1    4    4  501    0  0.17403321949E+02 -0.59118400126E+01 -0.21738687597E+02  0.28467455201E+02  0.00000000000E+00 0. -1.
         -3    1    4    4    0  501 -0.58322392867E+02 -0.71645949991E+02 -0.54835246527E+01  0.92545733032E+02  0.00000000000E+00 0.  1.
          5    1    3    3  502    0 -0.34047405229E+02  0.24858704769E+02  0.70469866521E+02  0.82251280192E+02  0.47000000000E+01 0. -1.
         11    1    6    6    0    0 -0.12894680817E+02 -0.16115792929E+02  0.97408103724E+01  0.22822685245E+02  0.00000000000E+00 0. -1.
        -12    1    6    6    0    0  0.16844792917E+02  0.69596259562E+02 -0.34495825698E+02  0.79481748748E+02  0.00000000000E+00 0.  1.
         -5    1    5    5    0  503  0.71016364047E+02 -0.78138139921E+00  0.70764056092E+02  0.10036720657E+03  0.47000000000E+01 0.  1.
<mgrwt>
<rscale>  2 0.19830213E+03</rscale>
<asrwt>0</asrwt>
<pdfrwt beam="1">  1       21 0.38091754E-01 0.19861038E+03</pdfrwt>
<pdfrwt beam="2">  1       21 0.24359955E-01 0.19861038E+03</pdfrwt>
<totfact> 0.10552574E+05</totfact>
</mgrwt>
</event>
<event>
12    1  0.1473662E-001  0.1914802E+03  0.7546771E-02  0.1158049E+00
         21   -1    0    0  504  503  0.00000000000E+00  0.00000000000E+00  0.19426633280E+03  0.19426633280E+03  0.00000000000E+00 0. -1.
         21   -1    0    0  502  504 -0.00000000000E+00 -0.00000000000E+00 -0.21577626008E+03  0.21577626008E+03  0.00000000000E+00 0. -1.
          6    2    1    2  502    0 -0.57071252414E+02  0.53475743953E+02 -0.88582679623E+02  0.21097760976E+03  0.17477951152E+03 0.  0.
         24    2    3    3    0    0 -0.48512108402E+02  0.91571465983E+02 -0.20153306266E+02  0.13205225185E+03  0.79327696432E+02 0.  0.
         -6    2    1    2    0  503  0.57071252414E+02 -0.53475743953E+02  0.67072752342E+02  0.19906498313E+03  0.17032712748E+03 0.  0.
        -24    2    5    5    0    0  0.10345200462E+03 -0.34110040441E+02  0.59215867473E+02  0.14797657654E+03  0.80775838757E+02 0.  0.
          4    1    4    4  501    0 -0.20700307628E+01  0.70108904835E+02 -0.35536292734E+02  0.78628059024E+02  0.00000000000E+00 0. -1.
         -3    1    4    4    0  501 -0.46442077639E+02  0.21462561148E+02  0.15382986468E+02  0.53424192826E+02  0.00000000000E+00 0.  1.
          5    1    3    3  502    0 -0.85591440126E+01 -0.38095722030E+02 -0.68429373357E+02  0.78925357910E+02  0.47000000000E+01 0. -1.
         11    1    6    6    0    0  0.34502896218E+02 -0.11857450969E+02  0.65789015370E+02  0.75227943839E+02  0.00000000000E+00 0. -1.
        -12    1    6    6    0    0  0.68949108397E+02 -0.22252589472E+02 -0.65731478968E+01  0.72748632704E+02  0.00000000000E+00 0.  1.
         -5    1    5    5    0  503 -0.46380752201E+02 -0.19365703512E+02  0.78568848683E+01  0.51088406582E+02  0.47000000000E+01 0.  1.
<mgrwt>
<rscale>  2 0.19045822E+03</rscale>
<asrwt>0</asrwt>
<pdfrwt beam="1">  1       21 0.29887128E-01 0.19148018E+03</pdfrwt>
<pdfrwt beam="2">  1       21 0.33196348E-01 0.19148018E+03</pdfrwt>
<totfact> 0.93844718E+04</totfact>
</mgrwt>
</event>
<event>
12    1  0.1473662E-001  0.2332717E+03  0.7546771E-02  0.1124775E+00
         21   -1    0    0  504  503  0.00000000000E+00  0.00000000000E+00  0.18347728308E+03  0.18347728308E+03  0.00000000000E+00 0.  1.
         21   -1    0    0  502  504 -0.00000000000E+00 -0.00000000000E+00 -0.64893624371E+03  0.64893624371E+03  0.00000000000E+00 0. -1.
          6    2    1    2  502    0 -0.42940246708E+02  0.15142751431E+03 -0.54019477788E+03  0.58746227271E+03  0.16890046457E+03 0.  0.
         24    2    3    3    0    0 -0.58128911566E+02  0.72939993640E+02 -0.45184893266E+03  0.46822274567E+03  0.79786393484E+02 0.  0.
         -6    2    1    2    0  503  0.42940246708E+02 -0.15142751431E+03  0.74735817247E+02  0.24495125408E+03  0.17216712118E+03 0.  0.
        -24    2    5    5    0    0 -0.18051524742E+02 -0.63714459393E+02 -0.14885130399E+02  0.10542498255E+03  0.80668890894E+02 0.  0.
          4    1    4    4  501    0 -0.19405315405E+02  0.76389875157E+02 -0.35924277221E+03  0.36778709694E+03  0.00000000000E+00 0. -1.
         -3    1    4    4    0  501 -0.38723596161E+02 -0.34498815169E+01 -0.92606160452E+02  0.10043564873E+03  0.00000000000E+00 0.  1.
          5    1    3    3  502    0  0.15188664857E+02  0.78487520671E+02 -0.88345845216E+02  0.11923952704E+03  0.47000000000E+01 0. -1.
         13    1    6    6    0    0 -0.18788193646E+02 -0.59223020993E+01  0.27446209263E+02  0.33784083317E+02  0.00000000000E+00 0. -1.
        -14    1    6    6    0    0  0.73666890420E+00 -0.57792157294E+02 -0.42331339663E+02  0.71640899236E+02  0.00000000000E+00 0.  1.
         -5    1    5    5    0  503  0.60991771450E+02 -0.87713054919E+02  0.89620947646E+02  0.13952627152E+03  0.47000000000E+01 0.  1.
<mgrwt>
<rscale>  2 0.23266923E+03</rscale>
<asrwt>0</asrwt>
<pdfrwt beam="1">  1       21 0.28227274E-01 0.23327168E+03</pdfrwt>
<pdfrwt beam="2">  1       21 0.99836346E-01 0.23327168E+03</pdfrwt>
<totfact> 0.96207425E+03</totfact>
</mgrwt>
</event>
<event>
12    1  0.1473662E-001  0.2462987E+03  0.7546771E-02  0.1115967E+00
         21   -1    0    0  504  503  0.00000000000E+00  0.00000000000E+00  0.16257597280E+03  0.16257597280E+03  0.00000000000E+00 0. -1.
         21   -1    0    0  502  504 -0.00000000000E+00 -0.00000000000E+00 -0.55543251605E+03  0.55543251605E+03  0.00000000000E+00 0. -1.
          6    2    1    2  502    0 -0.77947167977E+02  0.15376786918E+03 -0.40318189249E+03  0.47149346340E+03  0.17329203388E+03 0.  0.
         24    2    3    3    0    0  0.26688977863E+02  0.72178376775E+02 -0.19317023653E+03  0.22303309648E+03  0.80665991800E+02 0.  0.
         -6    2    1    2    0  503  0.77947167977E+02 -0.15376786918E+03  0.10325349238E+02  0.24651502545E+03  0.17590544718E+03 0.  0.
        -24    2    5    5    0    0  0.55858041990E+02 -0.15913777379E+03  0.56669195607E+02  0.19468253122E+03  0.79024922194E+02 0.  0.
          2    1    4    4  501    0 -0.90999595665E+01  0.72389815583E+02 -0.15114765089E+03  0.16783535692E+03  0.00000000000E+00 0. -1.
         -1    1    4    4    0  501  0.35788937430E+02 -0.21143880710E+00 -0.42022585639E+02  0.55197739560E+02  0.00000000000E+00 0.  1.
          5    1    3    3  502    0 -0.10463614584E+03  0.81589492406E+02 -0.21001165596E+03  0.24846036692E+03  0.47000000000E+01 0. -1.
         13    1    6    6    0    0  0.43897285966E+02 -0.37891677299E+02 -0.48600204117E+01  0.58192531497E+02  0.00000000000E+00 0. -1.
        -14    1    6    6    0    0  0.11960756024E+02 -0.12124609649E+03  0.61529216019E+02  0.13648999972E+03  0.00000000000E+00 0.  1.
         -5    1    5    5    0  503  0.22089125987E+02  0.53699046090E+01 -0.46343846370E+02  0.51832494236E+02  0.47000000000E+01 0.  1.
<mgrwt>
<rscale>  2 0.24583246E+03</rscale>
<asrwt>0</asrwt>
<pdfrwt beam="1">  1       21 0.25011688E-01 0.24629869E+03</pdfrwt>
<pdfrwt beam="2">  1       21 0.85451157E-01 0.24629869E+03</pdfrwt>
<totfact> 0.17370967E+04</totfact>
</mgrwt>
</event>
<event>
12    1  0.1473662E-001  0.2142857E+03  0.7546771E-02  0.1138280E+00
         21   -1    0    0  504  503  0.00000000000E+00  0.00000000000E+00  0.23598334335E+03  0.23598334335E+03  0.00000000000E+00 0.  1.
         21   -1    0    0  502  504 -0.00000000000E+00 -0.00000000000E+00 -0.22932811782E+03  0.22932811782E+03  0.00000000000E+00 0.  1.
          6    2    1    2  502    0 -0.69852504148E+02  0.10510228147E+03 -0.87622268077E+02  0.23120335526E+03  0.17277577294E+03 0.  0.
         24    2    3    3    0    0 -0.82848859571E+02  0.10745217055E+02 -0.67469284112E+02  0.13373339260E+03  0.79706478879E+02 0.  0.
         -6    2    1    2    0  503  0.69852504148E+02 -0.10510228147E+03  0.94277493613E+02  0.23410810591E+03  0.17318342167E+03 0.  0.
        -24    2    5    5    0    0  0.48157882264E+02 -0.10033820876E+03  0.85629322715E+01  0.14543776682E+03  0.93230265728E+02 0.  0.
          2    1    4    4  501    0 -0.30198665321E+01 -0.20604182175E+02 -0.37481494157E+02  0.42877900149E+02  0.00000000000E+00 0. -1.
         -1    1    4    4    0  501 -0.79828993038E+02  0.31349399230E+02 -0.29987789956E+02  0.90855492448E+02  0.00000000000E+00 0.  1.
          5    1    3    3  502    0  0.12996355423E+02  0.94357064416E+02 -0.20152983965E+02  0.97469962666E+02  0.47000000000E+01 0. -1.
         11    1    6    6    0    0 -0.90149360986E+01 -0.30957789259E+01  0.29239698833E+02  0.30754071403E+02  0.00000000000E+00 0. -1.
        -12    1    6    6    0    0  0.57172818362E+02 -0.97242429832E+02 -0.20676766561E+02  0.11468369542E+03  0.00000000000E+00 0.  1.
         -5    1    5    5    0  503  0.21694621884E+02 -0.47640727129E+01  0.85714561342E+02  0.88670339085E+02  0.47000000000E+01 0.  1.
<mgrwt>
<rscale>  2 0.21420332E+03</rscale>
<asrwt>0</asrwt>
<pdfrwt beam="1">  1       21 0.36305130E-01 0.21428570E+03</pdfrwt>
<pdfrwt beam="2">  1       21 0.35281249E-01 0.21428570E+03</pdfrwt>
<totfact> 0.56102468E+04</totfact>
</mgrwt>
</event>
<event>
12    1  0.1473662E-001  0.2452847E+03  0.7546771E-02  0.1116328E+00
         21   -1    0    0  504  503  0.00000000000E+00  0.00000000000E+00  0.13650655444E+03  0.13650655444E+03  0.00000000000E+00 0. -1.
         21   -1    0    0  502  504 -0.00000000000E+00 -0.00000000000E+00 -0.14294809381E+04  0.14294809381E+04  0.00000000000E+00 0.  1.
          6    2    1    2  502    0  0.56936442514E+02  0.16296506688E+03 -0.12976867357E+04  0.13206575348E+04  0.17420128753E+03 0.  0.
         24    2    3    3    0    0  0.10460392786E+03  0.11676953229E+03 -0.10171258377E+04  0.10323127341E+04  0.80916660065E+02 0.  0.
         -6    2    1    2    0  503 -0.56936442514E+02 -0.16296506688E+03  0.47123521296E+01  0.24532995771E+03  0.17425616310E+03 0.  0.
        -24    2    5    5    0    0 -0.65078108932E+02 -0.10057936546E+03 -0.65340983186E+02  0.15105471036E+03  0.64782037789E+02 0.  0.
          2    1    4    4  501    0  0.75466195598E+02  0.32083669813E+02 -0.36717457074E+03  0.37622024659E+03  0.00000000000E+00 0. -1.
         -1    1    4    4    0  501  0.29137732264E+02  0.84685862474E+02 -0.64995126700E+03  0.65609248755E+03  0.00000000000E+00 0.  1.
          5    1    3    3  502    0 -0.47667485349E+02  0.46195534590E+02 -0.28056089801E+03  0.28834480066E+03  0.47000000000E+01 0. -1.
         13    1    6    6    0    0 -0.10514202306E+02 -0.17431479059E+02  0.13257274383E+02  0.24293213793E+02  0.00000000000E+00 0. -1.
        -14    1    6    6    0    0 -0.54563906626E+02 -0.83147886397E+02 -0.78598257569E+02  0.12676149657E+03  0.00000000000E+00 0.  1.
         -5    1    5    5    0  503  0.81416664179E+01 -0.62385701420E+02  0.70053335316E+02  0.94275247349E+02  0.47000000000E+01 0.  1.
<mgrwt>
<rscale>  2 0.24527495E+03</rscale>
<asrwt>0</asrwt>
<pdfrwt beam="1">  1       21 0.21001008E-01 0.24528470E+03</pdfrwt>
<pdfrwt beam="2">  1       21 0.21992015E+00 0.24528470E+03</pdfrwt>
<totfact> 0.20159936E+03</totfact>
</mgrwt>
</event>
<event>
12    1  0.1473662E-001  0.2525927E+03  0.7546771E-02  0.1112004E+00
         21   -1    0    0  504  503  0.00000000000E+00  0.00000000000E+00  0.12485037796E+04  0.12485037796E+04  0.00000000000E+00 0.  1.
         21   -1    0    0  502  504 -0.00000000000E+00 -0.00000000000E+00 -0.69273939333E+03  0.69273939333E+03  0.00000000000E+00 0.  1.
          6    2    1    2  502    0  0.95800299464E+01  0.17976377909E+03 -0.65647371137E+03  0.70339236684E+03  0.17718999621E+03 0.  0.
         24    2    3    3    0    0  0.60256036318E+02  0.17416711942E+03 -0.50722941590E+03  0.54560982676E+03  0.80270961787E+02 0.  0.
         -6    2    1    2    0  503 -0.95800299464E+01 -0.17976377909E+03  0.12122380976E+04  0.12378508061E+04  0.17420281148E+03 0.  0.
        -24    2    5    5    0    0 -0.27379439826E+02 -0.97649084948E+02  0.38859747027E+03  0.40992229768E+03  0.82117712581E+02 0.  0.
          2    1    4    4  501    0  0.36120995954E+02  0.24715168311E+02 -0.66551915462E+02  0.79653771694E+02  0.00000000000E+00 0. -1.
         -1    1    4    4    0  501  0.24135040364E+02  0.14945195111E+03 -0.44067750044E+03  0.46595605507E+03  0.00000000000E+00 0.  1.
          5    1    3    3  502    0 -0.50676006372E+02  0.55966596689E+01 -0.14924429547E+03  0.15778254008E+03  0.47000000000E+01 0. -1.
         13    1    6    6    0    0 -0.11860633256E+02  0.10399581056E+02  0.19832421971E+02  0.25340695899E+02  0.00000000000E+00 0. -1.
        -14    1    6    6    0    0 -0.15518806570E+02 -0.10804866600E+03  0.36876504830E+03  0.38458160178E+03  0.00000000000E+00 0.  1.
         -5    1    5    5    0  503  0.17799409880E+02 -0.82114694145E+02  0.82364062734E+03  0.82792850838E+03  0.47000000000E+01 0.  1.
<mgrwt>
<rscale>  2 0.25206950E+03</rscale>
<asrwt>0</asrwt>
<pdfrwt beam="1">  1       21 0.19207750E+00 0.25259273E+03</pdfrwt>
<pdfrwt beam="2">  1       21 0.10657529E+00 0.25259273E+03</pdfrwt>
<totfact> 0.98819249E+01</totfact>
</mgrwt>
</event>
<event>
12    1  0.1473662E-001  0.1946972E+03  0.7546771E-02  0.1159236E+00
         21   -1    0    0  504  503  0.00000000000E+00  0.00000000000E+00  0.47940851763E+02  0.47940851763E+02  0.00000000000E+00 0.  1.
         21   -1    0    0  502  504 -0.00000000000E+00 -0.00000000000E+00 -0.93993750857E+03  0.93993750857E+03  0.00000000000E+00 0.  1.
          6    2    1    2  502    0 -0.83459670494E+01  0.22697732968E+02 -0.67238682182E+03  0.69438990886E+03  0.17172205777E+03 0.  0.
         24    2    3    3    0    0 -0.61970533835E+02 -0.17581651569E+02 -0.36659784585E+03  0.38129725356E+03  0.82729398959E+02 0.  0.
         -6    2    1    2    0  503  0.83459670494E+01 -0.22697732968E+02 -0.21960983499E+03  0.29348845147E+03  0.19318941295E+03 0.  0.
        -24    2    5    5    0    0  0.69853887483E+01  0.45936774939E+02 -0.20040754885E+03  0.22205061387E+03  0.83572163639E+02 0.  0.
          2    1    4    4  501    0 -0.52375623765E+02 -0.48949942860E+02 -0.26567707515E+03  0.27517923456E+03  0.00000000000E+00 0. -1.
         -1    1    4    4    0  501 -0.95949100705E+01  0.31368291291E+02 -0.10092077070E+03  0.10611801900E+03  0.00000000000E+00 0.  1.
          5    1    3    3  502    0  0.53624566786E+02  0.40279384537E+02 -0.30578897597E+03  0.31309265530E+03  0.47000000000E+01 0. -1.
         11    1    6    6    0    0 -0.28233152894E+02  0.23856481367E+02 -0.32970038648E+02  0.49530456025E+02  0.00000000000E+00 0. -1.
        -12    1    6    6    0    0  0.35218541642E+02  0.22080293572E+02 -0.16743751020E+03  0.17252015784E+03  0.00000000000E+00 0.  1.
         -5    1    5    5    0  503  0.13605783011E+01 -0.68634507907E+02 -0.19202286142E+02  0.71437837607E+02  0.47000000000E+01 0.  1.
<mgrwt>
<rscale>  2 0.18914392E+03</rscale>
<asrwt>0</asrwt>
<pdfrwt beam="1">  1       21 0.73755162E-02 0.19469718E+03</pdfrwt>
<pdfrwt beam="2">  1       21 0.14460576E+00 0.19469718E+03</pdfrwt>
<totfact> 0.45412881E+04</totfact>
</mgrwt>
</event>
<event>
12    1  0.1473662E-001  0.2742080E+03  0.7546771E-02  0.1098972E+00
         21   -1    0    0  504  503  0.00000000000E+00  0.00000000000E+00  0.89845588383E+02  0.89845588383E+02  0.00000000000E+00 0. -1.
         21   -1    0    0  502  504 -0.00000000000E+00 -0.00000000000E+00 -0.94924157230E+03  0.94924157230E+03  0.00000000000E+00 0. -1.
          6    2    1    2  502    0 -0.21601753691E+01 -0.21227998327E+03 -0.61013814519E+03  0.66892346608E+03  0.17355860568E+03 0.  0.
         24    2    3    3    0    0 -0.64148856031E+02 -0.62504417093E+02 -0.19308763011E+03  0.22145442930E+03  0.61133897859E+02 0.  0.
         -6    2    1    2    0  503  0.21601753691E+01  0.21227998327E+03 -0.24925783873E+03  0.37016369460E+03  0.17269693970E+03 0.  0.
        -24    2    5    5    0    0  0.24441888645E+02  0.21840311802E+03 -0.25480042750E+03  0.34594019742E+03  0.80337005501E+02 0.  0.
          4    1    4    4  501    0 -0.13190829769E+02  0.67382414056E+01 -0.68498113363E+02  0.70081334331E+02  0.00000000000E+00 0. -1.
         -3    1    4    4    0  501 -0.50958026262E+02 -0.69242658498E+02 -0.12458951675E+03  0.15137309497E+03  0.00000000000E+00 0.  1.
          5    1    3    3  502    0  0.61988680662E+02 -0.14977556617E+03 -0.41705051508E+03  0.44746903679E+03  0.47000000000E+01 0. -1.
         13    1    6    6    0    0  0.18623742212E+02  0.63225121502E+02 -0.13352892297E+03  0.14891015087E+03  0.00000000000E+00 0. -1.
        -14    1    6    6    0    0  0.58181464327E+01  0.15517799652E+03 -0.12127150454E+03  0.19703004655E+03  0.00000000000E+00 0.  1.
         -5    1    5    5    0  503 -0.22281713276E+02 -0.61231347515E+01  0.55425887728E+01  0.24223497187E+02  0.47000000000E+01 0.  1.
<mgrwt>
<rscale>  2 0.27407179E+03</rscale>
<asrwt>0</asrwt>
<pdfrwt beam="1">  1       21 0.13822398E-01 0.27420804E+03</pdfrwt>
<pdfrwt beam="2">  1       21 0.14603717E+00 0.27420804E+03</pdfrwt>
<totfact> 0.13878992E+04</totfact>
</mgrwt>
</event>
<event>
12    1  0.1473662E-001  0.2378521E+03  0.7546771E-02  0.1121253E+00
         21   -1    0    0  504  503  0.00000000000E+00  0.00000000000E+00  0.10623980705E+04  0.10623980705E+04  0.00000000000E+00 0. -1.
         21   -1    0    0  502  504 -0.00000000000E+00 -0.00000000000E+00 -0.83199882012E+02  0.83199882012E+02  0.00000000000E+00 0.  1.
          6    2    1    2  502    0 -0.14733436649E+03  0.68673838597E+02  0.14585743704E+03  0.27901256875E+03  0.17363787006E+03 0.  0.
         24    2    3    3    0    0 -0.14964248941E+02  0.46427816284E+02  0.92808443059E+02  0.13460682339E+03  0.84416342780E+02 0.  0.
         -6    2    1    2    0  503  0.14733436649E+03 -0.68673838597E+02  0.83334075142E+03  0.86658538373E+03  0.17346442768E+03 0.  0.
        -24    2    5    5    0    0  0.16882241140E+03 -0.52139324840E+02  0.80110832506E+03  0.82420442660E+03  0.79491336335E+02 0.  0.
          4    1    4    4  501    0  0.23169829614E+02 -0.65139729925E+00  0.62911823188E+02  0.67045975417E+02  0.00000000000E+00 0. -1.
         -3    1    4    4    0  501 -0.38134078555E+02  0.47079213583E+02  0.29896619871E+02  0.67560847971E+02  0.00000000000E+00 0.  1.
          5    1    3    3  502    0 -0.13237011755E+03  0.22246022313E+02  0.53048993980E+02  0.14440574536E+03  0.47000000000E+01 0. -1.
         13    1    6    6    0    0  0.13984660387E+03 -0.12212578439E+02  0.51099450715E+03  0.52992603826E+03  0.00000000000E+00 0. -1.
        -14    1    6    6    0    0  0.28975807534E+02 -0.39926746402E+02  0.29011381791E+03  0.29427838834E+03  0.00000000000E+00 0.  1.
         -5    1    5    5    0  503 -0.21488044907E+02 -0.16534513757E+02  0.32232426355E+02  0.42380957136E+02  0.47000000000E+01 0.  1.
<mgrwt>
<rscale>  2 0.23782045E+03</rscale>
<asrwt>0</asrwt>
<pdfrwt beam="1">  1       21 0.16344585E+00 0.23785210E+03</pdfrwt>
<pdfrwt beam="2">  1       21 0.12799983E-01 0.23785210E+03</pdfrwt>
<totfact> 0.12031087E+04</totfact>
</mgrwt>
</event>
<event>
12    1  0.1473662E-001  0.2174346E+03  0.7546771E-02  0.1136060E+00
         21   -1    0    0  504  503  0.00000000000E+00  0.00000000000E+00  0.17756503854E+03  0.17756503854E+03  0.00000000000E+00 0. -1.
         21   -1    0    0  502  504 -0.00000000000E+00 -0.00000000000E+00 -0.40201580851E+03  0.40201580851E+03  0.00000000000E+00 0.  1.
          6    2    1    2  502    0 -0.94072860445E+02  0.89318502712E+02 -0.28139841613E+03  0.35481247565E+03  0.17285637471E+03 0.  0.
         24    2    3    3    0    0 -0.13407508325E+03  0.68706617911E+02 -0.21821618640E+03  0.27710075339E+03  0.80435043531E+02 0.  0.
         -6    2    1    2    0  503  0.94072860445E+02 -0.89318502712E+02  0.56947646156E+02  0.22476837139E+03  0.17450010996E+03 0.  0.
        -24    2    5    5    0    0  0.62507101326E+02 -0.48013938770E+02  0.97686545590E+02  0.15855498847E+03  0.96873872360E+02 0.  0.
          2    1    4    4  501    0 -0.85560659685E+02  0.83485691276E+02 -0.14302272448E+03  0.18640275441E+03  0.00000000000E+00 0. -1.
         -1    1    4    4    0  501 -0.48514423561E+02 -0.14779073364E+02 -0.75193461918E+02  0.90697998976E+02  0.00000000000E+00 0.  1.
          5    1    3    3  502    0  0.40002222801E+02  0.20611884801E+02 -0.63182229726E+02  0.77711722264E+02  0.47000000000E+01 0. -1.
         11    1    6    6    0    0  0.74449032980E+02 -0.58908396534E+01  0.84622818578E+02  0.11286444049E+03  0.00000000000E+00 0. -1.
        -12    1    6    6    0    0 -0.11941931654E+02 -0.42123099116E+02  0.13063727012E+02  0.45690547975E+02  0.00000000000E+00 0.  1.
         -5    1    5    5    0  503  0.31565759119E+02 -0.41304563942E+02 -0.40738899434E+02  0.66213382925E+02  0.47000000000E+01 0.  1.
<mgrwt>
<rscale>  2 0.21710457E+03</rscale>
<asrwt>0</asrwt>
<pdfrwt beam="1">  1       21 0.27317698E-01 0.21743456E+03</pdfrwt>
<pdfrwt beam="2">  1       21 0.61848586E-01 0.21743456E+03</pdfrwt>
<totfact> 0.30606566E+04</totfact>
</mgrwt>
</event>
<event>
12    1  0.1473662E-001  0.2672206E+03  0.7546771E-02  0.1102962E+00
         21   -1    0    0  504  503  0.00000000000E+00  0.00000000000E+00  0.76384750289E+03  0.76384750289E+03  0.00000000000E+00 0.  1.
         21   -1    0    0  502  504 -0.00000000000E+00 -0.00000000000E+00 -0.94433464636E+02  0.94433464636E+02  0.00000000000E+00 0. -1.
          6    2    1    2  502    0 -0.10217461436E+03  0.17580639091E+03  0.28709737483E+03  0.39183386912E+03  0.17251475140E+03 0.  0.
         24    2    3    3    0    0 -0.10093849688E+03  0.17225099572E+03  0.16955557521E+03  0.27413793258E+03  0.80892071998E+02 0.  0.
         -6    2    1    2    0  503  0.10217461436E+03 -0.17580639091E+03  0.38231666342E+03  0.46644709841E+03  0.17337625436E+03 0.  0.
        -24    2    5    5    0    0  0.25757812829E+02 -0.17113534367E+02  0.17303259997E+03  0.19286921280E+03  0.79384599355E+02 0.  0.
          2    1    4    4  501    0 -0.41771710876E+02  0.86250401141E+02  0.13217040759E+03  0.16325753939E+03  0.00000000000E+00 0. -1.
         -1    1    4    4    0  501 -0.59166786001E+02  0.86000594582E+02  0.37385167623E+02  0.11088039318E+03  0.00000000000E+00 0.  1.
          5    1    3    3  502    0 -0.12361174838E+01  0.35553951904E+01  0.11754179962E+03  0.11769593654E+03  0.47000000000E+01 0. -1.
         11    1    6    6    0    0 -0.71756858307E+01  0.10599787232E+02 -0.17006235690E+01  0.12912709902E+02  0.00000000000E+00 0. -1.
        -12    1    6    6    0    0  0.32933498660E+02 -0.27713321599E+02  0.17473322354E+03  0.17995650290E+03  0.00000000000E+00 0.  1.
         -5    1    5    5    0  503  0.76416801532E+02 -0.15869285655E+03  0.20928406345E+03  0.27357788560E+03  0.47000000000E+01 0.  1.
<mgrwt>
<rscale>  2 0.26708098E+03</rscale>
<asrwt>0</asrwt>
<pdfrwt beam="1">  1       21 0.11751500E+00 0.26722063E+03</pdfrwt>
<pdfrwt beam="2">  1       21 0.14528226E-01 0.26722063E+03</pdfrwt>
<totfact> 0.22196814E+04</totfact>
</mgrwt>
</event>
<event>
12    1  0.1473662E-001  0.1911859E+03  0.7546771E-02  0.1157497E+00
         21   -1    0    0  504  503  0.00000000000E+00  0.00000000000E+00  0.15339789209E+03  0.15339789209E+03  0.00000000000E+00 0. -1.
         21   -1    0    0  502  504 -0.00000000000E+00 -0.00000000000E+00 -0.34963737748E+03  0.34963737748E+03  0.00000000000E+00 0. -1.
          6    2    1    2  502    0  0.24241256994E+02 -0.77430950233E+02 -0.24049662282E+03  0.30723062979E+03  0.17311511690E+03 0.  0.
         24    2    3    3    0    0 -0.47867240909E+02 -0.24370881499E+02 -0.15072496891E+03  0.18036043546E+03  0.83226545096E+02 0.  0.
         -6    2    1    2    0  503 -0.24241256994E+02  0.77430950233E+02  0.44257137426E+02  0.19580463978E+03  0.17261973279E+03 0.  0.
        -24    2    5    5    0    0  0.43818642362E+02  0.12391926818E+02  0.32943059155E+00  0.91814458052E+02  0.79725484721E+02 0.  0.
          2    1    4    4  501    0 -0.67401121605E+02 -0.22617112666E+02 -0.14218645821E+03  0.15896991501E+03  0.00000000000E+00 0. -1.
         -1    1    4    4    0  501  0.19533880696E+02 -0.17537688329E+01 -0.85385106952E+01  0.21390520448E+02  0.00000000000E+00 0.  1.
          5    1    3    3  502    0  0.72108497903E+02 -0.53060068734E+02 -0.89771653910E+02  0.12687019433E+03  0.47000000000E+01 0. -1.
         11    1    6    6    0    0  0.18393383118E+02  0.14375499472E+02  0.39022925147E+02  0.45472631490E+02  0.00000000000E+00 0. -1.
        -12    1    6    6    0    0  0.25425259244E+02 -0.19835726533E+01 -0.38693494556E+02  0.46341826561E+02  0.00000000000E+00 0.  1.
         -5    1    5    5    0  503 -0.68059899356E+02  0.65039023415E+02  0.43927706834E+02  0.10399018172E+03  0.47000000000E+01 0.  1.
<mgrwt>
<rscale>  2 0.19107365E+03</rscale>
<asrwt>0</asrwt>
<pdfrwt beam="1">  1       21 0.23599676E-01 0.19118586E+03</pdfrwt>
<pdfrwt beam="2">  1       21 0.53790365E-01 0.19118586E+03</pdfrwt>
<totfact> 0.55299165E+04</totfact>
</mgrwt>
</event>
<event>
12    1  0.1473662E-001  0.2014015E+03  0.7546771E-02  0.1148602E+00
         21   -1    0    0  504  503  0.00000000000E+00  0.00000000000E+00  0.13743925544E+04  0.13743925544E+04  0.00000000000E+00 0. -1.
         21   -1    0    0  502  504 -0.00000000000E+00 -0.00000000000E+00 -0.35258086220E+02  0.35258086220E+02  0.00000000000E+00 0. -1.
          6    2    1    2  502    0 -0.86050140477E+02 -0.55436385028E+02  0.38410006363E+03  0.43361105445E+03  0.17322779278E+03 0.  0.
         24    2    3    3    0    0 -0.79899285025E+01 -0.75775604533E+02  0.15807153751E+03  0.19357342164E+03  0.81720728050E+02 0.  0.
         -6    2    1    2    0  503  0.86050140477E+02  0.55436385028E+02  0.95503440452E+03  0.97603958614E+03  0.17344953286E+03 0.  0.
        -24    2    5    5    0    0 -0.11814942867E+02 -0.36802386478E+01  0.40734224795E+03  0.41652091970E+03  0.86074575536E+02 0.  0.
          4    1    4    4  501    0  0.19785639794E+02 -0.23441505100E+01  0.35312123941E+01  0.20234526054E+02  0.00000000000E+00 0. -1.
         -3    1    4    4    0  501 -0.27775568297E+02 -0.73431454023E+02  0.15454032512E+03  0.17333889558E+03  0.00000000000E+00 0.  1.
          5    1    3    3  502    0 -0.78060211974E+02  0.20339219505E+02  0.22602852612E+03  0.24003763281E+03  0.47000000000E+01 0. -1.
         11    1    6    6    0    0 -0.31154479247E+02  0.74787130539E+01  0.37941419097E+03  0.38076457429E+03  0.00000000000E+00 0. -1.
        -12    1    6    6    0    0  0.19339536380E+02 -0.11158951702E+02  0.27928056979E+02  0.35756345410E+02  0.00000000000E+00 0.  1.
         -5    1    5    5    0  503  0.97865083343E+02  0.59116623676E+02  0.54769215657E+03  0.55951866644E+03  0.47000000000E+01 0.  1.
<mgrwt>
<rscale>  2 0.20135374E+03</rscale>
<asrwt>0</asrwt>
<pdfrwt beam="1">  1       21 0.21144497E+00 0.20140149E+03</pdfrwt>
<pdfrwt beam="2">  1       21 0.54243220E-02 0.20140149E+03</pdfrwt>
<totfact> 0.26445691E+04</totfact>
</mgrwt>
</event>
<event>
12    1  0.1473662E-001  0.2245048E+03  0.7546771E-02  0.1130795E+00
         21   -1    0    0  504  503  0.00000000000E+00  0.00000000000E+00  0.95090748506E+02  0.95090748506E+02  0.00000000000E+00 0. -1.
         21   -1    0    0  502  504 -0.00000000000E+00 -0.00000000000E+00 -0.58117930128E+03  0.58117930128E+03  0.00000000000E+00 0. -1.
          6    2    1    2  502    0  0.64856277432E+02  0.12751746036E+03 -0.34556546169E+03  0.41141325416E+03  0.17140110260E+03 0.  0.
         24    2    3    3    0    0  0.77547588832E+01  0.93272902144E+01 -0.74901274703E+02  0.11056330509E+03  0.80417093041E+02 0.  0.
         -6    2    1    2    0  503 -0.64856277432E+02 -0.12751746036E+03 -0.14052309109E+03  0.26485679562E+03  0.17301833325E+03 0.  0.
        -24    2    5    5    0    0 -0.45750841204E+02 -0.15729766135E+03 -0.13917922978E+03  0.22913881657E+03  0.79360226318E+02 0.  0.
          2    1    4    4  501    0  0.35748004497E+02  0.29257621192E+02 -0.50350674829E+02  0.68330949643E+02  0.00000000000E+00 0. -1.
         -1    1    4    4    0  501 -0.27993245614E+02 -0.19930330977E+02 -0.24550599874E+02  0.42232355452E+02  0.00000000000E+00 0.  1.
          5    1    3    3  502    0  0.57101518549E+02  0.11819017014E+03 -0.27066418699E+03  0.30084994907E+03  0.47000000000E+01 0. -1.
         13    1    6    6    0    0 -0.21031015591E+02 -0.12619079360E+03 -0.13966755917E+03  0.18940286981E+03  0.00000000000E+00 0. -1.
        -14    1    6    6    0    0 -0.24719825613E+02 -0.31106867746E+02  0.48832939686E+00  0.39735946760E+02  0.00000000000E+00 0.  1.
         -5    1    5    5    0  503 -0.19105436228E+02  0.29780200991E+02 -0.13438613100E+01  0.35717979054E+02  0.47000000000E+01 0.  1.
<mgrwt>
<rscale>  2 0.22419311E+03</rscale>
<asrwt>0</asrwt>
<pdfrwt beam="1">  1       21 0.14629346E-01 0.22450475E+03</pdfrwt>
<pdfrwt beam="2">  1       21 0.89412202E-01 0.22450475E+03</pdfrwt>
<totfact> 0.43094210E+04</totfact>
</mgrwt>
</event>
<event>
12    1  0.1473662E-001  0.2914833E+03  0.7546771E-02  0.1089625E+00
         21   -1    0    0  504  503  0.00000000000E+00  0.00000000000E+00  0.63791237693E+03  0.63791237693E+03  0.00000000000E+00 0.  1.
         21   -1    0    0  502  504 -0.00000000000E+00 -0.00000000000E+00 -0.17451281286E+03  0.17451281286E+03  0.00000000000E+00 0. -1.
          6    2    1    2  502    0  0.23006361324E+03 -0.42285986906E+02  0.42965943194E+03  0.51899559925E+03  0.17329695256E+03 0.  0.
         24    2    3    3    0    0  0.94548644911E+02 -0.50585528217E+02  0.30420163840E+03  0.33407686849E+03  0.87007903881E+02 0.  0.
         -6    2    1    2    0  503 -0.23006361324E+03  0.42285986906E+02  0.33740132134E+02  0.29342959053E+03  0.17391134885E+03 0.  0.
        -24    2    5    5    0    0 -0.24955460991E+03  0.51086943701E+02  0.33750622166E+02  0.27153333739E+03  0.87771690614E+02 0.  0.
          2    1    4    4  501    0 -0.87177598353E+01 -0.10524121992E+02  0.10723121194E+03  0.10809851661E+03  0.00000000000E+00 0. -1.
         -1    1    4    4    0  501  0.10326640475E+03 -0.40061406225E+02  0.19697042646E+03  0.22597835188E+03  0.00000000000E+00 0.  1.
          5    1    3    3  502    0  0.13551496832E+03  0.82995413110E+01  0.12545779354E+03  0.18491873076E+03  0.47000000000E+01 0. -1.
         13    1    6    6    0    0 -0.16909957162E+03  0.55025497977E+02  0.58604141963E+02  0.18723492197E+03  0.00000000000E+00 0. -1.
        -14    1    6    6    0    0 -0.80455038286E+02 -0.39385542763E+01 -0.24853519797E+02  0.84298415416E+02  0.00000000000E+00 0.  1.
         -5    1    5    5    0  503  0.19490996671E+02 -0.88009567945E+01 -0.10490032068E-01  0.21896253145E+02  0.47000000000E+01 0.  1.
<mgrwt>
<rscale>  2 0.29139174E+03</rscale>
<asrwt>0</asrwt>
<pdfrwt beam="1">  1       21 0.98140365E-01 0.29148332E+03</pdfrwt>
<pdfrwt beam="2">  1       21 0.26848125E-01 0.29148332E+03</pdfrwt>
<totfact> 0.10709008E+04</totfact>
</mgrwt>
</event>
<event>
12    1  0.1473662E-001  0.1891124E+03  0.7546771E-02  0.1159864E+00
         21   -1    0    0  504  503  0.00000000000E+00  0.00000000000E+00  0.21439519504E+03  0.21439519504E+03  0.00000000000E+00 0. -1.
         21   -1    0    0  502  504 -0.00000000000E+00 -0.00000000000E+00 -0.17296034273E+03  0.17296034273E+03  0.00000000000E+00 0. -1.
          6    2    1    2  502    0  0.13590350841E+02 -0.69743322866E+02 -0.22243062458E+02  0.18781008473E+03  0.17242112800E+03 0.  0.
         24    2    3    3    0    0 -0.38995857029E+02 -0.76521123941E+02  0.19428212926E+02  0.12020954451E+03  0.81833488624E+02 0.  0.
         -6    2    1    2    0  503 -0.13590350841E+02  0.69743322866E+02  0.63677914777E+02  0.19954545304E+03  0.17525604776E+03 0.  0.
        -24    2    5    5    0    0  0.38186085052E+02  0.93564926241E+02  0.60284185184E+02  0.14225779729E+03  0.79940761762E+02 0.  0.
          4    1    4    4  501    0 -0.36884165307E+02 -0.69645846618E+02  0.46969346014E+02  0.91744782230E+02  0.00000000000E+00 0. -1.
         -3    1    4    4    0  501 -0.21116917225E+01 -0.68752773230E+01 -0.27541133087E+02  0.28464762285E+02  0.00000000000E+00 0.  1.
          5    1    3    3  502    0  0.52586207870E+02  0.67778010747E+01 -0.41671275384E+02  0.67600540218E+02  0.47000000000E+01 0. -1.
         11    1    6    6    0    0  0.38420451117E+02  0.52120194582E+02 -0.49843430376E+01  0.64942200631E+02  0.00000000000E+00 0. -1.
        -12    1    6    6    0    0 -0.23436606506E+00  0.41444731659E+02  0.65268528222E+02  0.77315596654E+02  0.00000000000E+00 0.  1.
         -5    1    5    5    0  503 -0.51776435893E+02 -0.23821603375E+02  0.33937295922E+01  0.57287655753E+02  0.47000000000E+01 0.  1.
<mgrwt>
<rscale>  2 0.18845295E+03</rscale>
<asrwt>0</asrwt>
<pdfrwt beam="1">  1       21 0.32983876E-01 0.18911243E+03</pdfrwt>
<pdfrwt beam="2">  1       21 0.26609283E-01 0.18911243E+03</pdfrwt>
<totfact> 0.11908969E+05</totfact>
</mgrwt>
</event>
<event>
12    1  0.1473662E-001  0.2079996E+03  0.7546771E-02  0.1143428E+00
         21   -1    0    0  504  503  0.00000000000E+00  0.00000000000E+00  0.52076245933E+03  0.52076245933E+03  0.00000000000E+00 0. -1.
         21   -1    0    0  502  504 -0.00000000000E+00 -0.00000000000E+00 -0.19449460435E+03  0.19449460435E+03  0.00000000000E+00 0. -1.
          6    2    1    2  502    0  0.10338477405E+03 -0.48422237158E+02 -0.10796614964E+03  0.23435129689E+03  0.17386982582E+03 0.  0.
         24    2    3    3    0    0  0.14810449469E+02 -0.64208732328E+02 -0.17375172203E+02  0.10658807997E+03  0.81957375889E+02 0.  0.
         -6    2    1    2    0  503 -0.10338477405E+03  0.48422237158E+02  0.43423400462E+03  0.48090576679E+03  0.17227321674E+03 0.  0.
        -24    2    5    5    0    0  0.35541245595E+01  0.59086241471E+02  0.19803813557E+03  0.22136727720E+03  0.79249937168E+02 0.  0.
          2    1    4    4  501    0  0.14611008278E+01  0.19590958989E+02 -0.80136046208E+01  0.21216935424E+02  0.00000000000E+00 0. -1.
         -1    1    4    4    0  501  0.13349348641E+02 -0.83799691318E+02 -0.93615675817E+01  0.85371144549E+02  0.00000000000E+00 0.  1.
          5    1    3    3  502    0  0.88574324580E+02  0.15786495170E+02 -0.90590977435E+02  0.12776321692E+03  0.47000000000E+01 0. -1.
         11    1    6    6    0    0 -0.37414999650E+02  0.26144429920E+02  0.10525939414E+03  0.11472991532E+03  0.00000000000E+00 0. -1.
        -12    1    6    6    0    0  0.40969124210E+02  0.32941811552E+02  0.92778741432E+02  0.10663736188E+03  0.00000000000E+00 0.  1.
         -5    1    5    5    0  503 -0.10693889861E+03 -0.10664004313E+02  0.23619586905E+03  0.25953848959E+03  0.47000000000E+01 0.  1.
<mgrwt>
<rscale>  2 0.20766562E+03</rscale>
<asrwt>0</asrwt>
<pdfrwt beam="1">  1       21 0.80117301E-01 0.20799962E+03</pdfrwt>
<pdfrwt beam="2">  1       21 0.29922247E-01 0.20799962E+03</pdfrwt>
<totfact> 0.14537491E+04</totfact>
</mgrwt>
</event>
<event>
12    1  0.1473662E-001  0.1932171E+03  0.7546771E-02  0.1157960E+00
         21   -1    0    0  504  503  0.00000000000E+00  0.00000000000E+00  0.98775232572E+03  0.98775232572E+03  0.00000000000E+00 0. -1.
         21   -1    0    0  502  504 -0.00000000000E+00 -0.00000000000E+00 -0.57419411632E+02  0.57419411632E+02  0.00000000000E+00 0.  1.
          6    2    1    2  502    0  0.49965474856E+02  0.30468526234E+02  0.13643006264E+03  0.22809487666E+03  0.17317399053E+03 0.  0.
         24    2    3    3    0    0  0.56846431301E+02 -0.29334945826E+02  0.12433633220E+03  0.16651443213E+03  0.90418343299E+02 0.  0.
         -6    2    1    2    0  503 -0.49965474856E+02 -0.30468526234E+02  0.79390285144E+03  0.81707686069E+03  0.18414119305E+03 0.  0.
        -24    2    5    5    0    0 -0.91359332178E+02 -0.34691554790E+02  0.35356212561E+03  0.37474968515E+03  0.76688449613E+02 0.  0.
          2    1    4    4  501    0  0.21755003323E+02 -0.32676073269E+02  0.12524471953E+03  0.13125260266E+03  0.00000000000E+00 0. -1.
         -1    1    4    4    0  501  0.35091427979E+02  0.33411274427E+01 -0.90838733445E+00  0.35261829472E+02  0.00000000000E+00 0.  1.
          5    1    3    3  502    0 -0.68809564456E+01  0.59803472061E+02  0.12093730443E+02  0.61580444527E+02  0.47000000000E+01 0. -1.
         11    1    6    6    0    0  0.81004227612E+01  0.36909416316E+01  0.90052334140E+02  0.90491230421E+02  0.00000000000E+00 0. -1.
        -12    1    6    6    0    0 -0.99459754939E+02 -0.38382496421E+02  0.26350979147E+03  0.28425845472E+03  0.00000000000E+00 0.  1.
         -5    1    5    5    0  503  0.41393857322E+02  0.42230285554E+01  0.44034072584E+03  0.44232717555E+03  0.47000000000E+01 0.  1.
<mgrwt>
<rscale>  2 0.19055724E+03</rscale>
<asrwt>0</asrwt>
<pdfrwt beam="1">  1       21 0.15196188E+00 0.19321713E+03</pdfrwt>
<pdfrwt beam="2">  1       21 0.88337564E-02 0.19321713E+03</pdfrwt>
<totfact> 0.29142423E+04</totfact>
</mgrwt>
</event>
<event>
12    1  0.1473662E-001  0.2193294E+03  0.7546771E-02  0.1134410E+00
         21   -1    0    0  504  503  0.00000000000E+00  0.00000000000E+00  0.34307972543E+03  0.34307972543E+03  0.00000000000E+00 0. -1.
         21   -1    0    0  502  504 -0.00000000000E+00 -0.00000000000E+00 -0.16243716875E+03  0.16243716875E+03  0.00000000000E+00 0.  1.
          6    2    1    2  502    0  0.11603928059E+03  0.68845501340E+02  0.18401738257E+03  0.28630017678E+03  0.17291783148E+03 0.  0.
         24    2    3    3    0    0  0.12094425847E+03  0.82847236381E+02  0.20195736531E+03  0.26255064262E+03  0.81577474256E+02 0.  0.
         -6    2    1    2    0  503 -0.11603928059E+03 -0.68845501340E+02 -0.33748258872E+01  0.21921671740E+03  0.17274189430E+03 0.  0.
        -24    2    5    5    0    0 -0.47208404208E+02  0.75874536022E+01 -0.49918232528E+02  0.10622085533E+03  0.80652571488E+02 0.  0.
          4    1    4    4  501    0  0.11691136190E+03  0.39697653065E+02  0.16127101963E+03  0.20310714407E+03  0.00000000000E+00 0. -1.
         -3    1    4    4    0  501  0.40328965646E+01  0.43149583316E+02  0.40686345681E+02  0.59443498550E+02  0.00000000000E+00 0.  1.
          5    1    3    3  502    0 -0.49049778779E+01 -0.14001735041E+02 -0.17939982740E+02  0.23749534161E+02  0.47000000000E+01 0. -1.
         13    1    6    6    0    0 -0.20908106348E+02 -0.35719975307E+01  0.20948499566E+02  0.29811871989E+02  0.00000000000E+00 0. -1.
        -14    1    6    6    0    0 -0.26300297860E+02  0.11159451133E+02 -0.70866732094E+02  0.76408983338E+02  0.00000000000E+00 0.  1.
         -5    1    5    5    0  503 -0.68830876380E+02 -0.76432954942E+02  0.46543406641E+02  0.11299586208E+03  0.47000000000E+01 0.  1.
<mgrwt>
<rscale>  2 0.21929474E+03</rscale>
<asrwt>0</asrwt>
<pdfrwt beam="1">  1       21 0.52781496E-01 0.21932942E+03</pdfrwt>
<pdfrwt beam="2">  1       21 0.24990334E-01 0.21932942E+03</pdfrwt>
<totfact> 0.50921643E+04</totfact>
</mgrwt>
</event>
<event>
12    1  0.1473662E-001  0.2591390E+03  0.7546771E-02  0.1107750E+00
         21   -1    0    0  504  503  0.00000000000E+00  0.00000000000E+00  0.80432667061E+02  0.80432667061E+02  0.00000000000E+00 0.  1.
         21   -1    0    0  502  504 -0.00000000000E+00 -0.00000000000E+00 -0.83432997463E+03  0.83432997463E+03  0.00000000000E+00 0.  1.
          6    2    1    2  502    0 -0.19292212225E+03 -0.56164192304E+01 -0.35837619054E+03  0.44190960629E+03  0.17204684467E+03 0.  0.
         24    2    3    3    0    0 -0.15953468334E+03  0.47786030203E+02 -0.20003285762E+03  0.27143601958E+03  0.77003563089E+02 0.  0.
         -6    2    1    2    0  503  0.19292212225E+03  0.56164192304E+01 -0.39552111703E+03  0.47285303540E+03  0.17292353703E+03 0.  0.
        -24    2    5    5    0    0  0.85738353651E+02  0.12415501822E+02 -0.11031896467E+03  0.16806303313E+03  0.92572669657E+02 0.  0.
          4    1    4    4  501    0 -0.11360260579E+03  0.62839924208E+02 -0.11408563893E+03  0.17282922533E+03  0.00000000000E+00 0. -1.
         -3    1    4    4    0  501 -0.45932077546E+02 -0.15053894006E+02 -0.85947218692E+02  0.98606794255E+02  0.00000000000E+00 0.  1.
          5    1    3    3  502    0 -0.33387438916E+02 -0.53402449433E+02 -0.15834333292E+03  0.17047358671E+03  0.47000000000E+01 0. -1.
         13    1    6    6    0    0  0.45148885876E+02 -0.37891898021E+02 -0.33989709357E+02  0.68040562708E+02  0.00000000000E+00 0. -1.
        -14    1    6    6    0    0  0.40589467775E+02  0.50307399843E+02 -0.76329255309E+02  0.10002247042E+03  0.00000000000E+00 0.  1.
         -5    1    5    5    0  503  0.10718376860E+03 -0.67990825915E+01 -0.28520215236E+03  0.30479000227E+03  0.47000000000E+01 0.  1.
<mgrwt>
<rscale>  2 0.25899286E+03</rscale>
<asrwt>0</asrwt>
<pdfrwt beam="1">  1       21 0.12374257E-01 0.25913903E+03</pdfrwt>
<pdfrwt beam="2">  1       21 0.12835846E+00 0.25913903E+03</pdfrwt>
<totfact> 0.23886883E+04</totfact>
</mgrwt>
</event>
<event>
12    1  0.1473662E-001  0.2351398E+03  0.7546771E-02  0.1123476E+00
         21   -1    0    0  504  503  0.00000000000E+00  0.00000000000E+00  0.84154977907E+03  0.84154977907E+03  0.00000000000E+00 0. -1.
         21   -1    0    0  502  504 -0.00000000000E+00 -0.00000000000E+00 -0.23127176764E+03  0.23127176764E+03  0.00000000000E+00 0.  1.
          6    2    1    2  502    0  0.59958139888E+01 -0.15925206833E+03 -0.15004937090E+03  0.27696448173E+03  0.16969778838E+03 0.  0.
         24    2    3    3    0    0 -0.57420941016E+02 -0.11878135150E+03 -0.98588464813E+02  0.18569631318E+03  0.85774479900E+02 0.  0.
         -6    2    1    2    0  503 -0.59958139888E+01  0.15925206833E+03  0.76032738233E+03  0.79585706498E+03  0.17289756649E+03 0.  0.
        -24    2    5    5    0    0 -0.29588473740E+02  0.18217773827E+03  0.64214595781E+03  0.67309249746E+03  0.81473142210E+02 0.  0.
          2    1    4    4  501    0 -0.17787127377E+02 -0.20526110291E+02 -0.71289239013E+02  0.76287998421E+02  0.00000000000E+00 0. -1.
         -1    1    4    4    0  501 -0.39633813639E+02 -0.98255241209E+02 -0.27299225800E+02  0.10940831476E+03  0.00000000000E+00 0.  1.
          5    1    3    3  502    0  0.63416755005E+02 -0.40470716828E+02 -0.51460906088E+02  0.91268168555E+02  0.47000000000E+01 0. -1.
         13    1    6    6    0    0  0.26530495078E+02  0.46285506705E+02  0.20773396511E+03  0.21447520966E+03  0.00000000000E+00 0. -1.
        -14    1    6    6    0    0 -0.56118968819E+02  0.13589223157E+03  0.43441199270E+03  0.45861728780E+03  0.00000000000E+00 0.  1.
         -5    1    5    5    0  503  0.23592659752E+02 -0.22925669943E+02  0.11818142452E+03  0.12276456752E+03  0.47000000000E+01 0.  1.
<mgrwt>
<rscale>  2 0.23455196E+03</rscale>
<asrwt>0</asrwt>
<pdfrwt beam="1">  1       21 0.12946920E+00 0.23513983E+03</pdfrwt>
<pdfrwt beam="2">  1       21 0.35580272E-01 0.23513983E+03</pdfrwt>
<totfact> 0.32135425E+03</totfact>
</mgrwt>
</event>
<event>
12    1  0.1473662E-001  0.2340988E+03  0.7546771E-02  0.1123891E+00
         21   -1    0    0  504  503  0.00000000000E+00  0.00000000000E+00  0.46675621884E+03  0.46675621884E+03  0.00000000000E+00 0.  1.
         21   -1    0    0  502  504 -0.00000000000E+00 -0.00000000000E+00 -0.13422102816E+03  0.13422102816E+03  0.00000000000E+00 0.  1.
          6    2    1    2  502    0 -0.15629249734E+03  0.22199677175E+02  0.59166552678E+02  0.24145996489E+03  0.17286429156E+03 0.  0.
         24    2    3    3    0    0 -0.12121973173E+03  0.37679301864E+02  0.10179064859E+03  0.18393934927E+03  0.85781087208E+02 0.  0.
         -6    2    1    2    0  503  0.15629249734E+03 -0.22199677175E+02  0.27336863800E+03  0.35951728212E+03  0.17205258937E+03 0.  0.
        -24    2    5    5    0    0  0.47116893394E+02  0.28263502725E+01  0.21326185010E+03  0.23231456792E+03  0.79129336302E+02 0.  0.
          4    1    4    4  501    0 -0.21972512295E+02 -0.11070590092E+02  0.61525246701E+02  0.66262396901E+02  0.00000000000E+00 0. -1.
         -3    1    4    4    0  501 -0.99247219431E+02  0.48749891956E+02  0.40265401887E+02  0.11767695237E+03  0.00000000000E+00 0.  1.
          5    1    3    3  502    0 -0.35072765613E+02 -0.15479624689E+02 -0.42624095910E+02  0.57520615612E+02  0.47000000000E+01 0. -1.
         13    1    6    6    0    0 -0.90032537472E+01  0.23413036806E+02  0.27737900337E+02  0.37398128103E+02  0.00000000000E+00 0. -1.
        -14    1    6    6    0    0  0.56120147142E+02 -0.20586686533E+02  0.18552394976E+03  0.19491643982E+03  0.00000000000E+00 0.  1.
         -5    1    5    5    0  503  0.10917560394E+03 -0.25026027447E+02  0.60106787903E+02  0.12720271419E+03  0.47000000000E+01 0.  1.
<mgrwt>
<rscale>  2 0.23394894E+03</rscale>
<asrwt>0</asrwt>
<pdfrwt beam="1">  1       21 0.71808648E-01 0.23409877E+03</pdfrwt>
<pdfrwt beam="2">  1       21 0.20649389E-01 0.23409877E+03</pdfrwt>
<totfact> 0.37299687E+04</totfact>
</mgrwt>
</event>
<event>
12    1  0.1473662E-001  0.2346089E+03  0.7546771E-02  0.1123537E+00
         21   -1    0    0  504  503  0.00000000000E+00  0.00000000000E+00  0.22911309452E+03  0.22911309452E+03  0.00000000000E+00 0. -1.
         21   -1    0    0  502  504 -0.00000000000E+00 -0.00000000000E+00 -0.62864086800E+03  0.62864086800E+03  0.00000000000E+00 0. -1.
          6    2    1    2  502    0  0.12762098532E+03  0.93122343458E+02 -0.53722715343E+03  0.58622039296E+03  0.17344292430E+03 0.  0.
         24    2    3    3    0    0  0.99452206134E+02  0.66126839763E+02 -0.52475982196E+03  0.54499222669E+03  0.85907835253E+02 0.  0.
         -6    2    1    2    0  503 -0.12762098532E+03 -0.93122343458E+02  0.13769937995E+03  0.27153356957E+03  0.17265709779E+03 0.  0.
        -24    2    5    5    0    0 -0.76203566565E+02 -0.12976912016E+03  0.10447710488E+03  0.20003149439E+03  0.80312671462E+02 0.  0.
          4    1    4    4  501    0  0.10285573903E+03  0.32051028051E+02 -0.45071218753E+03  0.46340915770E+03  0.00000000000E+00 0. -1.
         -3    1    4    4    0  501 -0.34035328970E+01  0.34075811713E+02 -0.74047634433E+02  0.81583068986E+02  0.00000000000E+00 0.  1.
          5    1    3    3  502    0  0.28168779182E+02  0.26995503694E+02 -0.12467331470E+02  0.41228166274E+02  0.47000000000E+01 0. -1.
         11    1    6    6    0    0 -0.53774357475E+02 -0.11495329584E+03  0.44808221750E+02  0.13458721515E+03  0.00000000000E+00 0. -1.
        -12    1    6    6    0    0 -0.22429209090E+02 -0.14815824327E+02  0.59668883127E+02  0.65444279234E+02  0.00000000000E+00 0.  1.
         -5    1    5    5    0  503 -0.51417418751E+02  0.36646776707E+02  0.33222275074E+02  0.71502075180E+02  0.47000000000E+01 0.  1.
<mgrwt>
<rscale>  2 0.23446367E+03</rscale>
<asrwt>0</asrwt>
<pdfrwt beam="1">  1       21 0.35248169E-01 0.23460890E+03</pdfrwt>
<pdfrwt beam="2">  1       21 0.96713979E-01 0.23460890E+03</pdfrwt>
<totfact> 0.66920635E+03</totfact>
</mgrwt>
</event>
<event>
12    1  0.1473662E-001  0.2017339E+03  0.7546771E-02  0.1148840E+00
         21   -1    0    0  504  503  0.00000000000E+00  0.00000000000E+00  0.14162386898E+03  0.14162386898E+03  0.00000000000E+00 0.  1.
         21   -1    0    0  502  504 -0.00000000000E+00 -0.00000000000E+00 -0.29510398240E+03  0.29510398240E+03  0.00000000000E+00 0. -1.
          6    2    1    2  502    0 -0.68238052091E+02 -0.79931322219E+02 -0.11936685465E+03  0.23212998066E+03  0.16908706014E+03 0.  0.
         24    2    3    3    0    0  0.17857374603E+02 -0.10166624318E+02 -0.85367858002E+02  0.11612326816E+03  0.75991421561E+02 0.  0.
         -6    2    1    2    0  503  0.68238052091E+02  0.79931322219E+02 -0.34113258770E+02  0.20459787072E+03  0.17219502390E+03 0.  0.
        -24    2    5    5    0    0 -0.81958892225E+01 -0.12400261259E+02 -0.13533087305E+02  0.82889604157E+02  0.80415191014E+02 0.  0.
          4    1    4    4  501    0  0.38710021529E+01  0.32199393527E+02 -0.24450106912E+02  0.40615185943E+02  0.00000000000E+00 0. -1.
         -3    1    4    4    0  501  0.13986372450E+02 -0.42366017845E+02 -0.60917751090E+02  0.75508082218E+02  0.00000000000E+00 0.  1.
          5    1    3    3  502    0 -0.86095426694E+02 -0.69764697901E+02 -0.33998996649E+02  0.11600671250E+03  0.47000000000E+01 0. -1.
         11    1    6    6    0    0 -0.35584290193E+02 -0.27826745467E+02 -0.22128567270E+02  0.50301520467E+02  0.00000000000E+00 0. -1.
        -12    1    6    6    0    0  0.27388400971E+02  0.15426484208E+02  0.85954799653E+01  0.32588083690E+02  0.00000000000E+00 0.  1.
         -5    1    5    5    0  503  0.76433941314E+02  0.92331583478E+02 -0.20580171465E+02  0.12170826656E+03  0.47000000000E+01 0.  1.
<mgrwt>
<rscale>  2 0.20106907E+03</rscale>
<asrwt>0</asrwt>
<pdfrwt beam="1">  1       21 0.21788288E-01 0.20173392E+03</pdfrwt>
<pdfrwt beam="2">  1       21 0.45400612E-01 0.20173392E+03</pdfrwt>
<totfact> 0.91126643E+04</totfact>
</mgrwt>
</event>
<event>
12    1  0.1473662E-001  0.2282725E+03  0.7546771E-02  0.1128028E+00
         21   -1    0    0  504  503  0.00000000000E+00  0.00000000000E+00  0.82440070443E+02  0.82440070443E+02  0.00000000000E+00 0.  1.
         21   -1    0    0  502  504 -0.00000000000E+00 -0.00000000000E+00 -0.63791000202E+03  0.63791000202E+03  0.00000000000E+00 0.  1.
          6    2    1    2  502    0  0.13870116642E+02  0.14597432246E+03 -0.23692260753E+03  0.32899949704E+03  0.17494989038E+03 0.  0.
         24    2    3    3    0    0  0.73019050018E+02  0.88991789521E+02 -0.18189292573E+03  0.23002494850E+03  0.81087115113E+02 0.  0.
         -6    2    1    2    0  503 -0.13870116642E+02 -0.14597432246E+03 -0.31854732405E+03  0.39135057542E+03  0.17372965282E+03 0.  0.
        -24    2    5    5    0    0 -0.75062346742E+02 -0.85063120246E+02 -0.16658899095E+03  0.21651325510E+03  0.79094926525E+02 0.  0.
          4    1    4    4  501    0  0.76544356116E+02  0.45263731838E+02 -0.15462125812E+03  0.17836921634E+03  0.00000000000E+00 0. -1.
         -3    1    4    4    0  501 -0.35253060977E+01  0.43728057683E+02 -0.27271667602E+02  0.51655732166E+02  0.00000000000E+00 0.  1.
          5    1    3    3  502    0 -0.59148933376E+02  0.56982532938E+02 -0.55029681803E+02  0.98974548541E+02  0.47000000000E+01 0. -1.
         13    1    6    6    0    0  0.51178260991E+01 -0.41724135257E+02 -0.27538782708E+02  0.50254155649E+02  0.00000000000E+00 0. -1.
        -14    1    6    6    0    0 -0.80180172841E+02 -0.43338984989E+02 -0.13905020825E+03  0.16625909945E+03  0.00000000000E+00 0.  1.
         -5    1    5    5    0  503  0.61192230100E+02 -0.60911202213E+02 -0.15195833309E+03  0.17483732032E+03  0.47000000000E+01 0.  1.
<mgrwt>
<rscale>  2 0.22803871E+03</rscale>
<asrwt>0</asrwt>
<pdfrwt beam="1">  1       21 0.12683088E-01 0.22827253E+03</pdfrwt>
<pdfrwt beam="2">  1       21 0.98139999E-01 0.22827253E+03</pdfrwt>
<totfact> 0.44796683E+04</totfact>
</mgrwt>
</event>
<event>
12    1  0.1473662E-001  0.1872135E+03  0.7546771E-02  0.1161080E+00
         21   -1    0    0  504  503  0.00000000000E+00  0.00000000000E+00  0.17576906401E+02  0.17576906401E+02  0.00000000000E+00 0.  1.
         21   -1    0    0  502  504 -0.00000000000E+00 -0.00000000000E+00 -0.19904169782E+04  0.19904169782E+04  0.00000000000E+00 0.  1.
          6    2    1    2  502    0 -0.64757474160E+02  0.29598088429E+02 -0.97866902202E+03  0.99641455417E+03  0.17314540655E+03 0.  0.
         24    2    3    3    0    0 -0.11929326190E+01  0.17328710389E+02 -0.22766402411E+03  0.24260981456E+03  0.82017723418E+02 0.  0.
         -6    2    1    2    0  503  0.64757474160E+02 -0.29598088429E+02 -0.99417104981E+03  0.10115793305E+04  0.17276309858E+03 0.  0.
        -24    2    5    5    0    0 -0.63875685811E+01 -0.43105471579E+02 -0.31226970984E+03  0.32582748470E+03  0.82172351739E+02 0.  0.
          2    1    4    4  501    0 -0.31116107977E+02  0.36691760045E+02 -0.12531094334E+03  0.13422864803E+03  0.00000000000E+00 0. -1.
         -1    1    4    4    0  501  0.29923175358E+02 -0.19363049656E+02 -0.10235308077E+03  0.10838116653E+03  0.00000000000E+00 0.  1.
          5    1    3    3  502    0 -0.63564541541E+02  0.12269378040E+02 -0.75100499791E+03  0.75380473961E+03  0.47000000000E+01 0. -1.
         11    1    6    6    0    0  0.31908325913E+02  0.30941146818E+01 -0.13179318022E+03  0.13563612041E+03  0.00000000000E+00 0. -1.
        -12    1    6    6    0    0 -0.38295894495E+02 -0.46199586261E+02 -0.18047652962E+03  0.19019136429E+03  0.00000000000E+00 0.  1.
         -5    1    5    5    0  503  0.71145042741E+02  0.13507383151E+02 -0.68190133997E+03  0.68575184576E+03  0.47000000000E+01 0.  1.
<mgrwt>
<rscale>  2 0.18712510E+03</rscale>
<asrwt>0</asrwt>
<pdfrwt beam="1">  1       21 0.27041400E-02 0.18721354E+03</pdfrwt>
<pdfrwt beam="2">  1       21 0.30621794E+00 0.18721354E+03</pdfrwt>
<totfact> 0.23739352E+04</totfact>
</mgrwt>
</event>
<event>
12    1  0.1473662E-001  0.2108192E+03  0.7546771E-02  0.1141103E+00
         21   -1    0    0  504  503  0.00000000000E+00  0.00000000000E+00  0.13149634400E+03  0.13149634400E+03  0.00000000000E+00 0.  1.
         21   -1    0    0  502  504 -0.00000000000E+00 -0.00000000000E+00 -0.36146847663E+03  0.36146847663E+03  0.00000000000E+00 0. -1.
          6    2    1    2  502    0 -0.71339884084E+02 -0.95881212833E+02 -0.17952695632E+03  0.27619434754E+03  0.17254217899E+03 0.  0.
         24    2    3    3    0    0 -0.40424077912E+02 -0.13284163230E+03 -0.12031003223E+03  0.19970517329E+03  0.78272901044E+02 0.  0.
         -6    2    1    2    0  503  0.71339884084E+02  0.95881212833E+02 -0.50445176310E+02  0.21677047308E+03  0.17367249682E+03 0.  0.
        -24    2    5    5    0    0  0.44697870417E+02 -0.16860089678E+02 -0.26002142318E+02  0.98280177724E+02  0.81857923773E+02 0.  0.
          2    1    4    4  501    0  0.16559208365E+02 -0.61104535291E+02 -0.72891150788E+02  0.96545799899E+02  0.00000000000E+00 0. -1.
         -1    1    4    4    0  501 -0.56983286277E+02 -0.71737097007E+02 -0.47418881443E+02  0.10315937339E+03  0.00000000000E+00 0.  1.
          5    1    3    3  502    0 -0.30915806172E+02  0.36960419465E+02 -0.59216924091E+02  0.76489174248E+02  0.47000000000E+01 0. -1.
         13    1    6    6    0    0  0.66403107586E+02 -0.58995243795E+01 -0.62576340625E+01  0.66957711050E+02  0.00000000000E+00 0. -1.
        -14    1    6    6    0    0 -0.21705237169E+02 -0.10960565298E+02 -0.19744508256E+02  0.31322466673E+02  0.00000000000E+00 0.  1.
         -5    1    5    5    0  503  0.26642013667E+02  0.11274130251E+03 -0.24443033992E+02  0.11849029536E+03  0.47000000000E+01 0.  1.
<mgrwt>
<rscale>  2 0.21058624E+03</rscale>
<asrwt>0</asrwt>
<pdfrwt beam="1">  1       21 0.20230206E-01 0.21081917E+03</pdfrwt>
<pdfrwt beam="2">  1       21 0.55610536E-01 0.21081917E+03</pdfrwt>
<totfact> 0.68290586E+04</totfact>
</mgrwt>
</event>
<event>
12    1  0.1473662E-001  0.2632668E+03  0.7546771E-02  0.1105522E+00
         21   -1    0    0  504  503  0.00000000000E+00  0.00000000000E+00  0.22401606167E+03  0.22401606167E+03  0.00000000000E+00 0.  1.
         21   -1    0    0  502  504 -0.00000000000E+00 -0.00000000000E+00 -0.41308081143E+03  0.41308081143E+03  0.00000000000E+00 0.  1.
          6    2    1    2  502    0  0.14925809510E+03  0.12936842420E+03 -0.25638983963E+03  0.36748492979E+03  0.17405532346E+03 0.  0.
         24    2    3    3    0    0  0.17804693618E+03  0.12758707485E+03 -0.23147254931E+03  0.32908008722E+03  0.82066982215E+02 0.  0.
         -6    2    1    2    0  503 -0.14925809510E+03 -0.12936842420E+03  0.67325089868E+02  0.26961194330E+03  0.17071544778E+03 0.  0.
        -24    2    5    5    0    0 -0.40494115811E+02 -0.11703565257E+03  0.57348190629E+02  0.15959681268E+03  0.82735785858E+02 0.  0.
          4    1    4    4  501    0  0.17052178463E+03  0.11551639414E+03 -0.17323955382E+03  0.26913502068E+03  0.00000000000E+00 0. -1.
         -3    1    4    4    0  501  0.75251515489E+01  0.12070680703E+02 -0.58232995493E+02  0.59945066541E+02  0.00000000000E+00 0.  1.
          5    1    3    3  502    0 -0.28788841079E+02  0.17813493585E+01 -0.24917290318E+02  0.38404842572E+02  0.47000000000E+01 0. -1.
         13    1    6    6    0    0  0.17459031161E+02 -0.63370615103E+01 -0.59819657911E+01  0.19513073372E+02  0.00000000000E+00 0. -1.
        -14    1    6    6    0    0 -0.57953146972E+02 -0.11069859106E+03  0.63330156420E+02  0.14008373931E+03  0.00000000000E+00 0.  1.
         -5    1    5    5    0  503 -0.10876397929E+03 -0.12332771637E+02  0.99768992387E+01  0.11001513062E+03  0.47000000000E+01 0.  1.
<mgrwt>
<rscale>  2 0.26271608E+03</rscale>
<asrwt>0</asrwt>
<pdfrwt beam="1">  1       21 0.34464010E-01 0.26326683E+03</pdfrwt>
<pdfrwt beam="2">  1       21 0.63550893E-01 0.26326683E+03</pdfrwt>
<totfact> 0.17872274E+04</totfact>
</mgrwt>
</event>
<event>
12    1  0.1473662E-001  0.2099516E+03  0.7546771E-02  0.1141791E+00
         21   -1    0    0  504  503  0.00000000000E+00  0.00000000000E+00  0.59985261376E+03  0.59985261376E+03  0.00000000000E+00 0.  1.
         21   -1    0    0  502  504 -0.00000000000E+00 -0.00000000000E+00 -0.82262646553E+02  0.82262646553E+02  0.00000000000E+00 0. -1.
          6    2    1    2  502    0 -0.24980413903E+02 -0.11657012670E+03  0.14480441185E+03  0.25427329275E+03  0.17167985962E+03 0.  0.
         24    2    3    3    0    0 -0.88080069351E+01 -0.50021040675E+02 -0.14027029948E+01  0.92752588107E+02  0.77597612905E+02 0.  0.
         -6    2    1    2    0  503  0.24980413903E+02  0.11657012670E+03  0.37278555535E+03  0.42784196756E+03  0.17282089980E+03 0.  0.
        -24    2    5    5    0    0 -0.29554877658E+02  0.23294889905E+02  0.10311819133E+03  0.13729602448E+03  0.82466321999E+02 0.  0.
          4    1    4    4  501    0 -0.54312814569E+01 -0.70927690687E+02  0.26766759009E+01  0.71185677762E+02  0.00000000000E+00 0. -1.
         -3    1    4    4    0  501 -0.33767254782E+01  0.20906650012E+02 -0.40793788957E+01  0.21566910346E+02  0.00000000000E+00 0.  1.
          5    1    3    3  502    0 -0.16172406968E+02 -0.66549086022E+02  0.14620711485E+03  0.16152070464E+03  0.47000000000E+01 0. -1.
         13    1    6    6    0    0 -0.14141439015E+02  0.42597902004E+02  0.17481815646E+02  0.48168199373E+02  0.00000000000E+00 0. -1.
        -14    1    6    6    0    0 -0.15413438643E+02 -0.19303012098E+02  0.85636375685E+02  0.89127825102E+02  0.00000000000E+00 0.  1.
         -5    1    5    5    0  503  0.54535291561E+02  0.93275236791E+02  0.26966736402E+03  0.29054594308E+03  0.47000000000E+01 0.  1.
<mgrwt>
<rscale>  2 0.20971666E+03</rscale>
<asrwt>0</asrwt>
<pdfrwt beam="1">  1       21 0.92285014E-01 0.20995161E+03</pdfrwt>
<pdfrwt beam="2">  1       21 0.12655792E-01 0.20995161E+03</pdfrwt>
<totfact> 0.52421804E+04</totfact>
</mgrwt>
</event>
<event>
12    1  0.1473662E-001  0.1741750E+03  0.7546771E-02  0.1173669E+00
         21   -1    0    0  504  503  0.00000000000E+00  0.00000000000E+00  0.43924049892E+02  0.43924049892E+02  0.00000000000E+00 0. -1.
         21   -1    0    0  502  504 -0.00000000000E+00 -0.00000000000E+00 -0.82426170949E+03  0.82426170949E+03  0.00000000000E+00 0. -1.
          6    2    1    2  502    0 -0.25995832438E+01  0.14895399472E+02 -0.56561997927E+03  0.59170682151E+03  0.17309642085E+03 0.  0.
         24    2    3    3    0    0  0.42269503115E+02  0.38669272031E+02 -0.21255877488E+03  0.23498180701E+03  0.82177815449E+02 0.  0.
         -6    2    1    2    0  503  0.25995832438E+01 -0.14895399472E+02 -0.21471768032E+03  0.27647893787E+03  0.17351740571E+03 0.  0.
        -24    2    5    5    0    0 -0.11114238611E+02  0.53511913046E+02 -0.12516041742E+03  0.16285577714E+03  0.88712022414E+02 0.  0.
          4    1    4    4  501    0  0.53527753322E+02 -0.57908288361E+01 -0.12606367489E+03  0.13707955428E+03  0.00000000000E+00 0. -1.
         -3    1    4    4    0  501 -0.11258250206E+02  0.44460100868E+02 -0.86495099995E+02  0.97902252732E+02  0.00000000000E+00 0.  1.
          5    1    3    3  502    0 -0.44869086359E+02 -0.23773872559E+02 -0.35306120438E+03  0.35672501450E+03  0.47000000000E+01 0. -1.
         11    1    6    6    0    0  0.25589196052E+01  0.23692557255E+02  0.84446035579E+01  0.25282339055E+02  0.00000000000E+00 0. -1.
        -12    1    6    6    0    0 -0.13673158216E+02  0.29819355791E+02 -0.13360502098E+03  0.13757343809E+03  0.00000000000E+00 0.  1.
         -5    1    5    5    0  503  0.13713821854E+02 -0.68407312519E+02 -0.89557262902E+02  0.11362316073E+03  0.47000000000E+01 0.  1.
<mgrwt>
<rscale>  2 0.17407003E+03</rscale>
<asrwt>0</asrwt>
<pdfrwt beam="1">  1       21 0.67575459E-02 0.17417497E+03</pdfrwt>
<pdfrwt beam="2">  1       21 0.12680950E+00 0.17417497E+03</pdfrwt>
<totfact> 0.74633504E+04</totfact>
</mgrwt>
</event>
<event>
12    1  0.1473662E-001  0.1935827E+03  0.7546771E-02  0.1155333E+00
         21   -1    0    0  504  503  0.00000000000E+00  0.00000000000E+00  0.22516578079E+03  0.22516578079E+03  0.00000000000E+00 0.  1.
         21   -1    0    0  502  504 -0.00000000000E+00 -0.00000000000E+00 -0.18748969657E+03  0.18748969657E+03  0.00000000000E+00 0. -1.
          6    2    1    2  502    0 -0.77253027298E+02 -0.42118997211E+02 -0.50710219075E+02  0.20011441860E+03  0.17243031654E+03 0.  0.
         24    2    3    3    0    0 -0.81353700400E+02 -0.19777024320E+02  0.26349752843E+02  0.11963890342E+03  0.81299461721E+02 0.  0.
         -6    2    1    2    0  503  0.77253027298E+02  0.42118997211E+02  0.88386303291E+02  0.21254105876E+03  0.17210323325E+03 0.  0.
        -24    2    5    5    0    0  0.73292158255E+02  0.89168781162E+02  0.82244410139E+02  0.16469564618E+03  0.83891005928E+02 0.  0.
          4    1    4    4  501    0 -0.28948110539E+01 -0.13223633595E+02  0.37733413703E+02  0.40088089580E+02  0.00000000000E+00 0. -1.
         -3    1    4    4    0  501 -0.78458889346E+02 -0.65533907249E+01 -0.11383660860E+02  0.79550813836E+02  0.00000000000E+00 0.  1.
          5    1    3    3  502    0  0.41006731019E+01 -0.22341972891E+02 -0.77059971918E+02  0.80475515186E+02  0.47000000000E+01 0. -1.
         13    1    6    6    0    0  0.77532542946E+01  0.10853419002E+01 -0.15714264815E+02  0.17556452885E+02  0.00000000000E+00 0. -1.
        -14    1    6    6    0    0  0.65538903960E+02  0.88083439262E+02  0.97958674955E+02  0.14713919329E+03  0.00000000000E+00 0.  1.
         -5    1    5    5    0  503  0.39608690432E+01 -0.47049783951E+02  0.61418931515E+01  0.47845412579E+02  0.47000000000E+01 0.  1.
<mgrwt>
<rscale>  2 0.19350982E+03</rscale>
<asrwt>0</asrwt>
<pdfrwt beam="1">  1       21 0.34640889E-01 0.19358268E+03</pdfrwt>
<pdfrwt beam="2">  1       21 0.28844569E-01 0.19358268E+03</pdfrwt>
<totfact> 0.92355728E+04</totfact>
</mgrwt>
</event>
<event>
12    1  0.1473662E-001  0.4503833E+03  0.7546771E-02  0.1027623E+00
         21   -1    0    0  504  503  0.00000000000E+00  0.00000000000E+00  0.39444830099E+03  0.39444830099E+03  0.00000000000E+00 0. -1.
         21   -1    0    0  502  504 -0.00000000000E+00 -0.00000000000E+00 -0.16821890406E+04  0.16821890406E+04  0.00000000000E+00 0. -1.
          6    2    1    2  502    0 -0.52980475923E+02  0.41229846472E+03 -0.15090846058E+04  0.15748025280E+04  0.17282852749E+03 0.  0.
         24    2    3    3    0    0 -0.99110181587E+02  0.24752864169E+03 -0.91180336794E+03  0.95347812689E+03  0.81497853438E+02 0.  0.
         -6    2    1    2    0  503  0.52980475923E+02 -0.41229846472E+03  0.22134386626E+03  0.50183481352E+03  0.17334393006E+03 0.  0.
        -24    2    5    5    0    0 -0.22240205137E+02 -0.30464929368E+03  0.18311726842E+03  0.36497774331E+03  0.79818545777E+02 0.  0.
          4    1    4    4  501    0 -0.18751355099E+02  0.10684262722E+03 -0.48437611532E+03  0.49637403377E+03  0.00000000000E+00 0. -1.
         -3    1    4    4    0  501 -0.80358826488E+02  0.14068601447E+03 -0.42742725262E+03  0.45710409311E+03  0.00000000000E+00 0.  1.
          5    1    3    3  502    0  0.46129705664E+02  0.16476982303E+03 -0.59728123790E+03  0.62132440115E+03  0.47000000000E+01 0. -1.
         13    1    6    6    0    0  0.11552992239E+02 -0.25664243033E+03  0.15269588835E+03  0.29885589001E+03  0.00000000000E+00 0. -1.
        -14    1    6    6    0    0 -0.33793197376E+02 -0.48006863349E+02  0.30421380070E+02  0.66121853293E+02  0.00000000000E+00 0.  1.
         -5    1    5    5    0  503  0.75220681060E+02 -0.10764917104E+03  0.38226597836E+02  0.13685707021E+03  0.47000000000E+01 0.  1.
<mgrwt>
<rscale>  2 0.45033371E+03</rscale>
<asrwt>0</asrwt>
<pdfrwt beam="1">  1       21 0.60684354E-01 0.45038325E+03</pdfrwt>
<pdfrwt beam="2">  1       21 0.25879831E+00 0.45038325E+03</pdfrwt>
<totfact> 0.11729695E+02</totfact>
</mgrwt>
</event>
<event>
12    1  0.1473662E-001  0.2292324E+03  0.7546771E-02  0.1127674E+00
         21   -1    0    0  504  503  0.00000000000E+00  0.00000000000E+00  0.45168792683E+02  0.45168792683E+02  0.00000000000E+00 0.  1.
         21   -1    0    0  502  504 -0.00000000000E+00 -0.00000000000E+00 -0.11755042560E+04  0.11755042560E+04  0.00000000000E+00 0.  1.
          6    2    1    2  502    0 -0.86316437965E+02 -0.11987070751E+03 -0.65960167528E+03  0.69829926698E+03  0.17529398806E+03 0.  0.
         24    2    3    3    0    0 -0.48739144587E+02 -0.16655634455E+02 -0.15910245200E+03  0.18586686482E+03  0.81117117983E+02 0.  0.
         -6    2    1    2    0  503  0.86316437965E+02  0.11987070751E+03 -0.47073378805E+03  0.52237378172E+03  0.17165242390E+03 0.  0.
        -24    2    5    5    0    0 -0.22553586437E+02  0.33886721470E+02 -0.16481795079E+03  0.18643849397E+03  0.77054402709E+02 0.  0.
          2    1    4    4  501    0 -0.38349957191E+02  0.20043177799E+02 -0.13244202404E+03  0.13933175491E+03  0.00000000000E+00 0. -1.
         -1    1    4    4    0  501 -0.10389187396E+02 -0.36698812253E+02 -0.26660427963E+02  0.46535109914E+02  0.00000000000E+00 0.  1.
          5    1    3    3  502    0 -0.37577293378E+02 -0.10321507306E+03 -0.50049922327E+03  0.51243240216E+03  0.47000000000E+01 0. -1.
         13    1    6    6    0    0  0.27132142303E+02  0.47466615844E+01 -0.35996511145E+02  0.45325850866E+02  0.00000000000E+00 0. -1.
        -14    1    6    6    0    0 -0.49685728740E+02  0.29140059886E+02 -0.12882143964E+03  0.14111264310E+03  0.00000000000E+00 0.  1.
         -5    1    5    5    0  503  0.10887002440E+03  0.85983986044E+02 -0.30591583726E+03  0.33593528775E+03  0.47000000000E+01 0.  1.
<mgrwt>
<rscale>  2 0.22853610E+03</rscale>
<asrwt>0</asrwt>
<pdfrwt beam="1">  1       21 0.69490450E-02 0.22923241E+03</pdfrwt>
<pdfrwt beam="2">  1       21 0.18084681E+00 0.22923241E+03</pdfrwt>
<totfact> 0.26854984E+04</totfact>
</mgrwt>
</event>
<event>
12    1  0.1473662E-001  0.1775652E+03  0.7546771E-02  0.1170474E+00
         21   -1    0    0  504  503  0.00000000000E+00  0.00000000000E+00  0.55460729279E+02  0.55460729279E+02  0.00000000000E+00 0.  1.
         21   -1    0    0  502  504 -0.00000000000E+00 -0.00000000000E+00 -0.72315021726E+03  0.72315021726E+03  0.00000000000E+00 0.  1.
          6    2    1    2  502    0 -0.33385348269E+02  0.17760613217E+02 -0.51519942475E+03  0.54455405852E+03  0.17227493879E+03 0.  0.
         24    2    3    3    0    0  0.76753036637E+01  0.67394559768E+02 -0.24753545957E+03  0.26920774197E+03  0.81228490182E+02 0.  0.
         -6    2    1    2    0  503  0.33385348269E+02 -0.17760613217E+02 -0.15249006323E+03  0.23405688801E+03  0.17349174787E+03 0.  0.
        -24    2    5    5    0    0  0.30457435191E+02 -0.67025755580E+02 -0.14808236415E+03  0.18428596539E+03  0.81319267090E+02 0.  0.
          2    1    4    4  501    0  0.35219044549E+02  0.24569674842E+02 -0.53498885002E+02  0.68601608707E+02  0.00000000000E+00 0. -1.
         -1    1    4    4    0  501 -0.27543740885E+02  0.42824884926E+02 -0.19403657457E+03  0.20060613326E+03  0.00000000000E+00 0.  1.
          5    1    3    3  502    0 -0.41060651933E+02 -0.49633946551E+02 -0.26766396518E+03  0.27534631656E+03  0.47000000000E+01 0. -1.
         13    1    6    6    0    0  0.35849843795E+00  0.67264790975E+01 -0.77693126079E+02  0.77984587466E+02  0.00000000000E+00 0. -1.
        -14    1    6    6    0    0  0.30098936753E+02 -0.73752234677E+02 -0.70389238067E+02  0.10630137793E+03  0.00000000000E+00 0.  1.
         -5    1    5    5    0  503  0.29279130781E+01  0.49265142362E+02 -0.44076990815E+01  0.49770922617E+02  0.47000000000E+01 0.  1.
<mgrwt>
<rscale>  2 0.17726730E+03</rscale>
<asrwt>0</asrwt>
<pdfrwt beam="1">  1       21 0.85324202E-02 0.17756522E+03</pdfrwt>
<pdfrwt beam="2">  1       21 0.11125388E+00 0.17756522E+03</pdfrwt>
<totfact> 0.68633715E+04</totfact>
</mgrwt>
</event>
<event>
12    1  0.1473662E-001  0.2046537E+03  0.7546771E-02  0.1148069E+00
         21   -1    0    0  504  503  0.00000000000E+00  0.00000000000E+00  0.74910133682E+02  0.74910133682E+02  0.00000000000E+00 0. -1.
         21   -1    0    0  502  504 -0.00000000000E+00 -0.00000000000E+00 -0.10488264665E+04  0.10488264665E+04  0.00000000000E+00 0. -1.
          6    2    1    2  502    0 -0.91282135442E+02 -0.58673303122E+02 -0.87525244307E+03  0.89654131174E+03  0.16107296421E+03 0.  0.
         24    2    3    3    0    0 -0.68405862794E+02 -0.89179986551E+02 -0.48596290090E+03  0.50536051054E+03  0.81221133292E+02 0.  0.
         -6    2    1    2    0  503  0.91282135442E+02  0.58673303122E+02 -0.98663889708E+02  0.22719528841E+03  0.17351700548E+03 0.  0.
        -24    2    5    5    0    0  0.34637607283E+02 -0.31694955527E+00  0.13325199670E+02  0.88443356452E+02  0.80279524531E+02 0.  0.
          4    1    4    4  501    0 -0.35767750405E+02 -0.55803950907E+02 -0.41603791364E+03  0.42128488994E+03  0.00000000000E+00 0. -1.
         -3    1    4    4    0  501 -0.32638112389E+02 -0.33376035644E+02 -0.69924987267E+02  0.84075620604E+02  0.00000000000E+00 0.  1.
          5    1    3    3  502    0 -0.22876272649E+02  0.30506683429E+02 -0.38928954217E+03  0.39118080120E+03  0.47000000000E+01 0. -1.
         11    1    6    6    0    0  0.26970991535E+02  0.22329563223E+02 -0.25173343066E+02  0.43124714251E+02  0.00000000000E+00 0. -1.
        -12    1    6    6    0    0  0.76666157477E+01 -0.22646512779E+02  0.38498542736E+02  0.45318642200E+02  0.00000000000E+00 0.  1.
         -5    1    5    5    0  503  0.56644528160E+02  0.58990252677E+02 -0.11198908938E+03  0.13875193195E+03  0.47000000000E+01 0.  1.
<mgrwt>
<rscale>  2 0.20199258E+03</rscale>
<asrwt>0</asrwt>
<pdfrwt beam="1">  1       21 0.11524636E-01 0.20465370E+03</pdfrwt>
<pdfrwt beam="2">  1       21 0.16135791E+00 0.20465370E+03</pdfrwt>
<totfact> 0.15384347E+04</totfact>
</mgrwt>
</event>
<event>
12    1  0.1473662E-001  0.2115188E+03  0.7546771E-02  0.1140448E+00
         21   -1    0    0  504  503  0.00000000000E+00  0.00000000000E+00  0.29216456481E+03  0.29216456481E+03  0.00000000000E+00 0.  1.
         21   -1    0    0  502  504 -0.00000000000E+00 -0.00000000000E+00 -0.17507653953E+03  0.17507653953E+03  0.00000000000E+00 0.  1.
          6    2    1    2  502    0  0.10825047771E+03  0.51257890877E+02 -0.24660464156E+02  0.21295145368E+03  0.17434060293E+03 0.  0.
         24    2    3    3    0    0  0.12559839534E+03 -0.22916857416E+01  0.54341600557E+01  0.14894923646E+03  0.79850712030E+02 0.  0.
         -6    2    1    2    0  503 -0.10825047771E+03 -0.51257890877E+02  0.14174848944E+03  0.25428965065E+03  0.17385354431E+03 0.  0.
        -24    2    5    5    0    0 -0.29314089686E+02  0.14238846958E+02  0.19422994671E+01  0.80828886285E+02  0.73942381041E+02 0.  0.
          2    1    4    4  501    0  0.13530838599E+02  0.24254566857E+02  0.18001011472E+02  0.33096888383E+02  0.00000000000E+00 0. -1.
         -1    1    4    4    0  501  0.11206755674E+03 -0.26546252599E+02 -0.12566851416E+02  0.11585234808E+03  0.00000000000E+00 0.  1.
          5    1    3    3  502    0 -0.17347917633E+02  0.53549576619E+02 -0.30094624212E+02  0.64002217217E+02  0.47000000000E+01 0. -1.
         11    1    6    6    0    0 -0.24496680753E+01  0.20539214095E+02  0.33211160122E+02  0.39125967668E+02  0.00000000000E+00 0. -1.
        -12    1    6    6    0    0 -0.26864421611E+02 -0.63003671370E+01 -0.31268860655E+02  0.41702918617E+02  0.00000000000E+00 0.  1.
         -5    1    5    5    0  503 -0.78936388023E+02 -0.65496737835E+02  0.13980618997E+03  0.17346076437E+03  0.47000000000E+01 0.  1.
<mgrwt>
<rscale>  2 0.21141836E+03</rscale>
<asrwt>0</asrwt>
<pdfrwt beam="1">  1       21 0.44948395E-01 0.21151875E+03</pdfrwt>
<pdfrwt beam="2">  1       21 0.26934852E-01 0.21151875E+03</pdfrwt>
<totfact> 0.61831372E+04</totfact>
</mgrwt>
</event>
<event>
12    1  0.1473662E-001  0.2177102E+03  0.7546771E-02  0.1135708E+00
         21   -1    0    0  504  503  0.00000000000E+00  0.00000000000E+00  0.72734056341E+03  0.72734056341E+03  0.00000000000E+00 0.  1.
         21   -1    0    0  502  504 -0.00000000000E+00 -0.00000000000E+00 -0.13587951916E+03  0.13587951916E+03  0.00000000000E+00 0.  1.
          6    2    1    2  502    0 -0.10671521230E+03  0.75952811058E+02 -0.15818382406E+02  0.21828414038E+03  0.17389875985E+03 0.  0.
         24    2    3    3    0    0 -0.46541416267E+01  0.59169599398E+02  0.29423949276E+02  0.10529256142E+03  0.81841628600E+02 0.  0.
         -6    2    1    2    0  503  0.10671521230E+03 -0.75952811058E+02  0.60727942665E+03  0.64493594218E+03  0.17319671313E+03 0.  0.
        -24    2    5    5    0    0  0.12532387138E+03 -0.25648677678E+02  0.52777126641E+03  0.54891289509E+03  0.79993308117E+02 0.  0.
          4    1    4    4  501    0  0.14694511769E+02  0.33958200671E+02  0.53761378065E+02  0.65263878527E+02  0.00000000000E+00 0. -1.
         -3    1    4    4    0  501 -0.19348653395E+02  0.25211398727E+02 -0.24337428789E+02  0.40028682892E+02  0.00000000000E+00 0.  1.
          5    1    3    3  502    0 -0.10206107068E+03  0.16783211660E+02 -0.45242331682E+02  0.11299157897E+03  0.47000000000E+01 0. -1.
         13    1    6    6    0    0  0.19663084968E+01  0.15511911411E+02  0.24127241556E+02  0.28750818246E+02  0.00000000000E+00 0. -1.
        -14    1    6    6    0    0  0.12335756288E+03 -0.41160589089E+02  0.50364402485E+03  0.52016207684E+03  0.00000000000E+00 0.  1.
         -5    1    5    5    0  503 -0.18608659078E+02 -0.50304133380E+02  0.79508160247E+02  0.96023047096E+02  0.47000000000E+01 0.  1.
<mgrwt>
<rscale>  2 0.21757001E+03</rscale>
<asrwt>0</asrwt>
<pdfrwt beam="1">  1       21 0.11189855E+00 0.21771023E+03</pdfrwt>
<pdfrwt beam="2">  1       21 0.20904542E-01 0.21771023E+03</pdfrwt>
<totfact> 0.13094528E+04</totfact>
</mgrwt>
</event>
<event>
12    1  0.1473662E-001  0.2940116E+03  0.7546771E-02  0.1088322E+00
         21   -1    0    0  504  503  0.00000000000E+00  0.00000000000E+00  0.55315926590E+03  0.55315926590E+03  0.00000000000E+00 0. -1.
         21   -1    0    0  502  504 -0.00000000000E+00 -0.00000000000E+00 -0.15664148036E+03  0.15664148036E+03  0.00000000000E+00 0.  1.
          6    2    1    2  502    0 -0.22696190238E+03 -0.69557061648E+02  0.21982212777E+03  0.36710298766E+03  0.17347318449E+03 0.  0.
         24    2    3    3    0    0 -0.12750495000E+03 -0.61433004915E+02  0.21069979602E+03  0.26678851906E+03  0.82159500318E+02 0.  0.
         -6    2    1    2    0  503  0.22696190238E+03  0.69557061648E+02  0.17669565777E+03  0.34269775859E+03  0.17283086620E+03 0.  0.
        -24    2    5    5    0    0  0.16484050875E+03  0.91912181838E+02  0.69631693393E+02  0.21682639007E+03  0.80900359767E+02 0.  0.
          2    1    4    4  501    0 -0.62766177213E+02 -0.71044985523E+02  0.97228782246E+02  0.13579550459E+03  0.00000000000E+00 0. -1.
         -1    1    4    4    0  501 -0.64738772783E+02  0.96119806089E+01  0.11347101377E+03  0.13099301447E+03  0.00000000000E+00 0.  1.
          5    1    3    3  502    0 -0.99456952383E+02 -0.81240567336E+01  0.91223317494E+01  0.10031446861E+03  0.47000000000E+01 0. -1.
         11    1    6    6    0    0  0.23094152975E+02  0.53638120418E+02  0.16485777238E+02  0.60680876022E+02  0.00000000000E+00 0. -1.
        -12    1    6    6    0    0  0.14174635578E+03  0.38274061420E+02  0.53145916155E+02  0.15614551405E+03  0.00000000000E+00 0.  1.
         -5    1    5    5    0  503  0.62121393626E+02 -0.22355120190E+02  0.10706396438E+03  0.12587136852E+03  0.47000000000E+01 0.  1.
<mgrwt>
<rscale>  2 0.29391695E+03</rscale>
<asrwt>0</asrwt>
<pdfrwt beam="1">  1       21 0.85101425E-01 0.29401163E+03</pdfrwt>
<pdfrwt beam="2">  1       21 0.24098689E-01 0.29401163E+03</pdfrwt>
<totfact> 0.18423464E+04</totfact>
</mgrwt>
</event>
<event>
12    1  0.1473662E-001  0.1872500E+03  0.7546771E-02  0.1161317E+00
         21   -1    0    0  504  503  0.00000000000E+00  0.00000000000E+00  0.19262132201E+03  0.19262132201E+03  0.00000000000E+00 0.  1.
         21   -1    0    0  502  504 -0.00000000000E+00 -0.00000000000E+00 -0.31679398752E+03  0.31679398752E+03  0.00000000000E+00 0.  1.
          6    2    1    2  502    0 -0.27535067647E+01 -0.67056213060E+02 -0.22926598240E+03  0.29601597066E+03  0.17480974427E+03 0.  0.
         24    2    3    3    0    0  0.58571767702E+01 -0.46267044333E+02 -0.29646789503E+02  0.95077558256E+02  0.77368365920E+02 0.  0.
         -6    2    1    2    0  503  0.27535067647E+01  0.67056213060E+02  0.10509331689E+03  0.21339933888E+03  0.17317781345E+03 0.  0.
        -24    2    5    5    0    0 -0.15585860746E+02  0.26331977931E+02  0.13489119007E+03  0.15950315188E+03  0.79431292219E+02 0.  0.
          2    1    4    4  501    0 -0.23429424074E+02  0.10425878093E+02 -0.26150022319E+01  0.25777414206E+02  0.00000000000E+00 0. -1.
         -1    1    4    4    0  501  0.29286600845E+02 -0.56692922427E+02 -0.27031787271E+02  0.69300144050E+02  0.00000000000E+00 0.  1.
          5    1    3    3  502    0 -0.86106835349E+01 -0.20789168727E+02 -0.19961919290E+03  0.20093841240E+03  0.47000000000E+01 0. -1.
         11    1    6    6    0    0  0.14951018871E+02  0.18846705485E+02  0.33887452963E+01  0.24294338180E+02  0.00000000000E+00 0. -1.
        -12    1    6    6    0    0 -0.30536879617E+02  0.74852724456E+01  0.13150244477E+03  0.13520881370E+03  0.00000000000E+00 0.  1.
         -5    1    5    5    0  503  0.18339367511E+02  0.40724235129E+02 -0.29797873178E+02  0.53896187003E+02  0.47000000000E+01 0.  1.
<mgrwt>
<rscale>  2 0.18686819E+03</rscale>
<asrwt>0</asrwt>
<pdfrwt beam="1">  1       21 0.29634050E-01 0.18725000E+03</pdfrwt>
<pdfrwt beam="2">  1       21 0.48737536E-01 0.18725000E+03</pdfrwt>
<totfact> 0.43975592E+04</totfact>
</mgrwt>
</event>
<event>
12    1  0.1473662E-001  0.1802825E+03  0.7546771E-02  0.1167769E+00
         21   -1    0    0  504  503  0.00000000000E+00  0.00000000000E+00  0.38293849957E+03  0.38293849957E+03  0.00000000000E+00 0. -1.
         21   -1    0    0  502  504 -0.00000000000E+00 -0.00000000000E+00 -0.99293714907E+02  0.99293714907E+02  0.00000000000E+00 0. -1.
          6    2    1    2  502    0  0.24055301944E+02  0.41451754840E+02  0.48805645453E+02  0.18677197393E+03  0.17379549386E+03 0.  0.
         24    2    3    3    0    0  0.28176237353E+02 -0.19325675802E-01  0.94292283527E+02  0.12490148928E+03  0.76911940334E+02 0.  0.
         -6    2    1    2    0  503 -0.24055301944E+02 -0.41451754840E+02  0.23483913920E+03  0.29546024054E+03  0.17277276090E+03 0.  0.
        -24    2    5    5    0    0  0.39322699818E+02 -0.37593352801E+02  0.20181434041E+03  0.22373586736E+03  0.79807114042E+02 0.  0.
          2    1    4    4  501    0 -0.47405685678E+01  0.30247322077E+02  0.63835368504E+02  0.70797794847E+02  0.00000000000E+00 0. -1.
         -1    1    4    4    0  501  0.32916805920E+02 -0.30266647753E+02  0.30456915023E+02  0.54103694429E+02  0.00000000000E+00 0.  1.
          5    1    3    3  502    0 -0.41209354085E+01  0.41471080516E+02 -0.45486638074E+02  0.61870484652E+02  0.47000000000E+01 0. -1.
         13    1    6    6    0    0  0.33850919164E+02  0.17784578068E+02  0.10905926756E+03  0.11556859343E+03  0.00000000000E+00 0. -1.
        -14    1    6    6    0    0  0.54717806540E+01 -0.55377930869E+02  0.92755072845E+02  0.10816727393E+03  0.00000000000E+00 0.  1.
         -5    1    5    5    0  503 -0.63378001762E+02 -0.38584020389E+01  0.33024798797E+02  0.71724373188E+02  0.47000000000E+01 0.  1.
<mgrwt>
<rscale>  2 0.18003556E+03</rscale>
<asrwt>0</asrwt>
<pdfrwt beam="1">  1       21 0.58913615E-01 0.18028250E+03</pdfrwt>
<pdfrwt beam="2">  1       21 0.15275956E-01 0.18028250E+03</pdfrwt>
<totfact> 0.10273580E+05</totfact>
</mgrwt>
</event>
<event>
12    1  0.1473662E-001  0.2628926E+03  0.7546771E-02  0.1105582E+00
         21   -1    0    0  504  503  0.00000000000E+00  0.00000000000E+00  0.89561261521E+02  0.89561261521E+02  0.00000000000E+00 0.  1.
         21   -1    0    0  502  504 -0.00000000000E+00 -0.00000000000E+00 -0.88018952832E+03  0.88018952832E+03  0.00000000000E+00 0. -1.
          6    2    1    2  502    0  0.16023943567E+03  0.11529726648E+03 -0.22181599517E+03  0.34312497877E+03  0.17193684580E+03 0.  0.
         24    2    3    3    0    0  0.14853291221E+03  0.50511744522E+02 -0.97088460224E+02  0.20201064740E+03  0.82271928442E+02 0.  0.
         -6    2    1    2    0  503 -0.16023943567E+03 -0.11529726648E+03 -0.56881227163E+03  0.62662581107E+03  0.17361558206E+03 0.  0.
        -24    2    5    5    0    0 -0.34650836399E+02  0.30478999312E+01 -0.14877211929E+03  0.17249599014E+03  0.80073422420E+02 0.  0.
          4    1    4    4  501    0  0.12827357592E+03  0.15110721199E+02 -0.96482104059E+02  0.16121799087E+03  0.00000000000E+00 0. -1.
         -3    1    4    4    0  501  0.20259336283E+02  0.35401023323E+02 -0.60635616556E+00  0.40792656530E+02  0.00000000000E+00 0.  1.
          5    1    3    3  502    0  0.11706523468E+02  0.64785521956E+02 -0.12472753494E+03  0.14111433138E+03  0.47000000000E+01 0. -1.
         13    1    6    6    0    0 -0.33840278431E+02  0.50581201848E+01 -0.12839183370E+02  0.36545774772E+02  0.00000000000E+00 0. -1.
        -14    1    6    6    0    0 -0.81055796787E+00 -0.20102202537E+01 -0.13593293592E+03  0.13595021537E+03  0.00000000000E+00 0.  1.
         -5    1    5    5    0  503 -0.12558859928E+03 -0.11834516641E+03 -0.42004015234E+03  0.45412982093E+03  0.47000000000E+01 0.  1.
<mgrwt>
<rscale>  2 0.26261574E+03</rscale>
<asrwt>0</asrwt>
<pdfrwt beam="1">  1       21 0.13778655E-01 0.26289258E+03</pdfrwt>
<pdfrwt beam="2">  1       21 0.13541378E+00 0.26289258E+03</pdfrwt>
<totfact> 0.17109816E+04</totfact>
</mgrwt>
</event>
<event>
12    1  0.1473662E-001  0.2463563E+03  0.7546771E-02  0.1115832E+00
         21   -1    0    0  504  503  0.00000000000E+00  0.00000000000E+00  0.40727788376E+02  0.40727788376E+02  0.00000000000E+00 0.  1.
         21   -1    0    0  502  504 -0.00000000000E+00 -0.00000000000E+00 -0.15908503255E+04  0.15908503255E+04  0.00000000000E+00 0. -1.
          6    2    1    2  502    0  0.25977586054E+02 -0.17090829334E+03 -0.56040757824E+03  0.61166286755E+03  0.17375364766E+03 0.  0.
         24    2    3    3    0    0 -0.12336595196E+02 -0.34035726398E+02 -0.32373006884E+03  0.33554620828E+03  0.80495205883E+02 0.  0.
         -6    2    1    2    0  503 -0.25977586054E+02  0.17090829334E+03 -0.98971495891E+03  0.10199152464E+04  0.17551903071E+03 0.  0.
        -24    2    5    5    0    0 -0.11671655600E+02  0.82249446716E+02 -0.26380779256E+03  0.28845892169E+03  0.81931673106E+02 0.  0.
          2    1    4    4  501    0 -0.21689759501E+02 -0.55908583181E+02 -0.27309219541E+03  0.27959893157E+03  0.00000000000E+00 0. -1.
         -1    1    4    4    0  501  0.93531643052E+01  0.21872856782E+02 -0.50637873428E+02  0.55947276713E+02  0.00000000000E+00 0.  1.
          5    1    3    3  502    0  0.38314181250E+02 -0.13687256695E+03 -0.23667750940E+03  0.27611665927E+03  0.47000000000E+01 0. -1.
         11    1    6    6    0    0  0.31480051028E+02  0.32527823251E+02 -0.15313032796E+03  0.15968077605E+03  0.00000000000E+00 0. -1.
        -12    1    6    6    0    0 -0.43151706628E+02  0.49721623465E+02 -0.11067746461E+03  0.12877814565E+03  0.00000000000E+00 0.  1.
         -5    1    5    5    0  503 -0.14305930454E+02  0.88658846629E+02 -0.72590716634E+03  0.73145632466E+03  0.47000000000E+01 0.  1.
<mgrwt>
<rscale>  2 0.24604201E+03</rscale>
<asrwt>0</asrwt>
<pdfrwt beam="1">  1       21 0.62658132E-02 0.24635627E+03</pdfrwt>
<pdfrwt beam="2">  1       21 0.24474622E+00 0.24635627E+03</pdfrwt>
<totfact> 0.12505678E+04</totfact>
</mgrwt>
</event>
<event>
12    1  0.1473662E-001  0.1761132E+03  0.7546771E-02  0.1172295E+00
         21   -1    0    0  504  503  0.00000000000E+00  0.00000000000E+00  0.12532593408E+03  0.12532593408E+03  0.00000000000E+00 0.  1.
         21   -1    0    0  502  504 -0.00000000000E+00 -0.00000000000E+00 -0.61257358974E+03  0.61257358974E+03  0.00000000000E+00 0.  1.
          6    2    1    2  502    0  0.21749793543E+02 -0.81164047566E+01 -0.52917351894E+03  0.55686465956E+03  0.17185664483E+03 0.  0.
         24    2    3    3    0    0 -0.50726862177E+02 -0.16777845923E+02 -0.35004955702E+03  0.36338243836E+03  0.81592851871E+02 0.  0.
         -6    2    1    2    0  503 -0.21749793543E+02  0.81164047566E+01  0.41925863281E+02  0.18103486426E+03  0.17457638592E+03 0.  0.
        -24    2    5    5    0    0 -0.54226101216E+02 -0.39069191353E+02 -0.10603240891E+02  0.10317224277E+03  0.77879465808E+02 0.  0.
          4    1    4    4  501    0 -0.31688498932E+02  0.22229413538E+02 -0.70002789641E+02  0.79991864263E+02  0.00000000000E+00 0. -1.
         -3    1    4    4    0  501 -0.19038363245E+02 -0.39007259461E+02 -0.28004676738E+03  0.28339057409E+03  0.00000000000E+00 0.  1.
          5    1    3    3  502    0  0.72476655720E+02  0.86614411659E+01 -0.17912396192E+03  0.19348222120E+03  0.47000000000E+01 0. -1.
         13    1    6    6    0    0 -0.21797908316E+02 -0.43980557531E+02 -0.36675226832E+02  0.61274060669E+02  0.00000000000E+00 0. -1.
        -14    1    6    6    0    0 -0.32428192900E+02  0.49113661774E+01  0.26071985940E+02  0.41898182101E+02  0.00000000000E+00 0.  1.
         -5    1    5    5    0  503  0.32476307674E+02  0.47185596110E+02  0.52529104172E+02  0.77862621491E+02  0.47000000000E+01 0.  1.
<mgrwt>
<rscale>  2 0.17543534E+03</rscale>
<asrwt>0</asrwt>
<pdfrwt beam="1">  1       21 0.19280914E-01 0.17611316E+03</pdfrwt>
<pdfrwt beam="2">  1       21 0.94242088E-01 0.17611316E+03</pdfrwt>
<totfact> 0.23558836E+04</totfact>
</mgrwt>
</event>
<event>
12    1  0.1473662E-001  0.2077446E+03  0.7546771E-02  0.1143940E+00
         21   -1    0    0  504  503  0.00000000000E+00  0.00000000000E+00  0.71937954019E+02  0.71937954019E+02  0.00000000000E+00 0.  1.
         21   -1    0    0  502  504 -0.00000000000E+00 -0.00000000000E+00 -0.68795596347E+03  0.68795596347E+03  0.00000000000E+00 0.  1.
          6    2    1    2  502    0  0.44397413909E+01 -0.11441536374E+03 -0.44826435882E+03  0.49287503127E+03  0.16992431933E+03 0.  0.
         24    2    3    3    0    0 -0.32085677997E+02 -0.14020804391E+03 -0.34518239914E+03  0.38041459813E+03  0.69832596123E+02 0.  0.
         -6    2    1    2    0  503 -0.44397413909E+01  0.11441536374E+03 -0.16775365064E+03  0.26701888623E+03  0.17334131514E+03 0.  0.
        -24    2    5    5    0    0  0.52078225137E+02  0.44822460506E+02 -0.13055924550E+03  0.16984395893E+03  0.84143088252E+02 0.  0.
          2    1    4    4  501    0  0.22048466592E+02 -0.43910454563E+02 -0.11694647590E+03  0.12684928508E+03  0.00000000000E+00 0. -1.
         -1    1    4    4    0  501 -0.54134144589E+02 -0.96297589350E+02 -0.22823592324E+03  0.25356531305E+03  0.00000000000E+00 0.  1.
          5    1    3    3  502    0  0.36525419388E+02  0.25792680169E+02 -0.10308195967E+03  0.11246043314E+03  0.47000000000E+01 0. -1.
         13    1    6    6    0    0  0.48452277475E+02  0.50807177417E+02 -0.14086272000E+03  0.15738900329E+03  0.00000000000E+00 0. -1.
        -14    1    6    6    0    0  0.36259476619E+01 -0.59847169109E+01  0.10303474509E+02  0.12454955637E+02  0.00000000000E+00 0.  1.
         -5    1    5    5    0  503 -0.56517966528E+02  0.69592903238E+02 -0.37194405145E+02  0.97174927299E+02  0.47000000000E+01 0.  1.
<mgrwt>
<rscale>  2 0.20703026E+03</rscale>
<asrwt>0</asrwt>
<pdfrwt beam="1">  1       21 0.11067377E-01 0.20774455E+03</pdfrwt>
<pdfrwt beam="2">  1       21 0.10583938E+00 0.20774455E+03</pdfrwt>
<totfact> 0.48212525E+04</totfact>
</mgrwt>
</event>
<event>
12    1  0.1473662E-001  0.2200307E+03  0.7546771E-02  0.1133870E+00
         21   -1    0    0  504  503  0.00000000000E+00  0.00000000000E+00  0.25265971013E+03  0.25265971013E+03  0.00000000000E+00 0. -1.
         21   -1    0    0  502  504 -0.00000000000E+00 -0.00000000000E+00 -0.19324368554E+03  0.19324368554E+03  0.00000000000E+00 0. -1.
          6    2    1    2  502    0 -0.39799362887E+02  0.13072510814E+03  0.89642074660E+01  0.22016265255E+03  0.17238965566E+03 0.  0.
         24    2    3    3    0    0  0.20868837022E+01  0.62125603358E+02 -0.57218989558E+02  0.11593858970E+03  0.79396461757E+02 0.  0.
         -6    2    1    2    0  503  0.39799362887E+02 -0.13072510814E+03  0.50451817126E+02  0.22574074312E+03  0.17245420862E+03 0.  0.
        -24    2    5    5    0    0  0.15871619852E+02 -0.16189884182E+03  0.42794131296E+02  0.18542860214E+03  0.78033874161E+02 0.  0.
          2    1    4    4  501    0 -0.21805458802E+01 -0.69512289135E+01  0.14527710274E+02  0.16252037705E+02  0.00000000000E+00 0. -1.
         -1    1    4    4    0  501  0.42674295823E+01  0.69076832271E+02 -0.71746699832E+02  0.99686551995E+02  0.00000000000E+00 0.  1.
          5    1    3    3  502    0 -0.41886246589E+02  0.68599504779E+02  0.66183197024E+02  0.10422406285E+03  0.47000000000E+01 0. -1.
         13    1    6    6    0    0  0.40637569238E+02 -0.60889283325E+02  0.34983882365E+02  0.81134387794E+02  0.00000000000E+00 0. -1.
        -14    1    6    6    0    0 -0.24765949386E+02 -0.10100955850E+03  0.78102489314E+01  0.10429421434E+03  0.00000000000E+00 0.  1.
         -5    1    5    5    0  503  0.23927743035E+02  0.31173733685E+02  0.76576858300E+01  0.40312140986E+02  0.47000000000E+01 0.  1.
<mgrwt>
<rscale>  2 0.22001802E+03</rscale>
<asrwt>0</asrwt>
<pdfrwt beam="1">  1       21 0.38870725E-01 0.22003067E+03</pdfrwt>
<pdfrwt beam="2">  1       21 0.29729798E-01 0.22003067E+03</pdfrwt>
<totfact> 0.68390328E+04</totfact>
</mgrwt>
</event>
<event>
12    1  0.1473662E-001  0.1924120E+03  0.7546771E-02  0.1156442E+00
         21   -1    0    0  504  503  0.00000000000E+00  0.00000000000E+00  0.28194334953E+02  0.28194334953E+02  0.00000000000E+00 0. -1.
         21   -1    0    0  502  504 -0.00000000000E+00 -0.00000000000E+00 -0.13862282542E+04  0.13862282542E+04  0.00000000000E+00 0.  1.
          6    2    1    2  502    0  0.15030187079E+02 -0.80925972390E+02 -0.84503320161E+03  0.86652469640E+03  0.17323111187E+03 0.  0.
         24    2    3    3    0    0  0.64423423975E+02 -0.24893720418E+02 -0.62291246346E+03  0.63213395975E+03  0.82482307567E+02 0.  0.
         -6    2    1    2    0  503 -0.15030187079E+02  0.80925972390E+02 -0.51300071766E+03  0.54789789277E+03  0.17391792621E+03 0.  0.
        -24    2    5    5    0    0  0.50707055387E+02  0.76331855534E+02 -0.39167265556E+03  0.40974913379E+03  0.78032851355E+02 0.  0.
          4    1    4    4  501    0  0.18235124648E+02  0.26240338162E+02 -0.31442088309E+03  0.31604045128E+03  0.00000000000E+00 0. -1.
         -3    1    4    4    0  501  0.46188299326E+02 -0.51134058580E+02 -0.30849158037E+03  0.31609350847E+03  0.00000000000E+00 0.  1.
          5    1    3    3  502    0 -0.49393236896E+02 -0.56032251973E+02 -0.22212073815E+03  0.23439073665E+03  0.47000000000E+01 0. -1.
         11    1    6    6    0    0  0.56796083955E+02  0.24948478284E+02 -0.27825423708E+03  0.28508532438E+03  0.00000000000E+00 0. -1.
        -12    1    6    6    0    0 -0.60890285681E+01  0.51383377250E+02 -0.11341841848E+03  0.12466380941E+03  0.00000000000E+00 0.  1.
         -5    1    5    5    0  503 -0.65737242466E+02  0.45941168562E+01 -0.12132806210E+03  0.13814875898E+03  0.47000000000E+01 0.  1.
<mgrwt>
<rscale>  2 0.19225663E+03</rscale>
<asrwt>0</asrwt>
<pdfrwt beam="1">  1       21 0.43375889E-02 0.19241197E+03</pdfrwt>
<pdfrwt beam="2">  1       21 0.21326594E+00 0.19241197E+03</pdfrwt>
<totfact> 0.37870523E+04</totfact>
</mgrwt>
</event>
<event>
12    1  0.1473662E-001  0.1787205E+03  0.7546771E-02  0.1169409E+00
         21   -1    0    0  504  503  0.00000000000E+00  0.00000000000E+00  0.11113994812E+04  0.11113994812E+04  0.00000000000E+00 0. -1.
         21   -1    0    0  502  504 -0.00000000000E+00 -0.00000000000E+00 -0.33274815788E+02  0.33274815788E+02  0.00000000000E+00 0. -1.
          6    2    1    2  502    0  0.34731051729E+02  0.27842009948E+02  0.32423009347E+03  0.37022450578E+03  0.17308843895E+03 0.  0.
         24    2    3    3    0    0  0.52129378349E+02  0.13373028307E+02  0.81653343403E+02  0.12654926520E+03  0.80318976968E+02 0.  0.
         -6    2    1    2    0  503 -0.34731051729E+02 -0.27842009948E+02  0.75389457196E+03  0.77444979122E+03  0.17156348686E+03 0.  0.
        -24    2    5    5    0    0  0.66780876054E+01 -0.61462996734E+02  0.30300232217E+03  0.32038922424E+03  0.83764855064E+02 0.  0.
          4    1    4    4  501    0  0.54910033728E+02  0.70669079012E+01  0.95894246136E+02  0.11072831360E+03  0.00000000000E+00 0. -1.
         -3    1    4    4    0  501 -0.27806553794E+01  0.63061204054E+01 -0.14240902732E+02  0.15820951600E+02  0.00000000000E+00 0.  1.
          5    1    3    3  502    0 -0.17398326620E+02  0.14468981642E+02  0.24257675006E+03  0.24367524058E+03  0.47000000000E+01 0. -1.
         13    1    6    6    0    0  0.83598509351E+01 -0.48365067405E+02  0.30323512284E+03  0.30718171589E+03  0.00000000000E+00 0. -1.
        -14    1    6    6    0    0 -0.16817633297E+01 -0.13097929329E+02 -0.23280066852E+00  0.13207508347E+02  0.00000000000E+00 0.  1.
         -5    1    5    5    0  503 -0.41409139334E+02  0.33620986785E+02  0.45089224979E+03  0.45406056699E+03  0.47000000000E+01 0.  1.
<mgrwt>
<rscale>  2 0.17835027E+03</rscale>
<asrwt>0</asrwt>
<pdfrwt beam="1">  1       21 0.17098451E+00 0.17872054E+03</pdfrwt>
<pdfrwt beam="2">  1       21 0.51192033E-02 0.17872054E+03</pdfrwt>
<totfact> 0.54725885E+04</totfact>
</mgrwt>
</event>
<event>
12    1  0.1473662E-001  0.2489751E+03  0.7546771E-02  0.1114178E+00
         21   -1    0    0  504  503  0.00000000000E+00  0.00000000000E+00  0.50338296405E+03  0.50338296405E+03  0.00000000000E+00 0. -1.
         21   -1    0    0  502  504 -0.00000000000E+00 -0.00000000000E+00 -0.12308465244E+03  0.12308465244E+03  0.00000000000E+00 0. -1.
          6    2    1    2  502    0  0.37798690797E+02  0.17435532172E+03  0.21317823318E+03  0.32777057484E+03  0.17366655230E+03 0.  0.
         24    2    3    3    0    0  0.72039147340E+02  0.17048307320E+03  0.21318352333E+03  0.29299280606E+03  0.78380181110E+02 0.  0.
         -6    2    1    2    0  503 -0.37798690797E+02 -0.17435532172E+03  0.16712007843E+03  0.29869704165E+03  0.17164580636E+03 0.  0.
        -24    2    5    5    0    0 -0.55897090557E+02 -0.35089282357E+02  0.97662626816E+02  0.14195199587E+03  0.79098912675E+02 0.  0.
          4    1    4    4  501    0  0.20353492426E+02  0.13584559682E+03  0.16223381767E+03  0.21257493367E+03  0.00000000000E+00 0. -1.
         -3    1    4    4    0  501  0.51685654915E+02  0.34637476380E+02  0.50949705652E+02  0.80417872392E+02  0.00000000000E+00 0.  1.
          5    1    3    3  502    0 -0.34240456543E+02  0.38722485205E+01 -0.52901452091E-02  0.34777768774E+02  0.47000000000E+01 0. -1.
         13    1    6    6    0    0 -0.78842981623E+01 -0.47861433021E+02  0.69770951984E+02  0.84975671042E+02  0.00000000000E+00 0. -1.
        -14    1    6    6    0    0 -0.48012792394E+02  0.12772150664E+02  0.27891674832E+02  0.56976324829E+02  0.00000000000E+00 0.  1.
         -5    1    5    5    0  503  0.18098399760E+02 -0.13926603936E+03  0.69457451614E+02  0.15674504578E+03  0.47000000000E+01 0.  1.
<mgrwt>
<rscale>  2 0.24862301E+03</rscale>
<asrwt>0</asrwt>
<pdfrwt beam="1">  1       21 0.77443532E-01 0.24897508E+03</pdfrwt>
<pdfrwt beam="2">  1       21 0.18936101E-01 0.24897508E+03</pdfrwt>
<totfact> 0.36795628E+04</totfact>
</mgrwt>
</event>
<event>
12    1  0.1473662E-001  0.2524063E+03  0.7546771E-02  0.1111808E+00
         21   -1    0    0  504  503  0.00000000000E+00  0.00000000000E+00  0.10268526268E+03  0.10268526268E+03  0.00000000000E+00 0. -1.
         21   -1    0    0  502  504 -0.00000000000E+00 -0.00000000000E+00 -0.65410660326E+03  0.65410660326E+03  0.00000000000E+00 0.  1.
          6    2    1    2  502    0 -0.89078863853E+02  0.16082409367E+03 -0.36182046227E+03  0.44110617795E+03  0.17280387790E+03 0.  0.
         24    2    3    3    0    0 -0.86387380290E+02  0.16532565956E+03 -0.37481923617E+03  0.42632218991E+03  0.80410177377E+02 0.  0.
         -6    2    1    2    0  503  0.89078863853E+02 -0.16082409367E+03 -0.18960087831E+03  0.31568568799E+03  0.17294371182E+03 0.  0.
        -24    2    5    5    0    0  0.78057985953E+02 -0.41343270116E+02 -0.14438625746E+03  0.18737520952E+03  0.80372648609E+02 0.  0.
          4    1    4    4  501    0 -0.20219440567E+02  0.71698400448E+02 -0.76722062807E+02  0.10693811914E+03  0.00000000000E+00 0. -1.
         -3    1    4    4    0  501 -0.66167939722E+02  0.93627259110E+02 -0.29809717337E+03  0.31938407078E+03  0.00000000000E+00 0.  1.
          5    1    3    3  502    0 -0.26914835632E+01 -0.45015658861E+01  0.12998773904E+02  0.14783988034E+02  0.47000000000E+01 0. -1.
         13    1    6    6    0    0 -0.78241445686E+00 -0.36224843080E+02 -0.24290697579E+02  0.43622120735E+02  0.00000000000E+00 0. -1.
        -14    1    6    6    0    0  0.78840400410E+02 -0.51184270359E+01 -0.12009555988E+03  0.14375308878E+03  0.00000000000E+00 0.  1.
         -5    1    5    5    0  503  0.11020877900E+02 -0.11948082356E+03 -0.45214620847E+02  0.12831047847E+03  0.47000000000E+01 0.  1.
<mgrwt>
<rscale>  2 0.25238239E+03</rscale>
<asrwt>0</asrwt>
<pdfrwt beam="1">  1       21 0.15797733E-01 0.25240634E+03</pdfrwt>
<pdfrwt beam="2">  1       21 0.10063179E+00 0.25240634E+03</pdfrwt>
<totfact> 0.27970716E+04</totfact>
</mgrwt>
</event>
<event>
12    1  0.1473662E-001  0.1833038E+03  0.7546771E-02  0.1164842E+00
         21   -1    0    0  504  503  0.00000000000E+00  0.00000000000E+00  0.15341737605E+04  0.15341737605E+04  0.00000000000E+00 0. -1.
         21   -1    0    0  502  504 -0.00000000000E+00 -0.00000000000E+00 -0.25678940829E+02  0.25678940829E+02  0.00000000000E+00 0. -1.
          6    2    1    2  502    0 -0.49445578269E+01 -0.60893920271E+02  0.10587841111E+04  0.10745343547E+04  0.17282293630E+03 0.  0.
         24    2    3    3    0    0 -0.28294974504E+02  0.18331377727E+02  0.33255742088E+03  0.34361083927E+03  0.79607321846E+02 0.  0.
         -6    2    1    2    0  503  0.49445578269E+01  0.60893920271E+02  0.44971070860E+03  0.48531834667E+03  0.17193504007E+03 0.  0.
        -24    2    5    5    0    0 -0.60012515593E+02  0.57381395829E+02  0.24670442666E+03  0.27209217632E+03  0.79227215430E+02 0.  0.
          4    1    4    4  501    0 -0.49730468444E+02  0.13331132241E+02  0.12943278266E+03  0.13929710623E+03  0.00000000000E+00 0. -1.
         -3    1    4    4    0  501  0.21435493940E+02  0.50002454863E+01  0.20312463822E+03  0.20431373304E+03  0.00000000000E+00 0.  1.
          5    1    3    3  502    0  0.23350416677E+02 -0.79225297998E+02  0.72622669020E+03  0.73092351540E+03  0.47000000000E+01 0. -1.
         13    1    6    6    0    0 -0.13988835247E+02  0.25964456555E+02  0.13704891411E+02  0.32521755247E+02  0.00000000000E+00 0. -1.
        -14    1    6    6    0    0 -0.46023680346E+02  0.31416939274E+02  0.23299953525E+03  0.23957042107E+03  0.00000000000E+00 0.  1.
         -5    1    5    5    0  503  0.64957073420E+02  0.35125244423E+01  0.20300628194E+03  0.21322617035E+03  0.47000000000E+01 0.  1.
<mgrwt>
<rscale>  2 0.18309423E+03</rscale>
<asrwt>0</asrwt>
<pdfrwt beam="1">  1       21 0.23602666E+00 0.18330381E+03</pdfrwt>
<pdfrwt beam="2">  1       21 0.39506075E-02 0.18330381E+03</pdfrwt>
<totfact> 0.32431691E+04</totfact>
</mgrwt>
</event>
<event>
12    1  0.1473662E-001  0.2396035E+03  0.7546771E-02  0.1120239E+00
         21   -1    0    0  504  503  0.00000000000E+00  0.00000000000E+00  0.28935621646E+03  0.28935621646E+03  0.00000000000E+00 0.  1.
         21   -1    0    0  502  504 -0.00000000000E+00 -0.00000000000E+00 -0.24788348901E+03  0.24788348901E+03  0.00000000000E+00 0.  1.
          6    2    1    2  502    0  0.37632098604E+02  0.16118782492E+03 -0.10039510794E+03  0.25878624270E+03  0.17173657725E+03 0.  0.
         24    2    3    3    0    0  0.88880808021E+02  0.10635143958E+03 -0.91258191152E+02  0.18302983952E+03  0.77210348844E+02 0.  0.
         -6    2    1    2    0  503 -0.37632098604E+02 -0.16118782492E+03  0.14186783539E+03  0.27845346277E+03  0.17324017566E+03 0.  0.
        -24    2    5    5    0    0 -0.48758847970E+02 -0.25178858230E+02  0.89688566184E+02  0.13227887638E+03  0.80263703354E+02 0.  0.
          2    1    4    4  501    0 -0.10402339690E+01  0.20348112149E+02 -0.46549502015E+02  0.50813225567E+02  0.00000000000E+00 0. -1.
         -1    1    4    4    0  501  0.89921041990E+02  0.86003327431E+02 -0.44708689137E+02  0.13221661396E+03  0.00000000000E+00 0.  1.
          5    1    3    3  502    0 -0.51248709417E+02  0.54836385337E+02 -0.91369167914E+01  0.75756403176E+02  0.47000000000E+01 0. -1.
         11    1    6    6    0    0  0.15670811593E+02  0.14611610377E+02  0.17626904153E+02  0.27744931858E+02  0.00000000000E+00 0. -1.
        -12    1    6    6    0    0 -0.64429659563E+02 -0.39790468607E+02  0.72061662031E+02  0.10453394453E+03  0.00000000000E+00 0.  1.
         -5    1    5    5    0  503  0.11126749367E+02 -0.13600896669E+03  0.52179269210E+02  0.14617458639E+03  0.47000000000E+01 0.  1.
<mgrwt>
<rscale>  2 0.23933184E+03</rscale>
<asrwt>0</asrwt>
<pdfrwt beam="1">  1       21 0.44516341E-01 0.23960352E+03</pdfrwt>
<pdfrwt beam="2">  1       21 0.38135921E-01 0.23960352E+03</pdfrwt>
<totfact> 0.31371549E+04</totfact>
</mgrwt>
</event>
<event>
12    1  0.1473662E-001  0.2483947E+03  0.7546771E-02  0.1114730E+00
         21   -1    0    0  504  503  0.00000000000E+00  0.00000000000E+00  0.21511153440E+03  0.21511153440E+03  0.00000000000E+00 0.  1.
         21   -1    0    0  502  504 -0.00000000000E+00 -0.00000000000E+00 -0.28390864971E+03  0.28390864971E+03  0.00000000000E+00 0. -1.
          6    2    1    2  502    0 -0.45421347334E+02 -0.16845474373E+03 -0.33435447598E+02  0.24812109671E+03  0.17322254472E+03 0.  0.
         24    2    3    3    0    0 -0.40074402005E+02 -0.14408281273E+02 -0.70148670377E+01  0.91663308483E+02  0.80866541272E+02 0.  0.
         -6    2    1    2    0  503  0.45421347334E+02  0.16845474373E+03 -0.35361667706E+02  0.25089908740E+03  0.17680442595E+03 0.  0.
        -24    2    5    5    0    0  0.80293546078E+02  0.15924319011E+03 -0.63595485650E+02  0.20485387656E+03  0.78200241743E+02 0.  0.
          4    1    4    4  501    0 -0.34840910839E+02  0.23187592482E+02 -0.25950395870E+02  0.49244051001E+02  0.00000000000E+00 0. -1.
         -3    1    4    4    0  501 -0.52334911665E+01 -0.37595873755E+02  0.18935528833E+02  0.42419257482E+02  0.00000000000E+00 0.  1.
          5    1    3    3  502    0 -0.53469453290E+01 -0.15404646246E+03 -0.26420580560E+02  0.15645778823E+03  0.47000000000E+01 0. -1.
         13    1    6    6    0    0  0.78020346367E+02  0.68946943830E+02 -0.39603063370E+02  0.11139684977E+03  0.00000000000E+00 0. -1.
        -14    1    6    6    0    0  0.22731997107E+01  0.90296246284E+02 -0.23992422281E+02  0.93457026792E+02  0.00000000000E+00 0.  1.
         -5    1    5    5    0  503 -0.34872198744E+02  0.92115536156E+01  0.28233817945E+02  0.46045210836E+02  0.47000000000E+01 0.  1.
<mgrwt>
<rscale>  2 0.24775804E+03</rscale>
<asrwt>0</asrwt>
<pdfrwt beam="1">  1       21 0.33094082E-01 0.24839465E+03</pdfrwt>
<pdfrwt beam="2">  1       21 0.43678253E-01 0.24839465E+03</pdfrwt>
<totfact> 0.43157732E+04</totfact>
</mgrwt>
</event>
<event>
12    1  0.1473662E-001  0.1802026E+03  0.7546771E-02  0.1168575E+00
         21   -1    0    0  504  503  0.00000000000E+00  0.00000000000E+00  0.36327777280E+03  0.36327777280E+03  0.00000000000E+00 0.  1.
         21   -1    0    0  502  504 -0.00000000000E+00 -0.00000000000E+00 -0.20501107994E+03  0.20501107994E+03  0.00000000000E+00 0.  1.
          6    2    1    2  502    0 -0.86279105040E+01  0.29685194313E+02 -0.13641820377E+03  0.22287293740E+03  0.17351302056E+03 0.  0.
         24    2    3    3    0    0  0.20832584605E+02 -0.36060739591E+02 -0.91470718354E+02  0.13782697899E+03  0.94313362255E+02 0.  0.
         -6    2    1    2    0  503  0.86279105040E+01 -0.29685194313E+02  0.29468489663E+03  0.34541591534E+03  0.17753116535E+03 0.  0.
        -24    2    5    5    0    0 -0.64795529448E+02 -0.25868173539E+02  0.16982172285E+03  0.20043842279E+03  0.80427114446E+02 0.  0.
          2    1    4    4  501    0  0.24196840111E+02 -0.65459294161E+02 -0.46030681262E+02  0.83601614104E+02  0.00000000000E+00 0. -1.
         -1    1    4    4    0  501 -0.33642555061E+01  0.29398554570E+02 -0.45440037093E+02  0.54225364885E+02  0.00000000000E+00 0.  1.
          5    1    3    3  502    0 -0.29460495109E+02  0.65745933904E+02 -0.44947485411E+02  0.85045958409E+02  0.47000000000E+01 0. -1.
         11    1    6    6    0    0  0.80512617743E+01  0.11904289650E+02  0.32241776448E+01  0.14728552193E+02  0.00000000000E+00 0. -1.
        -12    1    6    6    0    0 -0.72846791222E+02 -0.37772463189E+02  0.16659754521E+03  0.18570987059E+03  0.00000000000E+00 0.  1.
         -5    1    5    5    0  503  0.73423439952E+02 -0.38170207748E+01  0.12486317378E+03  0.14497749256E+03  0.47000000000E+01 0.  1.
<mgrwt>
<rscale>  2 0.17920501E+03</rscale>
<asrwt>0</asrwt>
<pdfrwt beam="1">  1       21 0.55888888E-01 0.18020257E+03</pdfrwt>
<pdfrwt beam="2">  1       21 0.31540166E-01 0.18020257E+03</pdfrwt>
<totfact> 0.29331843E+04</totfact>
</mgrwt>
</event>
<event>
12    1  0.1473662E-001  0.1923655E+03  0.7546771E-02  0.1156489E+00
         21   -1    0    0  504  503  0.00000000000E+00  0.00000000000E+00  0.26871305764E+03  0.26871305764E+03  0.00000000000E+00 0. -1.
         21   -1    0    0  502  504 -0.00000000000E+00 -0.00000000000E+00 -0.22995926568E+03  0.22995926568E+03  0.00000000000E+00 0. -1.
          6    2    1    2  502    0  0.77983495194E+02 -0.28519696340E+02 -0.13892225901E+03  0.23728438773E+03  0.17352143386E+03 0.  0.
         24    2    3    3    0    0  0.80778230676E+02  0.75809087012E+01 -0.24926623578E+02  0.11758409897E+03  0.81376231422E+02 0.  0.
         -6    2    1    2    0  503 -0.77983495194E+02  0.28519696340E+02  0.17767605097E+03  0.26138793559E+03  0.17280068049E+03 0.  0.
        -24    2    5    5    0    0  0.23837650773E+02  0.15895955958E+00  0.78287946519E+02  0.11622608638E+03  0.82530247325E+02 0.  0.
          4    1    4    4  501    0 -0.14217386482E+01  0.49610120944E+01  0.22203348891E+02  0.22795211860E+02  0.00000000000E+00 0. -1.
         -3    1    4    4    0  501  0.82199969324E+02  0.26198966068E+01 -0.47129972470E+02  0.94788887113E+02  0.00000000000E+00 0.  1.
          5    1    3    3  502    0 -0.27947354819E+01 -0.36100605042E+02 -0.11399563543E+03  0.11970028876E+03  0.47000000000E+01 0. -1.
         11    1    6    6    0    0 -0.41932867634E+01  0.36734197866E+02  0.20370132274E+02  0.42212879973E+02  0.00000000000E+00 0. -1.
        -12    1    6    6    0    0  0.28030937537E+02 -0.36575238307E+02  0.57917814245E+02  0.74013206411E+02  0.00000000000E+00 0.  1.
         -5    1    5    5    0  503 -0.10182114597E+03  0.28360736781E+02  0.99388104452E+02  0.14516184920E+03  0.47000000000E+01 0.  1.
<mgrwt>
<rscale>  2 0.19220282E+03</rscale>
<asrwt>0</asrwt>
<pdfrwt beam="1">  1       21 0.41340470E-01 0.19236550E+03</pdfrwt>
<pdfrwt beam="2">  1       21 0.35378349E-01 0.19236550E+03</pdfrwt>
<totfact> 0.43412324E+04</totfact>
</mgrwt>
</event>
<event>
12    1  0.1473662E-001  0.4903637E+03  0.7546771E-02  0.1016397E+00
         21   -1    0    0  504  503  0.00000000000E+00  0.00000000000E+00  0.51069899537E+03  0.51069899537E+03  0.00000000000E+00 0. -1.
         21   -1    0    0  502  504 -0.00000000000E+00 -0.00000000000E+00 -0.23080046423E+04  0.23080046423E+04  0.00000000000E+00 0.  1.
          6    2    1    2  502    0 -0.85043719982E+02 -0.44971004991E+03 -0.21566070587E+04  0.22116533492E+04  0.17602547563E+03 0.  0.
         24    2    3    3    0    0 -0.82223052305E+02 -0.34573193523E+03 -0.13514474506E+04  0.13997891432E+04  0.81903798746E+02 0.  0.
         -6    2    1    2    0  503  0.85043719982E+02  0.44971004991E+03  0.35930141179E+03  0.60705028846E+03  0.17303463499E+03 0.  0.
        -24    2    5    5    0    0 -0.79811758680E+01  0.28853615230E+03  0.25717447468E+03  0.39472351718E+03  0.79694003759E+02 0.  0.
          4    1    4    4  501    0 -0.84833236447E+02 -0.24869305000E+03 -0.87726452383E+03  0.91577178155E+03  0.00000000000E+00 0. -1.
         -3    1    4    4    0  501  0.26101841429E+01 -0.97038885228E+02 -0.47418292675E+03  0.48401736160E+03  0.00000000000E+00 0.  1.
          5    1    3    3  502    0 -0.28206676774E+01 -0.10397811468E+03 -0.80515960813E+03  0.81186420605E+03  0.47000000000E+01 0. -1.
         11    1    6    6    0    0  0.33332923111E+02  0.18120112085E+03  0.16518913305E+03  0.24745177235E+03  0.00000000000E+00 0. -1.
        -12    1    6    6    0    0 -0.41314098979E+02  0.10733503145E+03  0.91985341633E+02  0.14727174484E+03  0.00000000000E+00 0.  1.
         -5    1    5    5    0  503  0.93024895850E+02  0.16117389760E+03  0.10212693711E+03  0.21232677128E+03  0.47000000000E+01 0.  1.
<mgrwt>
<rscale>  2 0.49009704E+03</rscale>
<asrwt>0</asrwt>
<pdfrwt beam="1">  1       21 0.78569075E-01 0.49036367E+03</pdfrwt>
<pdfrwt beam="2">  1       21 0.35507764E+00 0.49036367E+03</pdfrwt>
<totfact> 0.16651200E+01</totfact>
</mgrwt>
</event>
<event>
12    1  0.1473662E-001  0.1828492E+03  0.7546771E-02  0.1165197E+00
         21   -1    0    0  504  503  0.00000000000E+00  0.00000000000E+00  0.44733754897E+03  0.44733754897E+03  0.00000000000E+00 0. -1.
         21   -1    0    0  502  504 -0.00000000000E+00 -0.00000000000E+00 -0.75484736494E+02  0.75484736494E+02  0.00000000000E+00 0. -1.
          6    2    1    2  502    0 -0.51342370921E+02 -0.26689396868E+02  0.15674132138E+03  0.24083537376E+03  0.17345164302E+03 0.  0.
         24    2    3    3    0    0  0.56582634481E+01 -0.22992780531E+02  0.11629758861E+02  0.84815526085E+02  0.80608549621E+02 0.  0.
         -6    2    1    2    0  503  0.51342370921E+02  0.26689396868E+02  0.21511149110E+03  0.28198691171E+03  0.17290257898E+03 0.  0.
        -24    2    5    5    0    0  0.39489041925E+02  0.84834290565E+02  0.15692650749E+03  0.19874682288E+03  0.78218473290E+02 0.  0.
          4    1    4    4  501    0  0.17076779962E+01 -0.52093076746E+02 -0.25928765156E+01  0.52185513485E+02  0.00000000000E+00 0. -1.
         -3    1    4    4    0  501  0.39505854519E+01  0.29100296215E+02  0.14222635377E+02  0.32630012600E+02  0.00000000000E+00 0.  1.
          5    1    3    3  502    0 -0.57000634369E+02 -0.36966163368E+01  0.14511156252E+03  0.15601984767E+03  0.47000000000E+01 0. -1.
         11    1    6    6    0    0  0.59766614533E+02  0.61941802033E+02  0.13842479197E+03  0.16300385910E+03  0.00000000000E+00 0. -1.
        -12    1    6    6    0    0 -0.20277572608E+02  0.22892488532E+02  0.18501715521E+02  0.35742963773E+02  0.00000000000E+00 0.  1.
         -5    1    5    5    0  503  0.11853328996E+02 -0.58144893698E+02  0.58184983613E+02  0.83240088836E+02  0.47000000000E+01 0.  1.
<mgrwt>
<rscale>  2 0.18271889E+03</rscale>
<asrwt>0</asrwt>
<pdfrwt beam="1">  1       21 0.68821160E-01 0.18284921E+03</pdfrwt>
<pdfrwt beam="2">  1       21 0.11613037E-01 0.18284921E+03</pdfrwt>
<totfact> 0.12010979E+05</totfact>
</mgrwt>
</event>
<event>
12    1  0.1473662E-001  0.1796619E+03  0.7546771E-02  0.1168226E+00
         21   -1    0    0  504  503  0.00000000000E+00  0.00000000000E+00  0.34447934725E+02  0.34447934725E+02  0.00000000000E+00 0.  1.
         21   -1    0    0  502  504 -0.00000000000E+00 -0.00000000000E+00 -0.13819839497E+04  0.13819839497E+04  0.00000000000E+00 0. -1.
          6    2    1    2  502    0  0.43957695732E+02  0.99557577764E+01 -0.10770494292E+04  0.10919312594E+04  0.17391666460E+03 0.  0.
         24    2    3    3    0    0  0.89145370075E+02 -0.23846017380E+02 -0.69343086582E+03  0.70415583719E+03  0.80458360793E+02 0.  0.
         -6    2    1    2    0  503 -0.43957695732E+02 -0.99557577764E+01 -0.27048658577E+03  0.32450062501E+03  0.17351157431E+03 0.  0.
        -24    2    5    5    0    0 -0.27011735981E+02 -0.33196383931E+02 -0.27944904915E+03  0.29400951145E+03  0.80735295666E+02 0.  0.
          2    1    4    4  501    0  0.42371470311E+02  0.19270625018E+02 -0.45533691088E+03  0.45770995281E+03  0.00000000000E+00 0. -1.
         -1    1    4    4    0  501  0.46773899763E+02 -0.43116642398E+02 -0.23809395494E+03  0.24644588438E+03  0.00000000000E+00 0.  1.
          5    1    3    3  502    0 -0.45187674343E+02  0.33801775156E+02 -0.38361856341E+03  0.38777542226E+03  0.47000000000E+01 0. -1.
         11    1    6    6    0    0 -0.33730749772E+02 -0.57178704360E+02 -0.20874503862E+03  0.21904716127E+03  0.00000000000E+00 0. -1.
        -12    1    6    6    0    0  0.67190137912E+01  0.23982320430E+02 -0.70704010533E+02  0.74962350183E+02  0.00000000000E+00 0.  1.
         -5    1    5    5    0  503 -0.16945959751E+02  0.23240626154E+02  0.89624633787E+01  0.30491113554E+02  0.47000000000E+01 0.  1.
<mgrwt>
<rscale>  2 0.17956380E+03</rscale>
<asrwt>0</asrwt>
<pdfrwt beam="1">  1       21 0.52996817E-02 0.17966191E+03</pdfrwt>
<pdfrwt beam="2">  1       21 0.21261294E+00 0.17966191E+03</pdfrwt>
<totfact> 0.27503585E+04</totfact>
</mgrwt>
</event>
<event>
12    1  0.1473662E-001  0.1931460E+03  0.7546771E-02  0.1155828E+00
         21   -1    0    0  504  503  0.00000000000E+00  0.00000000000E+00  0.56114182467E+03  0.56114182467E+03  0.00000000000E+00 0.  1.
         21   -1    0    0  502  504 -0.00000000000E+00 -0.00000000000E+00 -0.12696983388E+03  0.12696983388E+03  0.00000000000E+00 0.  1.
          6    2    1    2  502    0 -0.24942248897E+02  0.83178182937E+02  0.45485793531E+03  0.49386104977E+03  0.17164576682E+03 0.  0.
         24    2    3    3    0    0 -0.25293985611E+02  0.84588593752E+02  0.16308883046E+03  0.20205047162E+03  0.80196075702E+02 0.  0.
         -6    2    1    2    0  503  0.24942248897E+02 -0.83178182937E+02 -0.20685944516E+02  0.19425060879E+03  0.17252438905E+03 0.  0.
        -24    2    5    5    0    0  0.40269140236E+02 -0.95869059264E+02  0.32334896414E+02  0.13742392920E+03  0.83829055889E+02 0.  0.
          4    1    4    4  501    0  0.11027318842E+01  0.26986927342E+02 -0.81565965965E-01  0.27009570858E+02  0.00000000000E+00 0. -1.
         -3    1    4    4    0  501 -0.26396717495E+02  0.57601666411E+02  0.16317039643E+03  0.17504090076E+03  0.00000000000E+00 0.  1.
          5    1    3    3  502    0  0.35173671336E+00 -0.14104108158E+01  0.29176910484E+03  0.29181057815E+03  0.47000000000E+01 0. -1.
         13    1    6    6    0    0  0.12732238272E+02 -0.10135564591E+03  0.37607579910E+02  0.10885498113E+03  0.00000000000E+00 0. -1.
        -14    1    6    6    0    0  0.27536901964E+02  0.54865866461E+01 -0.52726834968E+01  0.28568948074E+02  0.00000000000E+00 0.  1.
         -5    1    5    5    0  503 -0.15326891339E+02  0.12690876327E+02 -0.53020840930E+02  0.56826679588E+02  0.47000000000E+01 0.  1.
<mgrwt>
<rscale>  2 0.19294963E+03</rscale>
<asrwt>0</asrwt>
<pdfrwt beam="1">  1       21 0.86329510E-01 0.19314603E+03</pdfrwt>
<pdfrwt beam="2">  1       21 0.19533821E-01 0.19314603E+03</pdfrwt>
<totfact> 0.27888126E+04</totfact>
</mgrwt>
</event>
<event>
12    1  0.1473662E-001  0.1742200E+03  0.7546771E-02  0.1173676E+00
         21   -1    0    0  504  503  0.00000000000E+00  0.00000000000E+00  0.23621990210E+02  0.23621990210E+02  0.00000000000E+00 0. -1.
         21   -1    0    0  502  504 -0.00000000000E+00 -0.00000000000E+00 -0.17172887797E+04  0.17172887797E+04  0.00000000000E+00 0. -1.
          6    2    1    2  502    0  0.64202944442E+01 -0.88918501418E+01 -0.12847887019E+04  0.12964629066E+04  0.17324483943E+03 0.  0.
         24    2    3    3    0    0  0.89598725878E+01 -0.65270974224E+02 -0.50217773435E+03  0.51180561092E+03  0.73633736103E+02 0.  0.
         -6    2    1    2    0  503 -0.64202944442E+01  0.88918501418E+01 -0.40887808764E+03  0.44444786340E+03  0.17387445915E+03 0.  0.
        -24    2    5    5    0    0  0.34706990959E+02 -0.44853194961E+02 -0.30444240044E+03  0.31991318453E+03  0.80267590812E+02 0.  0.
          4    1    4    4  501    0  0.25017641549E+02 -0.40283143486E+02 -0.44360334519E+03  0.44613063322E+03  0.00000000000E+00 0. -1.
         -3    1    4    4    0  501 -0.16057768961E+02 -0.24987830737E+02 -0.58574389165E+02  0.65674977693E+02  0.00000000000E+00 0.  1.
          5    1    3    3  502    0 -0.25395781436E+01  0.56379124082E+02 -0.78261096754E+03  0.78465729564E+03  0.47000000000E+01 0. -1.
         13    1    6    6    0    0  0.11848622248E+02  0.93711380009E+01 -0.69002618600E+01  0.16607880369E+02  0.00000000000E+00 0. -1.
        -14    1    6    6    0    0  0.22858368711E+02 -0.54224332961E+02 -0.29754213858E+03  0.30330530417E+03  0.00000000000E+00 0.  1.
         -5    1    5    5    0  503 -0.41127285404E+02  0.53745045102E+02 -0.10443568720E+03  0.12453467886E+03  0.47000000000E+01 0.  1.
<mgrwt>
<rscale>  2 0.17406271E+03</rscale>
<asrwt>0</asrwt>
<pdfrwt beam="1">  1       21 0.36341511E-02 0.17422001E+03</pdfrwt>
<pdfrwt beam="2">  1       21 0.26419836E+00 0.17422001E+03</pdfrwt>
<totfact> 0.25700220E+04</totfact>
</mgrwt>
</event>
<event>
12    1  0.1473662E-001  0.1834799E+03  0.7546771E-02  0.1164665E+00
         21   -1    0    0  504  503  0.00000000000E+00  0.00000000000E+00  0.94027384501E+03  0.94027384501E+03  0.00000000000E+00 0. -1.
         21   -1    0    0  502  504 -0.00000000000E+00 -0.00000000000E+00 -0.53151237968E+02  0.53151237968E+02  0.00000000000E+00 0. -1.
          6    2    1    2  502    0  0.16136396782E+02  0.59766612084E+02  0.15787578038E+03  0.24145048605E+03  0.17187537334E+03 0.  0.
         24    2    3    3    0    0  0.43082971721E+02 -0.17995751883E+02  0.50247686174E+02  0.10588131620E+03  0.80659987704E+02 0.  0.
         -6    2    1    2    0  503 -0.16136396782E+02 -0.59766612084E+02  0.72924682665E+03  0.75197459692E+03  0.17272066759E+03 0.  0.
        -24    2    5    5    0    0 -0.14970353796E+01 -0.46914615911E+02  0.12896681224E+03  0.15136018617E+03  0.63829812744E+02 0.  0.
          4    1    4    4  501    0  0.33417146311E+02  0.10843172903E+02 -0.11568139483E+02  0.36987861756E+02  0.00000000000E+00 0. -1.
         -3    1    4    4    0  501  0.96658254096E+01 -0.28838924786E+02  0.61815825657E+02  0.68893454444E+02  0.00000000000E+00 0.  1.
          5    1    3    3  502    0 -0.26946574939E+02  0.77762363966E+02  0.10762809421E+03  0.13556916985E+03  0.47000000000E+01 0. -1.
         13    1    6    6    0    0  0.86246008683E+01 -0.26655265008E+02  0.12532984348E+03  0.12842295963E+03  0.00000000000E+00 0. -1.
        -14    1    6    6    0    0 -0.10121636248E+02 -0.20259350903E+02  0.36369687598E+01  0.22937226535E+02  0.00000000000E+00 0.  1.
         -5    1    5    5    0  503 -0.14639361402E+02 -0.12851996172E+02  0.60028001441E+03  0.60061441076E+03  0.47000000000E+01 0.  1.
<mgrwt>
<rscale>  2 0.18328066E+03</rscale>
<asrwt>0</asrwt>
<pdfrwt beam="1">  1       21 0.14465750E+00 0.18347986E+03</pdfrwt>
<pdfrwt beam="2">  1       21 0.81771142E-02 0.18347986E+03</pdfrwt>
<totfact> 0.38171024E+04</totfact>
</mgrwt>
</event>
<event>
12    1  0.1473662E-001  0.1846825E+03  0.7546771E-02  0.1164134E+00
         21   -1    0    0  504  503  0.00000000000E+00  0.00000000000E+00  0.10377636503E+03  0.10377636503E+03  0.00000000000E+00 0.  1.
         21   -1    0    0  502  504 -0.00000000000E+00 -0.00000000000E+00 -0.50095453180E+03  0.50095453180E+03  0.00000000000E+00 0.  1.
          6    2    1    2  502    0  0.47594037243E+02  0.40267228460E+02 -0.38008197469E+03  0.42257535166E+03  0.17384181970E+03 0.  0.
         24    2    3    3    0    0  0.53414429249E+02  0.70251653242E+02 -0.16021354867E+03  0.20054571973E+03  0.82230216412E+02 0.  0.
         -6    2    1    2    0  503 -0.47594037243E+02 -0.40267228460E+02 -0.17096192079E+02  0.18215554517E+03  0.17029891598E+03 0.  0.
        -24    2    5    5    0    0  0.31067780559E+02 -0.41840889152E+02 -0.32645068041E+02  0.10181865743E+03  0.81150918295E+02 0.  0.
          4    1    4    4  501    0 -0.63654521077E+01  0.18888641296E+02  0.21657101684E+01  0.20049689551E+02  0.00000000000E+00 0. -1.
         -3    1    4    4    0  501  0.59779881356E+02  0.51363011946E+02 -0.16237925884E+03  0.18049603018E+03  0.00000000000E+00 0.  1.
          5    1    3    3  502    0 -0.58203920056E+01 -0.29984424782E+02 -0.21986842602E+03  0.22202963193E+03  0.47000000000E+01 0. -1.
         11    1    6    6    0    0  0.38836289518E+02  0.12956372575E+02 -0.16766616607E+02  0.44240755038E+02  0.00000000000E+00 0. -1.
        -12    1    6    6    0    0 -0.77685089590E+01 -0.54797261727E+02 -0.15878451434E+02  0.57577902395E+02  0.00000000000E+00 0.  1.
         -5    1    5    5    0  503 -0.78661817802E+02  0.15736606924E+01  0.15548875961E+02  0.80336887739E+02  0.47000000000E+01 0.  1.
<mgrwt>
<rscale>  2 0.18384404E+03</rscale>
<asrwt>0</asrwt>
<pdfrwt beam="1">  1       21 0.15965594E-01 0.18468249E+03</pdfrwt>
<pdfrwt beam="2">  1       21 0.77069929E-01 0.18468249E+03</pdfrwt>
<totfact> 0.52563801E+04</totfact>
</mgrwt>
</event>
<event>
12    1  0.1473662E-001  0.1771786E+03  0.7546771E-02  0.1170721E+00
         21   -1    0    0  504  503  0.00000000000E+00  0.00000000000E+00  0.28262436538E+02  0.28262436538E+02  0.00000000000E+00 0. -1.
         21   -1    0    0  502  504 -0.00000000000E+00 -0.00000000000E+00 -0.15968391489E+04  0.15968391489E+04  0.00000000000E+00 0. -1.
          6    2    1    2  502    0  0.24116057486E+02  0.26307132209E+02 -0.12334654034E+04  0.12460345217E+04  0.17289152199E+03 0.  0.
         24    2    3    3    0    0  0.74016566984E+02  0.29393817202E+02 -0.58320297629E+03  0.59383600697E+03  0.78568714745E+02 0.  0.
         -6    2    1    2    0  503 -0.24116057486E+02 -0.26307132209E+02 -0.33511130897E+03  0.37906706377E+03  0.17354711178E+03 0.  0.
        -24    2    5    5    0    0  0.27114130310E+02 -0.56572739662E+02 -0.27875122808E+03  0.29697511622E+03  0.80971115584E+02 0.  0.
          4    1    4    4  501    0  0.55678857114E+02  0.13548255197E+02 -0.54863072156E+03  0.55161522730E+03  0.00000000000E+00 0. -1.
         -3    1    4    4    0  501  0.18337709870E+02  0.15845562005E+02 -0.34572254732E+02  0.42220779668E+02  0.00000000000E+00 0.  1.
          5    1    3    3  502    0 -0.49900509497E+02 -0.30866849937E+01 -0.65026242710E+03  0.65219851470E+03  0.47000000000E+01 0. -1.
         11    1    6    6    0    0  0.52816066042E+02 -0.17470680860E+02 -0.14966972250E+03  0.15967400338E+03  0.00000000000E+00 0. -1.
        -12    1    6    6    0    0 -0.25701935732E+02 -0.39102058802E+02 -0.12908150558E+03  0.13730111283E+03  0.00000000000E+00 0.  1.
         -5    1    5    5    0  503 -0.51230187797E+02  0.30265607453E+02 -0.56360080884E+02  0.82091947556E+02  0.47000000000E+01 0.  1.
<mgrwt>
<rscale>  2 0.17701784E+03</rscale>
<asrwt>0</asrwt>
<pdfrwt beam="1">  1       21 0.43480660E-02 0.17717858E+03</pdfrwt>
<pdfrwt beam="2">  1       21 0.24566763E+00 0.17717858E+03</pdfrwt>
<totfact> 0.24342990E+04</totfact>
</mgrwt>
</event>
<event>
12    1  0.1473662E-001  0.1827608E+03  0.7546771E-02  0.1165849E+00
         21   -1    0    0  504  503  0.00000000000E+00  0.00000000000E+00  0.56212213893E+03  0.56212213893E+03  0.00000000000E+00 0. -1.
         21   -1    0    0  502  504 -0.00000000000E+00 -0.00000000000E+00 -0.69167207152E+02  0.69167207152E+02  0.00000000000E+00 0. -1.
          6    2    1    2  502    0  0.27623663098E+02  0.42958598016E+02  0.12409465060E+03  0.22090946565E+03  0.17547934865E+03 0.  0.
         24    2    3    3    0    0  0.77955269025E+02  0.70004894681E+02  0.10070289814E+03  0.15898986616E+03  0.64490267479E+02 0.  0.
         -6    2    1    2    0  503 -0.27623663098E+02 -0.42958598016E+02  0.36886028118E+03  0.41037988043E+03  0.17246805885E+03 0.  0.
        -24    2    5    5    0    0  0.34219247121E+02 -0.60443537232E+02  0.28445584076E+03  0.30418916423E+03  0.82410825913E+02 0.  0.
          4    1    4    4  501    0  0.61659556045E+02  0.80927100922E+02  0.93233596615E+02  0.13799855091E+03  0.00000000000E+00 0. -1.
         -3    1    4    4    0  501  0.16295712980E+02 -0.10922206241E+02  0.74693015292E+01  0.20991315253E+02  0.00000000000E+00 0.  1.
          5    1    3    3  502    0 -0.50331605927E+02 -0.27046296665E+02  0.23391752456E+02  0.61919599493E+02  0.47000000000E+01 0. -1.
         13    1    6    6    0    0 -0.18810262765E+02  0.85378712776E+01  0.49319637810E+02  0.53471000598E+02  0.00000000000E+00 0. -1.
        -14    1    6    6    0    0  0.53029509886E+02 -0.68981408510E+02  0.23513620295E+03  0.25071816363E+03  0.00000000000E+00 0.  1.
         -5    1    5    5    0  503 -0.61842910219E+02  0.17484939216E+02  0.84404440424E+02  0.10619071620E+03  0.47000000000E+01 0.  1.
<mgrwt>
<rscale>  2 0.18203414E+03</rscale>
<asrwt>0</asrwt>
<pdfrwt beam="1">  1       21 0.86480326E-01 0.18276080E+03</pdfrwt>
<pdfrwt beam="2">  1       21 0.10641109E-01 0.18276080E+03</pdfrwt>
<totfact> 0.84072728E+04</totfact>
</mgrwt>
</event>
<event>
12    1  0.1473662E-001  0.5947413E+03  0.7546771E-02  0.9916475E-01
         21   -1    0    0  504  503  0.00000000000E+00  0.00000000000E+00  0.72366051361E+03  0.72366051361E+03  0.00000000000E+00 0.  1.
         21   -1    0    0  502  504 -0.00000000000E+00 -0.00000000000E+00 -0.91595860227E+03  0.91595860227E+03  0.00000000000E+00 0. -1.
          6    2    1    2  502    0 -0.43490503945E+03  0.36711585300E+03 -0.65611317957E+03  0.88555161986E+03  0.17262886246E+03 0.  0.
         24    2    3    3    0    0 -0.30556978010E+03  0.20510674280E+03 -0.34009637757E+03  0.50757904116E+03  0.80803901724E+02 0.  0.
         -6    2    1    2    0  503  0.43490503945E+03 -0.36711585300E+03  0.46381509091E+03  0.75406749603E+03  0.17197937999E+03 0.  0.
        -24    2    5    5    0    0  0.17091243842E+03 -0.19266846010E+03  0.26638036921E+03  0.38107078609E+03  0.89018232889E+02 0.  0.
          2    1    4    4  501    0 -0.25354393782E+03  0.19580614661E+03 -0.26501257910E+03  0.41575983757E+03  0.00000000000E+00 0. -1.
         -1    1    4    4    0  501 -0.52025842284E+02  0.93005961873E+01 -0.75083798473E+02  0.91819203590E+02  0.00000000000E+00 0.  1.
          5    1    3    3  502    0 -0.12933525935E+03  0.16200911020E+03 -0.31601680200E+03  0.37797257870E+03  0.47000000000E+01 0. -1.
         11    1    6    6    0    0  0.16453521470E+03 -0.18887171434E+03  0.27343935890E+03  0.37082805227E+03  0.00000000000E+00 0. -1.
        -12    1    6    6    0    0  0.63772237240E+01 -0.37967457612E+01 -0.70589896873E+01  0.10242733825E+02  0.00000000000E+00 0.  1.
         -5    1    5    5    0  503  0.26399260103E+03 -0.17444739290E+03  0.19743472169E+03  0.37299670993E+03  0.47000000000E+01 0.  1.
<mgrwt>
<rscale>  2 0.59469421E+03</rscale>
<asrwt>0</asrwt>
<pdfrwt beam="1">  1       21 0.11133239E+00 0.59474126E+03</pdfrwt>
<pdfrwt beam="2">  1       21 0.14091671E+00 0.59474126E+03</pdfrwt>
<totfact> 0.17056698E+02</totfact>
</mgrwt>
</event>
<event>
12    1  0.1473662E-001  0.3548635E+03  0.7546771E-02  0.1060756E+00
         21   -1    0    0  504  503  0.00000000000E+00  0.00000000000E+00  0.78239151641E+02  0.78239151641E+02  0.00000000000E+00 0.  1.
         21   -1    0    0  502  504 -0.00000000000E+00 -0.00000000000E+00 -0.17944491396E+04  0.17944491396E+04  0.00000000000E+00 0. -1.
          6    2    1    2  502    0  0.26816298586E+03  0.15336635302E+03 -0.11617404946E+04  0.12143840068E+04  0.17220602173E+03 0.  0.
         24    2    3    3    0    0  0.12033052072E+03  0.52612495533E+02 -0.34000222979E+03  0.37338362426E+03  0.81032744639E+02 0.  0.
         -6    2    1    2    0  503 -0.26816298586E+03 -0.15336635302E+03 -0.55446949332E+03  0.65830428441E+03  0.17462956976E+03 0.  0.
        -24    2    5    5    0    0 -0.70865147575E+02 -0.49744681590E+02 -0.11500034103E+03  0.16553749008E+03  0.81738483586E+02 0.  0.
          2    1    4    4  501    0  0.84375456659E+02  0.70770310285E+02 -0.20775006703E+03  0.23513346179E+03  0.00000000000E+00 0. -1.
         -1    1    4    4    0  501  0.35955064059E+02 -0.18157814753E+02 -0.13225216276E+03  0.13825016247E+03  0.00000000000E+00 0.  1.
          5    1    3    3  502    0  0.14783246514E+03  0.10075385749E+03 -0.82173826482E+03  0.84100038254E+03  0.47000000000E+01 0. -1.
         13    1    6    6    0    0 -0.70600655213E+01 -0.49628971376E+02 -0.75067832512E+02  0.90266598491E+02  0.00000000000E+00 0. -1.
        -14    1    6    6    0    0 -0.63805082054E+02 -0.11571021391E+00 -0.39932508518E+02  0.75270891594E+02  0.00000000000E+00 0.  1.
         -5    1    5    5    0  503 -0.19729783828E+03 -0.10362167143E+03 -0.43946915229E+03  0.49276679433E+03  0.47000000000E+01 0.  1.
<mgrwt>
<rscale>  2 0.35456655E+03</rscale>
<asrwt>0</asrwt>
<pdfrwt beam="1">  1       21 0.12036792E-01 0.35486351E+03</pdfrwt>
<pdfrwt beam="2">  1       21 0.27606911E+00 0.35486351E+03</pdfrwt>
<totfact> 0.23823407E+03</totfact>
</mgrwt>
</event>
<event>
12    1  0.1473662E-001  0.2282265E+03  0.7546771E-02  0.1128045E+00
         21   -1    0    0  504  503  0.00000000000E+00  0.00000000000E+00  0.79811905499E+03  0.79811905499E+03  0.00000000000E+00 0.  1.
         21   -1    0    0  502  504 -0.00000000000E+00 -0.00000000000E+00 -0.11587507151E+03  0.11587507151E+03  0.00000000000E+00 0. -1.
          6    2    1    2  502    0 -0.95766461357E+02 -0.11400095632E+03  0.38729829149E+02  0.23148935310E+03  0.17297366208E+03 0.  0.
         24    2    3    3    0    0  0.17519389009E+02 -0.57306472417E+02  0.36020354716E+01  0.99944682796E+02  0.79906221207E+02 0.  0.
         -6    2    1    2    0  503  0.95766461357E+02  0.11400095632E+03  0.64351415433E+03  0.68250477339E+03  0.17185710843E+03 0.  0.
        -24    2    5    5    0    0  0.12907339546E+03  0.10444760638E+03  0.46063294712E+03  0.49631066955E+03  0.81069876292E+02 0.  0.
          4    1    4    4  501    0  0.13466376764E+02 -0.17449973124E+02 -0.36896429337E+02  0.42978964192E+02  0.00000000000E+00 0. -1.
         -3    1    4    4    0  501  0.40530122451E+01 -0.39856499293E+02  0.40498464809E+02  0.56965718604E+02  0.00000000000E+00 0.  1.
          5    1    3    3  502    0 -0.11328585037E+03 -0.56694483899E+02  0.35127793678E+02  0.13154467031E+03  0.47000000000E+01 0. -1.
         13    1    6    6    0    0 -0.10989969489E+02  0.14108063768E+02  0.37889687560E+02  0.41898034752E+02  0.00000000000E+00 0. -1.
        -14    1    6    6    0    0  0.14006336495E+03  0.90339542614E+02  0.42274325956E+03  0.45441263480E+03  0.00000000000E+00 0.  1.
         -5    1    5    5    0  503 -0.33306934106E+02  0.95533499345E+01  0.18288120721E+03  0.18619410384E+03  0.47000000000E+01 0.  1.
<mgrwt>
<rscale>  2 0.22801491E+03</rscale>
<asrwt>0</asrwt>
<pdfrwt beam="1">  1       21 0.12278754E+00 0.22822647E+03</pdfrwt>
<pdfrwt beam="2">  1       21 0.17826935E-01 0.22822647E+03</pdfrwt>
<totfact> 0.13929469E+04</totfact>
</mgrwt>
</event>
<event>
12    1  0.1473662E-001  0.1791448E+03  0.7546771E-02  0.1168690E+00
         21   -1    0    0  504  503  0.00000000000E+00  0.00000000000E+00  0.62592171964E+03  0.62592171964E+03  0.00000000000E+00 0.  1.
         21   -1    0    0  502  504 -0.00000000000E+00 -0.00000000000E+00 -0.14773748951E+03  0.14773748951E+03  0.00000000000E+00 0.  1.
          6    2    1    2  502    0  0.45157200281E+02 -0.10460276796E+02 -0.73648431165E+02  0.19347636377E+03  0.17280168343E+03 0.  0.
         24    2    3    3    0    0  0.21671533829E+02 -0.15024711836E+02 -0.11690471679E+03  0.14382148644E+03  0.79514211363E+02 0.  0.
         -6    2    1    2    0  503 -0.45157200281E+02  0.10460276796E+02  0.55183266130E+03  0.58018284538E+03  0.17304409227E+03 0.  0.
        -24    2    5    5    0    0 -0.95065026299E+02  0.22919921918E+02  0.41243604734E+03  0.43152370560E+03  0.80910650170E+02 0.  0.
          2    1    4    4  501    0 -0.15317265430E+02  0.24939365440E+02 -0.43277529380E+02  0.52244953039E+02  0.00000000000E+00 0. -1.
         -1    1    4    4    0  501  0.36988799259E+02 -0.39964077276E+02 -0.73627187414E+02  0.91576533400E+02  0.00000000000E+00 0.  1.
          5    1    3    3  502    0  0.23485666452E+02  0.45644350397E+01  0.43256285629E+02  0.49654877327E+02  0.47000000000E+01 0. -1.
         13    1    6    6    0    0 -0.59887884307E+02 -0.20812870738E+02  0.14489450835E+03  0.15815863184E+03  0.00000000000E+00 0. -1.
        -14    1    6    6    0    0 -0.35177141992E+02  0.43732792656E+02  0.26754153899E+03  0.27336507377E+03  0.00000000000E+00 0.  1.
         -5    1    5    5    0  503  0.49907826018E+02 -0.12459645123E+02  0.13939661396E+03  0.14865913977E+03  0.47000000000E+01 0.  1.
<mgrwt>
<rscale>  2 0.17908620E+03</rscale>
<asrwt>0</asrwt>
<pdfrwt beam="1">  1       21 0.96295648E-01 0.17914477E+03</pdfrwt>
<pdfrwt beam="2">  1       21 0.22728845E-01 0.17914477E+03</pdfrwt>
<totfact> 0.16430923E+04</totfact>
</mgrwt>
</event>
<event>
12    1  0.1473662E-001  0.2179512E+03  0.7546771E-02  0.1138097E+00
         21   -1    0    0  504  503  0.00000000000E+00  0.00000000000E+00  0.25770635228E+02  0.25770635228E+02  0.00000000000E+00 0. -1.
         21   -1    0    0  502  504 -0.00000000000E+00 -0.00000000000E+00 -0.22788719078E+04  0.22788719078E+04  0.00000000000E+00 0. -1.
          6    2    1    2  502    0 -0.34263164104E+02 -0.10194591566E+03 -0.17200209436E+04  0.17337747136E+04  0.18956734130E+03 0.  0.
         24    2    3    3    0    0 -0.84874962226E+02 -0.17827242496E+02 -0.81146661062E+03  0.81991992683E+03  0.79177373512E+02 0.  0.
         -6    2    1    2    0  503  0.34263164104E+02  0.10194591566E+03 -0.53308032898E+03  0.57086782946E+03  0.17363325554E+03 0.  0.
        -24    2    5    5    0    0  0.57643145343E+02  0.12593520388E+03 -0.49358916658E+03  0.51887022009E+03  0.80085155610E+02 0.  0.
          2    1    4    4  501    0 -0.68320182885E+02 -0.24440233572E+02 -0.31972215490E+03  0.32785244965E+03  0.00000000000E+00 0. -1.
         -1    1    4    4    0  501 -0.16554779341E+02  0.66129910756E+01 -0.49174445572E+03  0.49206747718E+03  0.00000000000E+00 0.  1.
          5    1    3    3  502    0  0.50611798122E+02 -0.84118673160E+02 -0.90855433296E+03  0.91385478673E+03  0.47000000000E+01 0. -1.
         11    1    6    6    0    0  0.42600001794E+02  0.11573259432E+03 -0.29900584793E+03  0.32343977900E+03  0.00000000000E+00 0. -1.
        -12    1    6    6    0    0  0.15043143548E+02  0.10202609566E+02 -0.19458331864E+03  0.19543044109E+03  0.00000000000E+00 0.  1.
         -5    1    5    5    0  503 -0.23379981239E+02 -0.23989288227E+02 -0.39491162406E+02  0.51997609374E+02  0.47000000000E+01 0.  1.
<mgrwt>
<rscale>  2 0.21444035E+03</rscale>
<asrwt>0</asrwt>
<pdfrwt beam="1">  1       21 0.39647122E-02 0.21795117E+03</pdfrwt>
<pdfrwt beam="2">  1       21 0.35059576E+00 0.21795117E+03</pdfrwt>
<totfact> 0.66970679E+03</totfact>
</mgrwt>
</event>
<event>
12    1  0.1473662E-001  0.1927180E+03  0.7546771E-02  0.1156133E+00
         21   -1    0    0  504  503  0.00000000000E+00  0.00000000000E+00  0.38953284571E+03  0.38953284571E+03  0.00000000000E+00 0.  1.
         21   -1    0    0  502  504 -0.00000000000E+00 -0.00000000000E+00 -0.10834406282E+03  0.10834406282E+03  0.00000000000E+00 0.  1.
          6    2    1    2  502    0  0.45219120282E+02 -0.71934445341E+02  0.53775233091E+02  0.20008001876E+03  0.17297660231E+03 0.  0.
         24    2    3    3    0    0  0.32974851334E+02  0.25043815257E+02  0.43037443392E+01  0.90424999041E+02  0.80272191530E+02 0.  0.
         -6    2    1    2    0  503 -0.45219120282E+02  0.71934445341E+02  0.22741354980E+03  0.29779688977E+03  0.17247240840E+03 0.  0.
        -24    2    5    5    0    0 -0.12909813177E+02  0.96504814994E+02  0.22406826675E+03  0.25679841042E+03  0.79113796742E+02 0.  0.
          2    1    4    4  501    0  0.88586100555E+01 -0.48147367457E+01  0.38022169205E+02  0.39336268419E+02  0.00000000000E+00 0. -1.
         -1    1    4    4    0  501  0.24116241279E+02  0.29858552003E+02 -0.33718424866E+02  0.51088730622E+02  0.00000000000E+00 0.  1.
          5    1    3    3  502    0  0.12244268947E+02 -0.96978260597E+02  0.49471488752E+02  0.10965501972E+03  0.47000000000E+01 0. -1.
         11    1    6    6    0    0  0.52436315428E+01  0.24313431808E+02  0.49222129294E+01  0.25354818441E+02  0.00000000000E+00 0. -1.
        -12    1    6    6    0    0 -0.18153444720E+02  0.72191383186E+02  0.21914605382E+03  0.23144359198E+03  0.00000000000E+00 0.  1.
         -5    1    5    5    0  503 -0.32309307105E+02 -0.24570369654E+02  0.33452830475E+01  0.40998479352E+02  0.47000000000E+01 0.  1.
<mgrwt>
<rscale>  2 0.19260482E+03</rscale>
<asrwt>0</asrwt>
<pdfrwt beam="1">  1       21 0.59928130E-01 0.19271803E+03</pdfrwt>
<pdfrwt beam="2">  1       21 0.16668317E-01 0.19271803E+03</pdfrwt>
<totfact> 0.84038409E+04</totfact>
</mgrwt>
</event>
<event>
12    1  0.1473662E-001  0.2216905E+03  0.7546771E-02  0.1132857E+00
         21   -1    0    0  504  503  0.00000000000E+00  0.00000000000E+00  0.69991013111E+03  0.69991013111E+03  0.00000000000E+00 0.  1.
         21   -1    0    0  502  504 -0.00000000000E+00 -0.00000000000E+00 -0.70160919149E+02  0.70160919149E+02  0.00000000000E+00 0.  1.
          6    2    1    2  502    0 -0.13699515579E+03 -0.69536293655E+01  0.34047471288E+03  0.40561745114E+03  0.17258754558E+03 0.  0.
         24    2    3    3    0    0 -0.18725526103E+02  0.17397237191E+02  0.58740603160E+02  0.99060982303E+02  0.75559979920E+02 0.  0.
         -6    2    1    2    0  503  0.13699515579E+03  0.69536293655E+01  0.28927449908E+03  0.36445359912E+03  0.17415701083E+03 0.  0.
        -24    2    5    5    0    0  0.74617056368E+02  0.33966164485E+02  0.70600147523E+02  0.13540935367E+03  0.81424239643E+02 0.  0.
          2    1    4    4  501    0  0.24759440148E+02 -0.87275197173E+01  0.33018829704E+02  0.42183439782E+02  0.00000000000E+00 0. -1.
         -1    1    4    4    0  501 -0.43484966252E+02  0.26124756909E+02  0.25721773456E+02  0.56877542520E+02  0.00000000000E+00 0.  1.
          5    1    3    3  502    0 -0.11826962968E+03 -0.24350866557E+02  0.28173410972E+03  0.30655646884E+03  0.47000000000E+01 0. -1.
         13    1    6    6    0    0  0.54241955813E+02  0.46064578076E+02  0.82451536471E+02  0.10891460412E+03  0.00000000000E+00 0. -1.
        -14    1    6    6    0    0  0.20375100554E+02 -0.12098413591E+02 -0.11851388948E+02  0.26494749556E+02  0.00000000000E+00 0.  1.
         -5    1    5    5    0  503  0.62378099420E+02 -0.27012535120E+02  0.21867435156E+03  0.22904424544E+03  0.47000000000E+01 0.  1.
<mgrwt>
<rscale>  2 0.22138218E+03</rscale>
<asrwt>0</asrwt>
<pdfrwt beam="1">  1       21 0.10767848E+00 0.22169053E+03</pdfrwt>
<pdfrwt beam="2">  1       21 0.10793988E-01 0.22169053E+03</pdfrwt>
<totfact> 0.48023069E+04</totfact>
</mgrwt>
</event>
<event>
12    1  0.1473662E-001  0.2087795E+03  0.7546771E-02  0.1142684E+00
         21   -1    0    0  504  503  0.00000000000E+00  0.00000000000E+00  0.59638759872E+02  0.59638759872E+02  0.00000000000E+00 0. -1.
         21   -1    0    0  502  504 -0.00000000000E+00 -0.00000000000E+00 -0.92362863557E+03  0.92362863557E+03  0.00000000000E+00 0.  1.
          6    2    1    2  502    0  0.34742962796E+02 -0.10965446507E+03 -0.65869217802E+03  0.69098788665E+03  0.17423460889E+03 0.  0.
         24    2    3    3    0    0  0.49484128610E+02 -0.10248165939E+03 -0.28782412743E+03  0.31972793452E+03  0.80200089029E+02 0.  0.
         -6    2    1    2    0  503 -0.34742962796E+02  0.10965446507E+03 -0.20529769767E+03  0.29227950879E+03  0.17334644910E+03 0.  0.
        -24    2    5    5    0    0 -0.28111608861E+01  0.21929439158E+02 -0.26261422934E+02  0.90310704723E+02  0.83531779137E+02 0.  0.
          4    1    4    4  501    0  0.49687068789E+02 -0.22041371728E+02 -0.78523724595E+02  0.95501843944E+02  0.00000000000E+00 0. -1.
         -3    1    4    4    0  501 -0.20294017903E+00 -0.80440287663E+02 -0.20930040284E+03  0.22422609057E+03  0.00000000000E+00 0.  1.
          5    1    3    3  502    0 -0.14741165815E+02 -0.71728056757E+01 -0.37086805059E+03  0.37125995214E+03  0.47000000000E+01 0. -1.
         13    1    6    6    0    0 -0.53370739469E+00 -0.32106816315E+02 -0.12861655589E+02  0.34591251524E+02  0.00000000000E+00 0. -1.
        -14    1    6    6    0    0 -0.22774534914E+01  0.54036255473E+02 -0.13399767345E+02  0.55719453199E+02  0.00000000000E+00 0.  1.
         -5    1    5    5    0  503 -0.31931801910E+02  0.87725025909E+02 -0.17903627474E+03  0.20196880407E+03  0.47000000000E+01 0.  1.
<mgrwt>
<rscale>  2 0.20859408E+03</rscale>
<asrwt>0</asrwt>
<pdfrwt beam="1">  1       21 0.91751943E-02 0.20877949E+03</pdfrwt>
<pdfrwt beam="2">  1       21 0.14209671E+00 0.20877949E+03</pdfrwt>
<totfact> 0.32200068E+04</totfact>
</mgrwt>
</event>
<event>
12    1  0.1473662E-001  0.1765745E+03  0.7546771E-02  0.1171417E+00
         21   -1    0    0  504  503  0.00000000000E+00  0.00000000000E+00  0.30633866627E+03  0.30633866627E+03  0.00000000000E+00 0.  1.
         21   -1    0    0  502  504 -0.00000000000E+00 -0.00000000000E+00 -0.24087848705E+03  0.24087848705E+03  0.00000000000E+00 0.  1.
          6    2    1    2  502    0  0.56029409519E+01 -0.29765115324E+02 -0.17559206923E+03  0.24902030891E+03  0.17395742133E+03 0.  0.
         24    2    3    3    0    0 -0.36687647484E+02 -0.32897524543E+02 -0.17395030806E+03  0.20632263641E+03  0.99408701933E+02 0.  0.
         -6    2    1    2    0  503 -0.56029409519E+01  0.29765115324E+02  0.24105224845E+03  0.29819684441E+03  0.17290985078E+03 0.  0.
        -24    2    5    5    0    0  0.45271325668E+02  0.48013717353E+02  0.89318692974E+02  0.13705602296E+03  0.80322565534E+02 0.  0.
          4    1    4    4  501    0 -0.28827334180E+02  0.83530483692E+00  0.12010928571E+00  0.28839683707E+02  0.00000000000E+00 0. -1.
         -3    1    4    4    0  501 -0.78603133040E+01 -0.33732829380E+02 -0.17407041735E+03  0.17748295270E+03  0.00000000000E+00 0.  1.
          5    1    3    3  502    0  0.42290588436E+02  0.31324092187E+01 -0.16417611689E+01  0.42697672507E+02  0.47000000000E+01 0. -1.
         13    1    6    6    0    0 -0.26206007143E+01 -0.10986996798E+02 -0.78100647030E+01  0.13732398094E+02  0.00000000000E+00 0. -1.
        -14    1    6    6    0    0  0.47891926382E+02  0.59000714151E+02  0.97128757677E+02  0.12332362487E+03  0.00000000000E+00 0.  1.
         -5    1    5    5    0  503 -0.50874266620E+02 -0.18248602028E+02  0.15173355547E+03  0.16114082145E+03  0.47000000000E+01 0.  1.
<mgrwt>
<rscale>  2 0.17631590E+03</rscale>
<asrwt>0</asrwt>
<pdfrwt beam="1">  1       21 0.47129026E-01 0.17657446E+03</pdfrwt>
<pdfrwt beam="2">  1       21 0.37058229E-01 0.17657446E+03</pdfrwt>
<totfact> 0.30519803E+04</totfact>
</mgrwt>
</event>
<event>
12    1  0.1473662E-001  0.1723054E+03  0.7546771E-02  0.1175497E+00
         21   -1    0    0  504  503  0.00000000000E+00  0.00000000000E+00  0.19298348733E+04  0.19298348733E+04  0.00000000000E+00 0.  1.
         21   -1    0    0  502  504 -0.00000000000E+00 -0.00000000000E+00 -0.67425322437E+02  0.67425322437E+02  0.00000000000E+00 0.  1.
          6    2    1    2  502    0  0.11633979441E+02  0.15291920993E+02  0.53851552968E+02  0.18052462461E+03  0.17123071573E+03 0.  0.
         24    2    3    3    0    0  0.36308783141E+02  0.29149595811E+02 -0.22431136133E+02  0.99026037225E+02  0.84468772402E+02 0.  0.
         -6    2    1    2    0  503 -0.11633979441E+02 -0.15291920993E+02  0.18085579979E+04  0.18167355711E+04  0.17110497167E+03 0.  0.
        -24    2    5    5    0    0  0.57176945461E+02 -0.20238942863E+02  0.90618848705E+03  0.91172052125E+03  0.79861861357E+02 0.  0.
          4    1    4    4  501    0  0.62414181296E+02  0.23514674052E+02 -0.26957215452E+02  0.71938594562E+02  0.00000000000E+00 0. -1.
         -3    1    4    4    0  501 -0.26105398155E+02  0.56349217595E+01  0.45260793188E+01  0.27087442664E+02  0.00000000000E+00 0.  1.
          5    1    3    3  502    0 -0.24674803700E+02 -0.13857674818E+02  0.76282689101E+02  0.81498587384E+02  0.47000000000E+01 0. -1.
         13    1    6    6    0    0  0.37798886621E+02 -0.13404504027E+02  0.15047835033E+03  0.15573108385E+03  0.00000000000E+00 0. -1.
        -14    1    6    6    0    0  0.19378058840E+02 -0.68344388356E+01  0.75571013672E+03  0.75598943740E+03  0.00000000000E+00 0.  1.
         -5    1    5    5    0  503 -0.68810924902E+02  0.49470218703E+01  0.90236951083E+03  0.90501504987E+03  0.47000000000E+01 0.  1.
<mgrwt>
<rscale>  2 0.17227415E+03</rscale>
<asrwt>0</asrwt>
<pdfrwt beam="1">  1       21 0.29689763E+00 0.17230540E+03</pdfrwt>
<pdfrwt beam="2">  1       21 0.10373128E-01 0.17230540E+03</pdfrwt>
<totfact> 0.27768640E+03</totfact>
</mgrwt>
</event>
<event>
12    1  0.1473662E-001  0.1792534E+03  0.7546771E-02  0.1169701E+00
         21   -1    0    0  504  503  0.00000000000E+00  0.00000000000E+00  0.28764448828E+03  0.28764448828E+03  0.00000000000E+00 0.  1.
         21   -1    0    0  502  504 -0.00000000000E+00 -0.00000000000E+00 -0.20864019303E+03  0.20864019303E+03  0.00000000000E+00 0.  1.
          6    2    1    2  502    0 -0.27736511962E+02 -0.37877311623E+02 -0.13189875251E+03  0.22255123863E+03  0.17299643947E+03 0.  0.
         24    2    3    3    0    0 -0.30934353983E+01 -0.10490647525E+02 -0.15837782427E+03  0.17693828176E+03  0.78128082676E+02 0.  0.
         -6    2    1    2    0  503  0.27736511962E+02  0.37877311623E+02  0.21090304775E+03  0.27373344269E+03  0.16806515779E+03 0.  0.
        -24    2    5    5    0    0 -0.14004931198E+02  0.57243825374E+02  0.59540892947E+02  0.11546151896E+03  0.79455967600E+02 0.  0.
          2    1    4    4  501    0  0.24171986941E+02 -0.13221638525E+02 -0.14276788752E+03  0.14540208521E+03  0.00000000000E+00 0. -1.
         -1    1    4    4    0  501 -0.27265422339E+02  0.27309909996E+01 -0.15609936755E+02  0.31536196547E+02  0.00000000000E+00 0.  1.
          5    1    3    3  502    0 -0.24643076563E+02 -0.27386664098E+02  0.26479071764E+02  0.45612956870E+02  0.47000000000E+01 0. -1.
         13    1    6    6    0    0 -0.13926901152E+02  0.42797240774E+02 -0.85875240552E+01  0.45818205584E+02  0.00000000000E+00 0. -1.
        -14    1    6    6    0    0 -0.78030045874E-01  0.14446584601E+02  0.68128417002E+02  0.69643313380E+02  0.00000000000E+00 0.  1.
         -5    1    5    5    0  503  0.41741443160E+02 -0.19366513751E+02  0.15136215481E+03  0.15827192372E+03  0.47000000000E+01 0.  1.
<mgrwt>
<rscale>  2 0.17805277E+03</rscale>
<asrwt>0</asrwt>
<pdfrwt beam="1">  1       21 0.44252998E-01 0.17925338E+03</pdfrwt>
<pdfrwt beam="2">  1       21 0.32098491E-01 0.17925338E+03</pdfrwt>
<totfact> 0.46080935E+04</totfact>
</mgrwt>
</event>
<event>
12    1  0.1473662E-001  0.1787984E+03  0.7546771E-02  0.1169788E+00
         21   -1    0    0  504  503  0.00000000000E+00  0.00000000000E+00  0.89369945197E+02  0.89369945197E+02  0.00000000000E+00 0.  1.
         21   -1    0    0  502  504 -0.00000000000E+00 -0.00000000000E+00 -0.39396606467E+03  0.39396606467E+03  0.00000000000E+00 0.  1.
          6    2    1    2  502    0 -0.24313219487E+02 -0.36555545417E+02 -0.23072539609E+03  0.28987860371E+03  0.16990572664E+03 0.  0.
         24    2    3    3    0    0  0.29766052773E+02 -0.60161541440E+02 -0.88829982025E+02  0.13613137847E+03  0.78329799764E+02 0.  0.
         -6    2    1    2    0  503  0.24313219487E+02  0.36555545417E+02 -0.73870723383E+02  0.19345740616E+03  0.17332467707E+03 0.  0.
        -24    2    5    5    0    0 -0.19065703904E+02 -0.31328880016E+02 -0.32415382186E+02  0.10273441280E+03  0.90324984261E+02 0.  0.
          4    1    4    4  501    0  0.88743887856E+01 -0.16528820288E+02 -0.85617091469E+02  0.87648405736E+02  0.00000000000E+00 0. -1.
         -3    1    4    4    0  501  0.20891663987E+02 -0.43632721152E+02 -0.32128905564E+01  0.48482972733E+02  0.00000000000E+00 0.  1.
          5    1    3    3  502    0 -0.54079272260E+02  0.23605996023E+02 -0.14189541407E+03  0.15374722524E+03  0.47000000000E+01 0. -1.
         11    1    6    6    0    0  0.27296586179E+02 -0.41620037665E+02 -0.13115591477E+02  0.51471835911E+02  0.00000000000E+00 0. -1.
        -12    1    6    6    0    0 -0.46362290083E+02  0.10291157649E+02 -0.19299790709E+02  0.51262576885E+02  0.00000000000E+00 0.  1.
         -5    1    5    5    0  503  0.43378923391E+02  0.67884425433E+02 -0.41455341197E+02  0.90722993363E+02  0.47000000000E+01 0.  1.
<mgrwt>
<rscale>  2 0.17796456E+03</rscale>
<asrwt>0</asrwt>
<pdfrwt beam="1">  1       21 0.13749222E-01 0.17879845E+03</pdfrwt>
<pdfrwt beam="2">  1       21 0.60610163E-01 0.17879845E+03</pdfrwt>
<totfact> 0.11707362E+05</totfact>
</mgrwt>
</event>
<event>
12    1  0.1473662E-001  0.1927969E+03  0.7546771E-02  0.1158638E+00
         21   -1    0    0  504  503  0.00000000000E+00  0.00000000000E+00  0.25452390115E+03  0.25452390115E+03  0.00000000000E+00 0.  1.
         21   -1    0    0  502  504 -0.00000000000E+00 -0.00000000000E+00 -0.17883654109E+03  0.17883654109E+03  0.00000000000E+00 0.  1.
          6    2    1    2  502    0 -0.47176713672E+02  0.45692213993E+02 -0.65613297956E+02  0.20365593282E+03  0.18126558794E+03 0.  0.
         24    2    3    3    0    0 -0.61292885023E+02  0.25223967089E+02  0.28216799172E+02  0.10647366822E+03  0.78405280424E+02 0.  0.
         -6    2    1    2    0  503  0.47176713672E+02 -0.45692213993E+02  0.14130065802E+03  0.22970450942E+03  0.16877459809E+03 0.  0.
        -24    2    5    5    0    0 -0.29425232050E+02 -0.26126526914E+02  0.39267317955E+02  0.10053962765E+03  0.83772637406E+02 0.  0.
          2    1    4    4  501    0 -0.45778496308E+02 -0.20033773071E+02 -0.17845608944E+01  0.50002074410E+02  0.00000000000E+00 0. -1.
         -1    1    4    4    0  501 -0.15514388715E+02  0.45257740160E+02  0.30001360067E+02  0.56471593810E+02  0.00000000000E+00 0.  1.
          5    1    3    3  502    0  0.14116171351E+02  0.20468246904E+02 -0.93830097128E+02  0.97182264596E+02  0.47000000000E+01 0. -1.
         13    1    6    6    0    0 -0.16686359022E+02  0.19959344324E+02  0.45408284777E+02  0.52332803571E+02  0.00000000000E+00 0. -1.
        -14    1    6    6    0    0 -0.12738873027E+02 -0.46085871239E+02 -0.61409668214E+01  0.48206824074E+02  0.00000000000E+00 0.  1.
         -5    1    5    5    0  503  0.76601945722E+02 -0.19565687079E+02  0.10203334007E+03  0.12916488178E+03  0.47000000000E+01 0.  1.
<mgrwt>
<rscale>  2 0.18980445E+03</rscale>
<asrwt>0</asrwt>
<pdfrwt beam="1">  1       21 0.39157523E-01 0.19279687E+03</pdfrwt>
<pdfrwt beam="2">  1       21 0.27513314E-01 0.19279687E+03</pdfrwt>
<totfact> 0.79248092E+04</totfact>
</mgrwt>
</event>
<event>
12    1  0.1473662E-001  0.2598571E+03  0.7546771E-02  0.1107800E+00
         21   -1    0    0  504  503  0.00000000000E+00  0.00000000000E+00  0.61347489560E+02  0.61347489560E+02  0.00000000000E+00 0. -1.
         21   -1    0    0  502  504 -0.00000000000E+00 -0.00000000000E+00 -0.10868527408E+04  0.10868527408E+04  0.00000000000E+00 0. -1.
          6    2    1    2  502    0  0.19242987720E+03  0.26214740247E+02 -0.53397461872E+03  0.59220733758E+03  0.16692563315E+03 0.  0.
         24    2    3    3    0    0  0.23199317941E+02  0.10343318114E+02 -0.20610912453E+03  0.22287177673E+03  0.80905284539E+02 0.  0.
         -6    2    1    2    0  503 -0.19242987720E+03 -0.26214740247E+02 -0.49153063255E+03  0.55599289280E+03  0.17265359501E+03 0.  0.
        -24    2    5    5    0    0 -0.27949339836E+02 -0.27625249581E+02 -0.12384085691E+03  0.15316079650E+03  0.81100873802E+02 0.  0.
          4    1    4    4  501    0 -0.11879489644E+02 -0.22329145635E+02 -0.13343685644E+03  0.13581276698E+03  0.00000000000E+00 0. -1.
         -3    1    4    4    0  501  0.35078807584E+02  0.32672463749E+02 -0.72672268087E+02  0.87059009746E+02  0.00000000000E+00 0.  1.
          5    1    3    3  502    0  0.16923055926E+03  0.15871422132E+02 -0.32786549419E+03  0.36933556085E+03  0.47000000000E+01 0. -1.
         11    1    6    6    0    0 -0.37379706653E+02  0.18713854290E+02 -0.46676585217E+02  0.62659033023E+02  0.00000000000E+00 0. -1.
        -12    1    6    6    0    0  0.94303668171E+01 -0.46339103871E+02 -0.77164271697E+02  0.90501763477E+02  0.00000000000E+00 0.  1.
         -5    1    5    5    0  503 -0.16448053737E+03  0.14105093342E+01 -0.36768977563E+03  0.40283209630E+03  0.47000000000E+01 0.  1.
<mgrwt>
<rscale>  2 0.25890948E+03</rscale>
<asrwt>0</asrwt>
<pdfrwt beam="1">  1       21 0.94380755E-02 0.25985714E+03</pdfrwt>
<pdfrwt beam="2">  1       21 0.16720811E+00 0.25985714E+03</pdfrwt>
<totfact> 0.19239542E+04</totfact>
</mgrwt>
</event>
<event>
12    1  0.1473662E-001  0.2069865E+03  0.7546771E-02  0.1143990E+00
         21   -1    0    0  504  503  0.00000000000E+00  0.00000000000E+00  0.14364954812E+03  0.14364954812E+03  0.00000000000E+00 0.  1.
         21   -1    0    0  502  504 -0.00000000000E+00 -0.00000000000E+00 -0.52130796103E+03  0.52130796103E+03  0.00000000000E+00 0. -1.
          6    2    1    2  502    0  0.22115023499E+02 -0.11107346929E+03 -0.40634556118E+03  0.45599255266E+03  0.17316495934E+03 0.  0.
         24    2    3    3    0    0 -0.18097202616E+02 -0.99064341955E+02 -0.15563887128E+03  0.20175412789E+03  0.79624225444E+02 0.  0.
         -6    2    1    2    0  503 -0.22115023499E+02  0.11107346929E+03  0.28687148274E+02  0.20896495650E+03  0.17325417953E+03 0.  0.
        -24    2    5    5    0    0  0.25183105395E+02  0.12335744093E+03  0.46862496965E+02  0.15661572292E+03  0.80505552686E+02 0.  0.
          2    1    4    4  501    0  0.12961258170E+02 -0.67209123208E+02 -0.43470919397E+02  0.81085025060E+02  0.00000000000E+00 0. -1.
         -1    1    4    4    0  501 -0.31058460787E+02 -0.31855218747E+02 -0.11216795189E+03  0.12066910283E+03  0.00000000000E+00 0.  1.
          5    1    3    3  502    0  0.40212226115E+02 -0.12009127331E+02 -0.25070668989E+03  0.25423842476E+03  0.47000000000E+01 0. -1.
         13    1    6    6    0    0  0.16950139703E+02  0.60843856342E+02 -0.18482934528E+02  0.65809581060E+02  0.00000000000E+00 0. -1.
        -14    1    6    6    0    0  0.82329656922E+01  0.62513584587E+02  0.65345431493E+02  0.90806141858E+02  0.00000000000E+00 0.  1.
         -5    1    5    5    0  503 -0.47298128893E+02 -0.12283971643E+02 -0.18175348691E+02  0.52349233578E+02  0.47000000000E+01 0.  1.
<mgrwt>
<rscale>  2 0.20696780E+03</rscale>
<asrwt>0</asrwt>
<pdfrwt beam="1">  1       21 0.22099930E-01 0.20698647E+03</pdfrwt>
<pdfrwt beam="2">  1       21 0.80201225E-01 0.20698647E+03</pdfrwt>
<totfact> 0.25958946E+04</totfact>
</mgrwt>
</event>
<event>
12    1  0.1473662E-001  0.4626729E+03  0.7546771E-02  0.1024031E+00
         21   -1    0    0  504  503  0.00000000000E+00  0.00000000000E+00  0.43332231373E+03  0.43332231373E+03  0.00000000000E+00 0.  1.
         21   -1    0    0  502  504 -0.00000000000E+00 -0.00000000000E+00 -0.57311349670E+03  0.57311349670E+03  0.00000000000E+00 0.  1.
          6    2    1    2  502    0 -0.38037030599E+03 -0.19847013978E+03 -0.25720955346E+03  0.52909596545E+03  0.17237697121E+03 0.  0.
         24    2    3    3    0    0 -0.20948448727E+03 -0.68619324918E+02 -0.19540188132E+03  0.30570063091E+03  0.81722814170E+02 0.  0.
         -6    2    1    2    0  503  0.38037030599E+03  0.19847013978E+03  0.11741837050E+03  0.47733984498E+03  0.17318859032E+03 0.  0.
        -24    2    5    5    0    0  0.83277644763E+02  0.54470203328E+02 -0.72163749503E+00  0.12665596663E+03  0.78352051367E+02 0.  0.
          4    1    4    4  501    0 -0.17625132401E+03 -0.22997855148E+02 -0.13640827573E+03  0.22405501165E+03  0.00000000000E+00 0. -1.
         -3    1    4    4    0  501 -0.33233163263E+02 -0.45621469770E+02 -0.58993605591E+02  0.81645619265E+02  0.00000000000E+00 0.  1.
          5    1    3    3  502    0 -0.17088581871E+03 -0.12985081486E+03 -0.61807672140E+02  0.22339533454E+03  0.47000000000E+01 0. -1.
         11    1    6    6    0    0  0.97136511659E+02  0.55618127547E+02 -0.51805007950E+01  0.11205228957E+03  0.00000000000E+00 0. -1.
        -12    1    6    6    0    0 -0.13858866896E+02 -0.11479242196E+01  0.44588632999E+01  0.14603677057E+02  0.00000000000E+00 0.  1.
         -5    1    5    5    0  503  0.29709266122E+03  0.14399993645E+03  0.11814000799E+03  0.35068387836E+03  0.47000000000E+01 0.  1.
<mgrwt>
<rscale>  2 0.46259713E+03</rscale>
<asrwt>0</asrwt>
<pdfrwt beam="1">  1       21 0.66664972E-01 0.46267294E+03</pdfrwt>
<pdfrwt beam="2">  1       21 0.88171306E-01 0.46267294E+03</pdfrwt>
<totfact> 0.19512123E+03</totfact>
</mgrwt>
</event>
<event>
12    1  0.1473662E-001  0.2210998E+03  0.7546771E-02  0.1133163E+00
         21   -1    0    0  504  503  0.00000000000E+00  0.00000000000E+00  0.66571558940E+03  0.66571558940E+03  0.00000000000E+00 0. -1.
         21   -1    0    0  502  504 -0.00000000000E+00 -0.00000000000E+00 -0.78735239742E+02  0.78735239742E+02  0.00000000000E+00 0. -1.
          6    2    1    2  502    0 -0.13765889720E+03  0.89842748526E+01  0.19499222093E+03  0.29440660426E+03  0.17211215307E+03 0.  0.
         24    2    3    3    0    0 -0.65641766351E+02 -0.50104741635E+02  0.15462657845E+03  0.19277268227E+03  0.80203501444E+02 0.  0.
         -6    2    1    2    0  503  0.13765889720E+03 -0.89842748526E+01  0.39198812874E+03  0.45004422489E+03  0.17278432253E+03 0.  0.
        -24    2    5    5    0    0  0.14373295571E+03 -0.54143435375E+02  0.26658643622E+03  0.31653797616E+03  0.74412957326E+02 0.  0.
          2    1    4    4  501    0 -0.39365629993E+02 -0.71232608709E+02  0.11068700293E+03  0.13738759036E+03  0.00000000000E+00 0. -1.
         -1    1    4    4    0  501 -0.26276136359E+02  0.21127867074E+02  0.43939575520E+02  0.55385091911E+02  0.00000000000E+00 0.  1.
          5    1    3    3  502    0 -0.72017130853E+02  0.59089016487E+02  0.40365642482E+02  0.10163392199E+03  0.47000000000E+01 0. -1.
         11    1    6    6    0    0  0.45172079604E+02 -0.68661756636E+01  0.26702684298E+02  0.52921588153E+02  0.00000000000E+00 0. -1.
        -12    1    6    6    0    0  0.98560876108E+02 -0.47277259712E+02  0.23988375193E+03  0.26361638800E+03  0.00000000000E+00 0.  1.
         -5    1    5    5    0  503 -0.60740585075E+01  0.45159160523E+02  0.12540169251E+03  0.13350624873E+03  0.47000000000E+01 0.  1.
<mgrwt>
<rscale>  2 0.22096844E+03</rscale>
<asrwt>0</asrwt>
<pdfrwt beam="1">  1       21 0.10241778E+00 0.22109978E+03</pdfrwt>
<pdfrwt beam="2">  1       21 0.12113114E-01 0.22109978E+03</pdfrwt>
<totfact> 0.44102317E+04</totfact>
</mgrwt>
</event>
<event>
12    1  0.1473662E-001  0.1977761E+03  0.7546771E-02  0.1151850E+00
         21   -1    0    0  504  503  0.00000000000E+00  0.00000000000E+00  0.27692586052E+03  0.27692586052E+03  0.00000000000E+00 0. -1.
         21   -1    0    0  502  504 -0.00000000000E+00 -0.00000000000E+00 -0.16505855604E+03  0.16505855604E+03  0.00000000000E+00 0. -1.
          6    2    1    2  502    0  0.39358567585E+02 -0.86128065099E+02  0.14102548076E+03  0.24207048534E+03  0.17246099040E+03 0.  0.
         24    2    3    3    0    0  0.28815221967E+02  0.17104919872E+02  0.90263520233E+02  0.12645440532E+03  0.81977547163E+02 0.  0.
         -6    2    1    2    0  503 -0.39358567585E+02  0.86128065099E+02 -0.29158176276E+02  0.19991393122E+03  0.17363248605E+03 0.  0.
        -24    2    5    5    0    0  0.11132545336E+02  0.84265019741E+02 -0.68893596976E+02  0.13546381811E+03  0.79872343110E+02 0.  0.
          4    1    4    4  501    0 -0.17255297086E+02 -0.90670613914E+01  0.64799216310E+02  0.67667535157E+02  0.00000000000E+00 0. -1.
         -3    1    4    4    0  501  0.46070519054E+02  0.26171981264E+02  0.25464303923E+02  0.58786870162E+02  0.00000000000E+00 0.  1.
          5    1    3    3  502    0  0.10543345617E+02 -0.10323298497E+03  0.50761960526E+02  0.11561608002E+03  0.47000000000E+01 0. -1.
         13    1    6    6    0    0  0.41645870350E+01  0.89145117822E+02 -0.27760674504E+02  0.93460424061E+02  0.00000000000E+00 0. -1.
        -14    1    6    6    0    0  0.69679583010E+01 -0.48800980813E+01 -0.41132922472E+02  0.42003394045E+02  0.00000000000E+00 0.  1.
         -5    1    5    5    0  503 -0.50491112921E+02  0.18630453580E+01  0.39735420700E+02  0.64450113112E+02  0.47000000000E+01 0.  1.
<mgrwt>
<rscale>  2 0.19751866E+03</rscale>
<asrwt>0</asrwt>
<pdfrwt beam="1">  1       21 0.42603979E-01 0.19777609E+03</pdfrwt>
<pdfrwt beam="2">  1       21 0.25393624E-01 0.19777609E+03</pdfrwt>
<totfact> 0.77743689E+04</totfact>
</mgrwt>
</event>
<event>
12    1  0.1473662E-001  0.1970957E+03  0.7546771E-02  0.1153042E+00
         21   -1    0    0  504  503  0.00000000000E+00  0.00000000000E+00  0.10593122453E+03  0.10593122453E+03  0.00000000000E+00 0.  1.
         21   -1    0    0  502  504 -0.00000000000E+00 -0.00000000000E+00 -0.56616904206E+03  0.56616904206E+03  0.00000000000E+00 0. -1.
          6    2    1    2  502    0  0.86073928265E+02  0.48908928553E+01 -0.43450402264E+03  0.47711682645E+03  0.17724017161E+03 0.  0.
         24    2    3    3    0    0  0.99625568502E+02  0.38534510147E+01 -0.17837608394E+03  0.22058547511E+03  0.83065164312E+02 0.  0.
         -6    2    1    2    0  503 -0.86073928265E+02 -0.48908928553E+01 -0.25733794889E+02  0.19498344014E+03  0.17298459981E+03 0.  0.
        -24    2    5    5    0    0 -0.10582921997E+02 -0.50824924135E+02 -0.29378471139E+02  0.10641594655E+03  0.88125410420E+02 0.  0.
          2    1    4    4  501    0  0.37046923165E+02 -0.32695571635E+02 -0.11156594709E+03  0.12201817680E+03  0.00000000000E+00 0. -1.
         -1    1    4    4    0  501  0.62578645337E+02  0.36549022650E+02 -0.66810136851E+02  0.98567298304E+02  0.00000000000E+00 0.  1.
          5    1    3    3  502    0 -0.13551640237E+02  0.10374418406E+01 -0.25612793870E+03  0.25653135134E+03  0.47000000000E+01 0. -1.
         11    1    6    6    0    0 -0.56230202114E+01  0.13390413004E+01 -0.49832106185E+02  0.50166225638E+02  0.00000000000E+00 0. -1.
        -12    1    6    6    0    0 -0.49599017852E+01 -0.52163965436E+02  0.20453635047E+02  0.56249720909E+02  0.00000000000E+00 0.  1.
         -5    1    5    5    0  503 -0.75491006268E+02  0.45934031280E+02  0.36446762494E+01  0.88567493597E+02  0.47000000000E+01 0.  1.
<mgrwt>
<rscale>  2 0.19613423E+03</rscale>
<asrwt>0</asrwt>
<pdfrwt beam="1">  1       21 0.16297111E-01 0.19709571E+03</pdfrwt>
<pdfrwt beam="2">  1       21 0.87102931E-01 0.19709571E+03</pdfrwt>
<totfact> 0.38103990E+04</totfact>
</mgrwt>
</event>
<event>
12    1  0.1473662E-001  0.1773374E+03  0.7546771E-02  0.1171291E+00
         21   -1    0    0  504  503  0.00000000000E+00  0.00000000000E+00  0.32880378978E+03  0.32880378978E+03  0.00000000000E+00 0.  1.
         21   -1    0    0  502  504 -0.00000000000E+00 -0.00000000000E+00 -0.26961239620E+03  0.26961239620E+03  0.00000000000E+00 0.  1.
          6    2    1    2  502    0 -0.23408721173E+02 -0.13140715872E+02 -0.21195500699E+03  0.27635751938E+03  0.17529377310E+03 0.  0.
         24    2    3    3    0    0 -0.94781381255E+01 -0.36353908275E+01 -0.23400811731E+03  0.24820006881E+03  0.82100085383E+02 0.  0.
         -6    2    1    2    0  503  0.23408721173E+02  0.13140715872E+02  0.27114640058E+03  0.32205866660E+03  0.17169964341E+03 0.  0.
        -24    2    5    5    0    0 -0.40306887222E+02  0.33602095691E+02  0.10350746273E+03  0.14149496510E+03  0.80952358309E+02 0.  0.
          2    1    4    4  501    0 -0.35852626372E+02  0.22681386974E+02 -0.15732250593E+03  0.16294240395E+03  0.00000000000E+00 0. -1.
         -1    1    4    4    0  501  0.26374488246E+02 -0.26316777802E+02 -0.76685611375E+02  0.85257664853E+02  0.00000000000E+00 0.  1.
          5    1    3    3  502    0 -0.13930583047E+02 -0.95053250447E+01  0.22053110317E+02  0.28157450575E+02  0.47000000000E+01 0. -1.
         13    1    6    6    0    0  0.22197025194E+02  0.18911074758E+02  0.16969095173E+02  0.33738507183E+02  0.00000000000E+00 0. -1.
        -14    1    6    6    0    0 -0.62503912416E+02  0.14691020933E+02  0.86538367560E+02  0.10775645792E+03  0.00000000000E+00 0.  1.
         -5    1    5    5    0  503  0.63715608395E+02 -0.20461379819E+02  0.16763893784E+03  0.18056370150E+03  0.47000000000E+01 0.  1.
<mgrwt>
<rscale>  2 0.17644269E+03</rscale>
<asrwt>0</asrwt>
<pdfrwt beam="1">  1       21 0.50585199E-01 0.17733740E+03</pdfrwt>
<pdfrwt beam="2">  1       21 0.41478830E-01 0.17733740E+03</pdfrwt>
<totfact> 0.21003135E+04</totfact>
</mgrwt>
</event>
<event>
12    1  0.1473662E-001  0.1826687E+03  0.7546771E-02  0.1165472E+00
         21   -1    0    0  504  503  0.00000000000E+00  0.00000000000E+00  0.11502307732E+03  0.11502307732E+03  0.00000000000E+00 0.  1.
         21   -1    0    0  502  504 -0.00000000000E+00 -0.00000000000E+00 -0.40848499129E+03  0.40848499129E+03  0.00000000000E+00 0.  1.
          6    2    1    2  502    0 -0.56080691792E+02  0.94130603785E+01 -0.28827337489E+03  0.34076570152E+03  0.17258642752E+03 0.  0.
         24    2    3    3    0    0 -0.73876752717E+02 -0.48804824279E+02 -0.17917085887E+03  0.21573982068E+03  0.81251388248E+02 0.  0.
         -6    2    1    2    0  503  0.56080691792E+02 -0.94130603785E+01 -0.51885390871E+01  0.18274236710E+03  0.17359205655E+03 0.  0.
        -24    2    5    5    0    0 -0.25692969674E+02  0.34531117944E+02 -0.33563854487E+01  0.89772106771E+02  0.78709840768E+02 0.  0.
          4    1    4    4  501    0 -0.36469658992E+02 -0.68539443662E+02 -0.10935619109E+03  0.13411363799E+03  0.00000000000E+00 0. -1.
         -3    1    4    4    0  501 -0.37407093725E+02  0.19734619383E+02 -0.69814667779E+02  0.81626182688E+02  0.00000000000E+00 0.  1.
          5    1    3    3  502    0  0.17796060925E+02  0.58217884657E+02 -0.10910251602E+03  0.12502588084E+03  0.47000000000E+01 0. -1.
         13    1    6    6    0    0 -0.30540098245E+02 -0.12704320758E+02 -0.20927860355E+02  0.39141700343E+02  0.00000000000E+00 0. -1.
        -14    1    6    6    0    0  0.48471285709E+01  0.47235438702E+02  0.17571474906E+02  0.50630406428E+02  0.00000000000E+00 0.  1.
         -5    1    5    5    0  503  0.81773661466E+02 -0.43944178323E+02 -0.18321536384E+01  0.92970260325E+02  0.47000000000E+01 0.  1.
<mgrwt>
<rscale>  2 0.18242938E+03</rscale>
<asrwt>0</asrwt>
<pdfrwt beam="1">  1       21 0.17695858E-01 0.18266869E+03</pdfrwt>
<pdfrwt beam="2">  1       21 0.62843845E-01 0.18266869E+03</pdfrwt>
<totfact> 0.68238381E+04</totfact>
</mgrwt>
</event>
<event>
12    1  0.1473662E-001  0.3112828E+03  0.7546771E-02  0.1080044E+00
         21   -1    0    0  504  503  0.00000000000E+00  0.00000000000E+00  0.16305682251E+04  0.16305682251E+04  0.00000000000E+00 0.  1.
         21   -1    0    0  502  504 -0.00000000000E+00 -0.00000000000E+00 -0.74092806463E+02  0.74092806463E+02  0.00000000000E+00 0.  1.
          6    2    1    2  502    0 -0.17236280954E+03 -0.19039460275E+03  0.39525864764E+03  0.50311668832E+03  0.17589190051E+03 0.  0.
         24    2    3    3    0    0 -0.12304636820E+03 -0.56956540381E+02  0.27006257565E+03  0.31355410151E+03  0.83653592815E+02 0.  0.
         -6    2    1    2    0  503  0.17236280954E+03  0.19039460275E+03  0.11612167710E+04  0.12015443433E+04  0.17124653764E+03 0.  0.
        -24    2    5    5    0    0  0.18531723083E+03  0.14320984621E+03  0.10669175070E+04  0.10952021622E+04  0.79393156056E+02 0.  0.
          2    1    4    4  501    0 -0.32791930191E+02  0.16351037383E+02  0.10835349558E+03  0.11438158555E+03  0.00000000000E+00 0. -1.
         -1    1    4    4    0  501 -0.90254438005E+02 -0.73307577764E+02  0.16170908007E+03  0.19917251596E+03  0.00000000000E+00 0.  1.
          5    1    3    3  502    0 -0.49316441348E+02 -0.13343806237E+03  0.12519607199E+03  0.18956258681E+03  0.47000000000E+01 0. -1.
         11    1    6    6    0    0  0.52446609386E+01  0.54566769839E+01  0.16676957715E+03  0.16694122814E+03  0.00000000000E+00 0. -1.
        -12    1    6    6    0    0  0.18007256989E+03  0.13775316923E+03  0.90014792984E+03  0.92826093404E+03  0.00000000000E+00 0.  1.
         -5    1    5    5    0  503 -0.12954421287E+02  0.47184756539E+02  0.94299264040E+02  0.10634218109E+03  0.47000000000E+01 0.  1.
<mgrwt>
<rscale>  2 0.31063052E+03</rscale>
<asrwt>0</asrwt>
<pdfrwt beam="1">  1       21 0.25085662E+00 0.31128284E+03</pdfrwt>
<pdfrwt beam="2">  1       21 0.11398895E-01 0.31128284E+03</pdfrwt>
<totfact> 0.38278559E+03</totfact>
</mgrwt>
</event>
<event>
12    1  0.1473662E-001  0.2095620E+03  0.7546771E-02  0.1142004E+00
         21   -1    0    0  504  503  0.00000000000E+00  0.00000000000E+00  0.40028980350E+02  0.40028980350E+02  0.00000000000E+00 0.  1.
         21   -1    0    0  502  504 -0.00000000000E+00 -0.00000000000E+00 -0.11206366399E+04  0.11206366399E+04  0.00000000000E+00 0.  1.
          6    2    1    2  502    0 -0.10222940138E+03  0.59968102232E+02 -0.45263951684E+03  0.49879730183E+03  0.17282705898E+03 0.  0.
         24    2    3    3    0    0 -0.10790334879E+03  0.39368127805E+02 -0.45574070699E+03  0.47670069562E+03  0.79693030005E+02 0.  0.
         -6    2    1    2    0  503  0.10222940138E+03 -0.59968102232E+02 -0.62796814266E+03  0.66186831837E+03  0.17227495138E+03 0.  0.
        -24    2    5    5    0    0 -0.54256389844E+01  0.78353311714E+01 -0.22998916613E+03  0.24402113451E+03  0.80996713379E+02 0.  0.
          2    1    4    4  501    0 -0.94237186556E+02  0.45663618209E+02 -0.25875934958E+03  0.27914550749E+03  0.00000000000E+00 0. -1.
         -1    1    4    4    0  501 -0.13666162232E+02 -0.62954904036E+01 -0.19698135741E+03  0.19755518813E+03  0.00000000000E+00 0.  1.
          5    1    3    3  502    0  0.56739474030E+01  0.20599974427E+02  0.31011901514E+01  0.22096606208E+02  0.47000000000E+01 0. -1.
         13    1    6    6    0    0  0.98133085536E+01  0.37820075017E+02 -0.17697797581E+03  0.18123979425E+03  0.00000000000E+00 0. -1.
        -14    1    6    6    0    0 -0.15238947538E+02 -0.29984743845E+02 -0.53011190319E+02  0.62781340258E+02  0.00000000000E+00 0.  1.
         -5    1    5    5    0  503  0.10765504037E+03 -0.67803433404E+02 -0.39797897653E+03  0.41784718386E+03  0.47000000000E+01 0.  1.
<mgrwt>
<rscale>  2 0.20944810E+03</rscale>
<asrwt>0</asrwt>
<pdfrwt beam="1">  1       21 0.61583042E-02 0.20956196E+03</pdfrwt>
<pdfrwt beam="2">  1       21 0.17240565E+00 0.20956196E+03</pdfrwt>
<totfact> 0.38300690E+04</totfact>
</mgrwt>
</event>
<event>
12    1  0.1473662E-001  0.2552969E+03  0.7546771E-02  0.1110181E+00
         21   -1    0    0  504  503  0.00000000000E+00  0.00000000000E+00  0.48715898914E+02  0.48715898914E+02  0.00000000000E+00 0.  1.
         21   -1    0    0  502  504 -0.00000000000E+00 -0.00000000000E+00 -0.13326479859E+04  0.13326479859E+04  0.00000000000E+00 0. -1.
          6    2    1    2  502    0  0.18514268172E+03 -0.34171808893E+02 -0.62638138020E+03  0.67640974607E+03  0.17242675548E+03 0.  0.
         24    2    3    3    0    0  0.10056520986E+03 -0.45626936917E+01 -0.18809657945E+03  0.22903327707E+03  0.83317100267E+02 0.  0.
         -6    2    1    2    0  503 -0.18514268172E+03  0.34171808893E+02 -0.65755070680E+03  0.70495413876E+03  0.17070993122E+03 0.  0.
        -24    2    5    5    0    0 -0.17430269602E+03  0.78706685408E+02 -0.51520846587E+03  0.55534042257E+03  0.79919018222E+02 0.  0.
          4    1    4    4  501    0  0.87818605657E+02 -0.15950412750E+02 -0.19179395960E+03  0.21154537600E+03  0.00000000000E+00 0. -1.
         -3    1    4    4    0  501  0.12746604208E+02  0.11387719058E+02  0.36973801468E+01  0.17487901079E+02  0.00000000000E+00 0.  1.
          5    1    3    3  502    0  0.84577471851E+02 -0.29609115201E+02 -0.43828480074E+03  0.44737646899E+03  0.47000000000E+01 0. -1.
         11    1    6    6    0    0 -0.98805231534E+02  0.10807564889E+02 -0.32317911973E+03  0.33811835305E+03  0.00000000000E+00 0. -1.
        -12    1    6    6    0    0 -0.75497464487E+02  0.67899120519E+02 -0.19202934613E+03  0.21722206952E+03  0.00000000000E+00 0.  1.
         -5    1    5    5    0  503 -0.10839985695E+02 -0.44534876515E+02 -0.14234224094E+03  0.14961371619E+03  0.47000000000E+01 0.  1.
<mgrwt>
<rscale>  2 0.25500732E+03</rscale>
<asrwt>0</asrwt>
<pdfrwt beam="1">  1       21 0.74947543E-02 0.25529691E+03</pdfrwt>
<pdfrwt beam="2">  1       21 0.20502275E+00 0.25529691E+03</pdfrwt>
<totfact> 0.16035357E+04</totfact>
</mgrwt>
</event>
<event>
12    1  0.1473662E-001  0.1896487E+03  0.7546771E-02  0.1158817E+00
         21   -1    0    0  504  503  0.00000000000E+00  0.00000000000E+00  0.42805359273E+02  0.42805359273E+02  0.00000000000E+00 0. -1.
         21   -1    0    0  502  504 -0.00000000000E+00 -0.00000000000E+00 -0.91275856539E+03  0.91275856539E+03  0.00000000000E+00 0. -1.
          6    2    1    2  502    0 -0.79058778725E+02 -0.46215525562E+01 -0.57016740393E+03  0.60082716481E+03  0.17213588882E+03 0.  0.
         24    2    3    3    0    0 -0.76197284731E+02 -0.15055886338E+02 -0.57670023887E+03  0.58734267736E+03  0.79721698611E+02 0.  0.
         -6    2    1    2    0  503  0.79058778725E+02  0.46215525562E+01 -0.29978580218E+03  0.35473675985E+03  0.17232235015E+03 0.  0.
        -24    2    5    5    0    0  0.10816201912E+03 -0.36113165286E+02 -0.20505415497E+03  0.24748709401E+03  0.78736726804E+02 0.  0.
          2    1    4    4  501    0 -0.88480420137E+02 -0.27635418758E+02 -0.45181190776E+03  0.46122283238E+03  0.00000000000E+00 0. -1.
         -1    1    4    4    0  501  0.12283135405E+02  0.12579532419E+02 -0.12488833111E+03  0.12611984498E+03  0.00000000000E+00 0.  1.
          5    1    3    3  502    0 -0.28614939938E+01  0.10434333782E+02  0.65328349329E+01  0.13484487444E+02  0.47000000000E+01 0. -1.
         11    1    6    6    0    0  0.11232375588E+03 -0.12649821412E+02 -0.15288086353E+03  0.19012943631E+03  0.00000000000E+00 0. -1.
        -12    1    6    6    0    0 -0.41617367581E+01 -0.23463343874E+02 -0.52173291436E+02  0.57357657709E+02  0.00000000000E+00 0.  1.
         -5    1    5    5    0  503 -0.29103240392E+02  0.40734717843E+02 -0.94731647212E+02  0.10724966584E+03  0.47000000000E+01 0.  1.
<mgrwt>
<rscale>  2 0.18960637E+03</rscale>
<asrwt>0</asrwt>
<pdfrwt beam="1">  1       21 0.65854405E-02 0.18964873E+03</pdfrwt>
<pdfrwt beam="2">  1       21 0.14042438E+00 0.18964873E+03</pdfrwt>
<totfact> 0.59760894E+04</totfact>
</mgrwt>
</event>
<event>
12    1  0.1473662E-001  0.2398335E+03  0.7546771E-02  0.1119943E+00
         21   -1    0    0  504  503  0.00000000000E+00  0.00000000000E+00  0.67704764081E+02  0.67704764081E+02  0.00000000000E+00 0. -1.
         21   -1    0    0  502  504 -0.00000000000E+00 -0.00000000000E+00 -0.98140396724E+03  0.98140396724E+03  0.00000000000E+00 0.  1.
          6    2    1    2  502    0  0.10720273838E+03 -0.12637994752E+03 -0.64990157430E+03  0.69274248966E+03  0.17336603602E+03 0.  0.
         24    2    3    3    0    0  0.12727460116E+03 -0.14725772877E+03 -0.56560122603E+03  0.60348219533E+03  0.80014688685E+02 0.  0.
         -6    2    1    2    0  503 -0.10720273838E+03  0.12637994752E+03 -0.26379762886E+03  0.35636624166E+03  0.17304158736E+03 0.  0.
        -24    2    5    5    0    0 -0.84228628014E+00  0.92549567642E+02 -0.10677335266E+03  0.16365984922E+03  0.82570366909E+02 0.  0.
          2    1    4    4  501    0  0.77131294996E+02 -0.10585520543E+03 -0.46965633521E+03  0.48757731119E+03  0.00000000000E+00 0. -1.
         -1    1    4    4    0  501  0.50143306168E+02 -0.41402523336E+02 -0.95944890823E+02  0.11590488414E+03  0.00000000000E+00 0.  1.
          5    1    3    3  502    0 -0.20071862787E+02  0.20877781247E+02 -0.84300348267E+02  0.89260294328E+02  0.47000000000E+01 0. -1.
         11    1    6    6    0    0 -0.27929465755E+02  0.84315679515E+02 -0.10147589134E+03  0.13485750032E+03  0.00000000000E+00 0. -1.
        -12    1    6    6    0    0  0.27087179475E+02  0.82338881273E+01 -0.52974613175E+01  0.28802348898E+02  0.00000000000E+00 0.  1.
         -5    1    5    5    0  503 -0.10636045210E+03  0.33830379878E+02 -0.15702427620E+03  0.19270639244E+03  0.47000000000E+01 0.  1.
<mgrwt>
<rscale>  2 0.23977486E+03</rscale>
<asrwt>0</asrwt>
<pdfrwt beam="1">  1       21 0.10416118E-01 0.23983349E+03</pdfrwt>
<pdfrwt beam="2">  1       21 0.15098522E+00 0.23983349E+03</pdfrwt>
<totfact> 0.21542303E+04</totfact>
</mgrwt>
</event>
<event>
12    1  0.1473662E-001  0.2097654E+03  0.7546771E-02  0.1141850E+00
         21   -1    0    0  504  503  0.00000000000E+00  0.00000000000E+00  0.22802453142E+03  0.22802453142E+03  0.00000000000E+00 0. -1.
         21   -1    0    0  502  504 -0.00000000000E+00 -0.00000000000E+00 -0.23291046044E+03  0.23291046044E+03  0.00000000000E+00 0. -1.
          6    2    1    2  502    0 -0.11686182144E+03 -0.20381903735E+02 -0.98428839099E+02  0.23171052483E+03  0.17300122439E+03 0.  0.
         24    2    3    3    0    0 -0.96639446397E+02  0.48418580827E+02 -0.41260239453E+02  0.13988030152E+03  0.78616472977E+02 0.  0.
         -6    2    1    2    0  503  0.11686182144E+03  0.20381903735E+02  0.93542910071E+02  0.22922446703E+03  0.17239916749E+03 0.  0.
        -24    2    5    5    0    0  0.58056743824E+02  0.10058749203E+02  0.12062318482E+03  0.16349748662E+03  0.93325834987E+02 0.  0.
          2    1    4    4  501    0 -0.98224290917E+02  0.23873083220E+02 -0.51248647134E+02  0.11333295753E+03  0.00000000000E+00 0. -1.
         -1    1    4    4    0  501  0.15848445197E+01  0.24545497607E+02  0.99884076810E+01  0.26547343990E+02  0.00000000000E+00 0.  1.
          5    1    3    3  502    0 -0.20222375041E+02 -0.68800484563E+02 -0.57168599646E+02  0.91830223314E+02  0.47000000000E+01 0. -1.
         11    1    6    6    0    0  0.63685028305E+02  0.27253510164E+02  0.38188176033E+02  0.79100400980E+02  0.00000000000E+00 0. -1.
        -12    1    6    6    0    0 -0.56282844811E+01 -0.17194760960E+02  0.82435008792E+02  0.84397085644E+02  0.00000000000E+00 0.  1.
         -5    1    5    5    0  503  0.58805077614E+02  0.10323154532E+02 -0.27080274754E+02  0.65726980407E+02  0.47000000000E+01 0.  1.
<mgrwt>
<rscale>  2 0.20964124E+03</rscale>
<asrwt>0</asrwt>
<pdfrwt beam="1">  1       21 0.35080697E-01 0.20976542E+03</pdfrwt>
<pdfrwt beam="2">  1       21 0.35832378E-01 0.20976542E+03</pdfrwt>
<totfact> 0.58365735E+04</totfact>
</mgrwt>
</event>
<event>
12    1  0.1473662E-001  0.2588150E+03  0.7546771E-02  0.1107922E+00
         21   -1    0    0  504  503  0.00000000000E+00  0.00000000000E+00  0.24968380154E+03  0.24968380154E+03  0.00000000000E+00 0. -1.
         21   -1    0    0  502  504 -0.00000000000E+00 -0.00000000000E+00 -0.30201113783E+03  0.30201113783E+03  0.00000000000E+00 0. -1.
          6    2    1    2  502    0 -0.19225307511E+03  0.20209372245E+01  0.66611801690E+02  0.26724955451E+03  0.17326241134E+03 0.  0.
         24    2    3    3    0    0 -0.57075450293E+02  0.31717245561E+02  0.77460695092E+02  0.12834437294E+03  0.78794213546E+02 0.  0.
         -6    2    1    2    0  503  0.19225307511E+03 -0.20209372245E+01 -0.11893913798E+03  0.28444538486E+03  0.17261902951E+03 0.  0.
        -24    2    5    5    0    0  0.12489923531E+03  0.64539890083E+02 -0.62870950437E+02  0.17429723407E+03  0.81618337418E+02 0.  0.
          4    1    4    4  501    0 -0.57266186847E+02 -0.10846978633E+02  0.55354447213E+02  0.80381514839E+02  0.00000000000E+00 0. -1.
         -3    1    4    4    0  501  0.19073655462E+00  0.42564224194E+02  0.22106247879E+02  0.47962858098E+02  0.00000000000E+00 0.  1.
          5    1    3    3  502    0 -0.13517762481E+03 -0.29696308336E+02 -0.10848893402E+02  0.13890518157E+03  0.47000000000E+01 0. -1.
         11    1    6    6    0    0  0.43557804310E+02  0.20732649934E+02 -0.66125982177E+02  0.81852126475E+02  0.00000000000E+00 0. -1.
        -12    1    6    6    0    0  0.81341431003E+02  0.43807240149E+02  0.32550317403E+01  0.92445107598E+02  0.00000000000E+00 0.  1.
         -5    1    5    5    0  503  0.67353839793E+02 -0.66560827308E+02 -0.56068187541E+02  0.11014815078E+03  0.47000000000E+01 0.  1.
<mgrwt>
<rscale>  2 0.25870734E+03</rscale>
<asrwt>0</asrwt>
<pdfrwt beam="1">  1       21 0.38412892E-01 0.25881498E+03</pdfrwt>
<pdfrwt beam="2">  1       21 0.46463252E-01 0.25881498E+03</pdfrwt>
<totfact> 0.28054980E+04</totfact>
</mgrwt>
</event>
<event>
12    1  0.1473662E-001  0.1816643E+03  0.7546771E-02  0.1166209E+00
         21   -1    0    0  504  503  0.00000000000E+00  0.00000000000E+00  0.28998145482E+03  0.28998145482E+03  0.00000000000E+00 0.  1.
         21   -1    0    0  502  504 -0.00000000000E+00 -0.00000000000E+00 -0.13013213753E+03  0.13013213753E+03  0.00000000000E+00 0.  1.
          6    2    1    2  502    0  0.39360586465E+02  0.38784876632E+02  0.54860294619E+01  0.18174716169E+03  0.17305609449E+03 0.  0.
         24    2    3    3    0    0  0.73400306625E+02  0.64840104182E+02  0.32605949884E+02  0.13080447316E+03  0.80341882648E+02 0.  0.
         -6    2    1    2    0  503 -0.39360586465E+02 -0.38784876632E+02  0.15436328783E+03  0.23836643066E+03  0.17302314358E+03 0.  0.
        -24    2    5    5    0    0 -0.28664441499E+02 -0.15153810198E+02  0.18060403678E+03  0.20117097766E+03  0.82466089891E+02 0.  0.
          2    1    4    4  501    0  0.69609127837E+02  0.85900537444E+01  0.21344415259E+02  0.73313053164E+02  0.00000000000E+00 0. -1.
         -1    1    4    4    0  501  0.37911787884E+01  0.56250050438E+02  0.11261534625E+02  0.57491419995E+02  0.00000000000E+00 0.  1.
          5    1    3    3  502    0 -0.34039720160E+02 -0.26055227550E+02 -0.27119920422E+02  0.50942688533E+02  0.47000000000E+01 0. -1.
         13    1    6    6    0    0 -0.49113839996E+02 -0.34694744056E+02  0.11647591067E+03  0.13108215862E+03  0.00000000000E+00 0. -1.
        -14    1    6    6    0    0  0.20449398497E+02  0.19540933858E+02  0.64128126118E+02  0.70088819040E+02  0.00000000000E+00 0.  1.
         -5    1    5    5    0  503 -0.10696144966E+02 -0.23631066434E+02 -0.26240748952E+02  0.37195452995E+02  0.47000000000E+01 0.  1.
<mgrwt>
<rscale>  2 0.18165650E+03</rscale>
<asrwt>0</asrwt>
<pdfrwt beam="1">  1       21 0.44612531E-01 0.18166435E+03</pdfrwt>
<pdfrwt beam="2">  1       21 0.20020329E-01 0.18166435E+03</pdfrwt>
<totfact> 0.11157298E+05</totfact>
</mgrwt>
</event>
<event>
12    1  0.1473662E-001  0.2520548E+03  0.7546771E-02  0.1112364E+00
         21   -1    0    0  504  503  0.00000000000E+00  0.00000000000E+00  0.14069417266E+04  0.14069417266E+04  0.00000000000E+00 0.  1.
         21   -1    0    0  502  504 -0.00000000000E+00 -0.00000000000E+00 -0.44851681105E+02  0.44851681105E+02  0.00000000000E+00 0.  1.
          6    2    1    2  502    0 -0.16840490037E+02  0.18246747991E+03  0.71741810233E+03  0.76040801287E+03  0.17307116791E+03 0.  0.
         24    2    3    3    0    0  0.17466376881E+02  0.18058193950E+03  0.68335928530E+03  0.71180133228E+03  0.82257599295E+02 0.  0.
         -6    2    1    2    0  503  0.16840490037E+02 -0.18246747991E+03  0.64467194316E+03  0.69138539483E+03  0.16980537846E+03 0.  0.
        -24    2    5    5    0    0  0.50103626122E+02 -0.66604837180E+02  0.43220464605E+03  0.44705972990E+03  0.78198263042E+02 0.  0.
          4    1    4    4  501    0  0.26381223842E+02  0.51432847672E+02  0.11289913486E+03  0.12683659347E+03  0.00000000000E+00 0. -1.
         -3    1    4    4    0  501 -0.89148469611E+01  0.12914909182E+03  0.57046015044E+03  0.58496473881E+03  0.00000000000E+00 0.  1.
          5    1    3    3  502    0 -0.34306866918E+02  0.18855404115E+01  0.34058817031E+02  0.48606680590E+02  0.47000000000E+01 0. -1.
         13    1    6    6    0    0  0.38728145359E+02 -0.36339718319E+02  0.99485075237E+02  0.11277288932E+03  0.00000000000E+00 0. -1.
        -14    1    6    6    0    0  0.11375480763E+02 -0.30265118861E+02  0.33271957081E+03  0.33428684058E+03  0.00000000000E+00 0.  1.
         -5    1    5    5    0  503 -0.33263136084E+02 -0.11586264273E+03  0.21246729711E+03  0.24432566493E+03  0.47000000000E+01 0.  1.
<mgrwt>
<rscale>  2 0.25149513E+03</rscale>
<asrwt>0</asrwt>
<pdfrwt beam="1">  1       21 0.21645254E+00 0.25205478E+03</pdfrwt>
<pdfrwt beam="2">  1       21 0.69002597E-02 0.25205478E+03</pdfrwt>
<totfact> 0.15701388E+04</totfact>
</mgrwt>
</event>
<event>
12    1  0.1473662E-001  0.2147486E+03  0.7546771E-02  0.1138239E+00
         21   -1    0    0  504  503  0.00000000000E+00  0.00000000000E+00  0.36861772851E+03  0.36861772851E+03  0.00000000000E+00 0.  1.
         21   -1    0    0  502  504 -0.00000000000E+00 -0.00000000000E+00 -0.15845641417E+03  0.15845641417E+03  0.00000000000E+00 0.  1.
          6    2    1    2  502    0  0.16373426617E+02 -0.12483127460E+03 -0.18246230927E+02  0.21356659262E+03  0.17154249713E+03 0.  0.
         24    2    3    3    0    0 -0.15774744741E+02 -0.74907919729E+02 -0.72859120874E+02  0.13275505859E+03  0.80345597744E+02 0.  0.
         -6    2    1    2    0  503 -0.16373426617E+02  0.12483127460E+03  0.22840754527E+03  0.31350755006E+03  0.17397137980E+03 0.  0.
        -24    2    5    5    0    0 -0.37787256843E+02  0.34824941342E+02  0.39135380660E+02  0.10278086820E+03  0.79947955125E+02 0.  0.
          2    1    4    4  501    0 -0.48295371979E+02 -0.36195960256E+02 -0.37429856169E+02  0.71018199261E+02  0.00000000000E+00 0. -1.
         -1    1    4    4    0  501  0.32520627238E+02 -0.38711959474E+02 -0.35429264705E+02  0.61736859329E+02  0.00000000000E+00 0.  1.
          5    1    3    3  502    0  0.32148171358E+02 -0.49923354873E+02  0.54612889947E+02  0.80811534027E+02  0.47000000000E+01 0. -1.
         13    1    6    6    0    0  0.21851299117E+02  0.92747452439E+01  0.28405286847E+02  0.37018380479E+02  0.00000000000E+00 0. -1.
        -14    1    6    6    0    0 -0.59638555959E+02  0.25550196098E+02  0.10730093813E+02  0.65762487718E+02  0.00000000000E+00 0.  1.
         -5    1    5    5    0  503  0.21413830225E+02  0.90006333259E+02  0.18927216462E+03  0.21072668186E+03  0.47000000000E+01 0.  1.
<mgrwt>
<rscale>  2 0.21425622E+03</rscale>
<asrwt>0</asrwt>
<pdfrwt beam="1">  1       21 0.56710420E-01 0.21474864E+03</pdfrwt>
<pdfrwt beam="2">  1       21 0.24377910E-01 0.21474864E+03</pdfrwt>
<totfact> 0.45952394E+04</totfact>
</mgrwt>
</event>
<event>
12    1  0.1473662E-001  0.3082187E+03  0.7546771E-02  0.1081309E+00
         21   -1    0    0  504  503  0.00000000000E+00  0.00000000000E+00  0.26015121730E+03  0.26015121730E+03  0.00000000000E+00 0.  1.
         21   -1    0    0  502  504 -0.00000000000E+00 -0.00000000000E+00 -0.36449405933E+03  0.36449405933E+03  0.00000000000E+00 0.  1.
          6    2    1    2  502    0  0.35135860215E+02 -0.25227332883E+03 -0.62181903820E+02  0.31442861290E+03  0.17355806618E+03 0.  0.
         24    2    3    3    0    0  0.57987690864E+02 -0.16326076521E+03 -0.10336306755E+03  0.21361481974E+03  0.70219069551E+02 0.  0.
         -6    2    1    2    0  503 -0.35135860215E+02  0.25227332883E+03 -0.42160938213E+02  0.31021666373E+03  0.17198974573E+03 0.  0.
        -24    2    5    5    0    0 -0.33028090391E+01  0.12030280944E+03  0.42263865552E+02  0.15028168124E+03  0.79464928603E+02 0.  0.
          4    1    4    4  501    0 -0.11607274097E+02 -0.60368519650E+02 -0.22839420267E+02  0.65579921431E+02  0.00000000000E+00 0. -1.
         -3    1    4    4    0  501  0.69594964961E+02 -0.10289224556E+03 -0.80523647286E+02  0.14803489830E+03  0.00000000000E+00 0.  1.
          5    1    3    3  502    0 -0.22851830649E+02 -0.89012563618E+02  0.41181163733E+02  0.10081379316E+03  0.47000000000E+01 0. -1.
         11    1    6    6    0    0  0.11194020961E+02  0.24526695106E+02 -0.21353261328E+02  0.34392246909E+02  0.00000000000E+00 0. -1.
        -12    1    6    6    0    0 -0.14496830000E+02  0.95776114329E+02  0.63617126880E+02  0.11588943433E+03  0.00000000000E+00 0.  1.
         -5    1    5    5    0  503 -0.31833051176E+02  0.13197051939E+03 -0.84424803765E+02  0.15993498250E+03  0.47000000000E+01 0.  1.
<mgrwt>
<rscale>  2 0.30799836E+03</rscale>
<asrwt>0</asrwt>
<pdfrwt beam="1">  1       21 0.40023264E-01 0.30821869E+03</pdfrwt>
<pdfrwt beam="2">  1       21 0.56076009E-01 0.30821869E+03</pdfrwt>
<totfact> 0.16997808E+04</totfact>
</mgrwt>
</event>
<event>
12    1  0.1473662E-001  0.2071724E+03  0.7546771E-02  0.1143851E+00
         21   -1    0    0  504  503  0.00000000000E+00  0.00000000000E+00  0.11585874528E+03  0.11585874528E+03  0.00000000000E+00 0.  1.
         21   -1    0    0  502  504 -0.00000000000E+00 -0.00000000000E+00 -0.38655052197E+03  0.38655052197E+03  0.00000000000E+00 0.  1.
          6    2    1    2  502    0 -0.10881770067E+03  0.32127847592E+02 -0.18692997612E+03  0.27894463332E+03  0.17318718750E+03 0.  0.
         24    2    3    3    0    0 -0.94220839460E+02 -0.41985032404E+02 -0.11339644444E+03  0.17342185085E+03  0.81093003429E+02 0.  0.
         -6    2    1    2    0  503  0.10881770067E+03 -0.32127847592E+02 -0.83761800564E+02  0.22346463394E+03  0.17334045350E+03 0.  0.
        -24    2    5    5    0    0  0.69244455179E+02  0.43792983193E+02 -0.17638964406E+02  0.11518567122E+03  0.79018895457E+02 0.  0.
          2    1    4    4  501    0 -0.41728143108E+02 -0.59893562244E+02 -0.46610156734E+02  0.86608218064E+02  0.00000000000E+00 0. -1.
         -1    1    4    4    0  501 -0.52492696352E+02  0.17908529840E+02 -0.66786287711E+02  0.86813632786E+02  0.00000000000E+00 0.  1.
          5    1    3    3  502    0 -0.14596861208E+02  0.74112879996E+02 -0.73533531679E+02  0.10552278247E+03  0.47000000000E+01 0. -1.
         13    1    6    6    0    0 -0.13350127658E+02 -0.64339992634E+01 -0.10681805676E+02  0.18268093154E+02  0.00000000000E+00 0. -1.
        -14    1    6    6    0    0  0.82594582837E+02  0.50226982456E+02 -0.69571587297E+01  0.96917578066E+02  0.00000000000E+00 0.  1.
         -5    1    5    5    0  503  0.39573245489E+02 -0.75920830785E+02 -0.66122836158E+02  0.10827896272E+03  0.47000000000E+01 0.  1.
<mgrwt>
<rscale>  2 0.20714034E+03</rscale>
<asrwt>0</asrwt>
<pdfrwt beam="1">  1       21 0.17824422E-01 0.20717240E+03</pdfrwt>
<pdfrwt beam="2">  1       21 0.59469312E-01 0.20717240E+03</pdfrwt>
<totfact> 0.75023885E+04</totfact>
</mgrwt>
</event>
<event>
12    1  0.1473662E-001  0.2444155E+03  0.7546771E-02  0.1117182E+00
         21   -1    0    0  504  503  0.00000000000E+00  0.00000000000E+00  0.43216531001E+02  0.43216531001E+02  0.00000000000E+00 0.  1.
         21   -1    0    0  502  504 -0.00000000000E+00 -0.00000000000E+00 -0.14614213219E+04  0.14614213219E+04  0.00000000000E+00 0.  1.
          6    2    1    2  502    0 -0.90208826146E+02 -0.14774497903E+03 -0.52556280230E+03  0.57961641998E+03  0.17254774413E+03 0.  0.
         24    2    3    3    0    0 -0.77671900695E+02 -0.17621784587E+03 -0.48762904532E+03  0.53033215713E+03  0.79902801504E+02 0.  0.
         -6    2    1    2    0  503  0.90208826146E+02  0.14774497903E+03 -0.89264198858E+03  0.92502143290E+03  0.16996682149E+03 0.  0.
        -24    2    5    5    0    0  0.93750205990E+02  0.35417164991E+02 -0.53113594830E+03  0.54642034160E+03  0.80164315231E+02 0.  0.
          4    1    4    4  501    0 -0.41544644330E+02 -0.99033868311E+02 -0.36869593123E+03  0.38401868997E+03  0.00000000000E+00 0. -1.
         -3    1    4    4    0  501 -0.36127256365E+02 -0.77183977558E+02 -0.11893311409E+03  0.14631346716E+03  0.00000000000E+00 0.  1.
          5    1    3    3  502    0 -0.12536925451E+02  0.28472866841E+02 -0.37933756985E+02  0.49284262852E+02  0.47000000000E+01 0. -1.
         13    1    6    6    0    0  0.95330005200E+02  0.38551352416E+02 -0.33900979172E+03  0.35426212830E+03  0.00000000000E+00 0. -1.
        -14    1    6    6    0    0 -0.15797992094E+01 -0.31341874243E+01 -0.19212615658E+03  0.19215821330E+03  0.00000000000E+00 0.  1.
         -5    1    5    5    0  503 -0.35413798438E+01  0.11232781404E+03 -0.36150604028E+03  0.37860109130E+03  0.47000000000E+01 0.  1.
<mgrwt>
<rscale>  2 0.24396044E+03</rscale>
<asrwt>0</asrwt>
<pdfrwt beam="1">  1       21 0.66486973E-02 0.24441550E+03</pdfrwt>
<pdfrwt beam="2">  1       21 0.22483404E+00 0.24441550E+03</pdfrwt>
<totfact> 0.14929183E+04</totfact>
</mgrwt>
</event>
<event>
12    1  0.1473662E-001  0.1982511E+03  0.7546771E-02  0.1151660E+00
         21   -1    0    0  504  503  0.00000000000E+00  0.00000000000E+00  0.10959683685E+04  0.10959683685E+04  0.00000000000E+00 0.  1.
         21   -1    0    0  502  504 -0.00000000000E+00 -0.00000000000E+00 -0.56869990638E+02  0.56869990638E+02  0.00000000000E+00 0.  1.
          6    2    1    2  502    0  0.69150590220E+01 -0.92431736016E+02  0.87126225951E+03  0.89308377150E+03  0.17294292182E+03 0.  0.
         24    2    3    3    0    0 -0.76555826294E+01 -0.73055079518E+02  0.85877349720E+03  0.86541036190E+03  0.77765817630E+02 0.  0.
         -6    2    1    2    0  503 -0.69150590220E+01  0.92431736016E+02  0.16783611835E+03  0.25975458763E+03  0.17524850730E+03 0.  0.
        -24    2    5    5    0    0 -0.23654470442E+02  0.47005449722E+02  0.12411242686E+02  0.96896559412E+02  0.80410559042E+02 0.  0.
          4    1    4    4  501    0  0.51082910227E+01 -0.86263175330E+02  0.76415586333E+03  0.76902640625E+03  0.00000000000E+00 0. -1.
         -3    1    4    4    0  501 -0.12763873652E+02  0.13208095811E+02  0.94617633875E+02  0.96383955645E+02  0.00000000000E+00 0.  1.
          5    1    3    3  502    0  0.14570641651E+02 -0.19376656498E+02  0.12488762307E+02  0.27673409604E+02  0.47000000000E+01 0. -1.
         11    1    6    6    0    0  0.23756718458E+02 -0.51642058477E+01 -0.36806912877E+01  0.24588578289E+02  0.00000000000E+00 0. -1.
        -12    1    6    6    0    0 -0.47411188899E+02  0.52169655569E+02  0.16091933974E+02  0.72307981123E+02  0.00000000000E+00 0.  1.
         -5    1    5    5    0  503  0.16739411420E+02  0.45426286295E+02  0.15542487566E+03  0.16285802822E+03  0.47000000000E+01 0.  1.
<mgrwt>
<rscale>  2 0.19774031E+03</rscale>
<asrwt>0</asrwt>
<pdfrwt beam="1">  1       21 0.16861050E+00 0.19825106E+03</pdfrwt>
<pdfrwt beam="2">  1       21 0.87492301E-02 0.19825106E+03</pdfrwt>
<totfact> 0.22314586E+04</totfact>
</mgrwt>
</event>
<event>
12    1  0.1473662E-001  0.2066199E+03  0.7546771E-02  0.1144835E+00
         21   -1    0    0  504  503  0.00000000000E+00  0.00000000000E+00  0.12462510352E+03  0.12462510352E+03  0.00000000000E+00 0. -1.
         21   -1    0    0  502  504 -0.00000000000E+00 -0.00000000000E+00 -0.64978162420E+03  0.64978162420E+03  0.00000000000E+00 0.  1.
          6    2    1    2  502    0  0.10375998167E+03 -0.24256227478E+02 -0.53171697849E+03  0.57045133949E+03  0.17702340846E+03 0.  0.
         24    2    3    3    0    0  0.44017562110E+02  0.16103680322E+02 -0.45756334181E+03  0.46691907068E+03  0.80326412207E+02 0.  0.
         -6    2    1    2    0  503 -0.10375998167E+03  0.24256227478E+02  0.65604578149E+01  0.20395538822E+03  0.17378222697E+03 0.  0.
        -24    2    5    5    0    0 -0.13944768607E+03  0.94753587835E+01 -0.85786110531E+01  0.16220173293E+03  0.81855787962E+02 0.  0.
          4    1    4    4  501    0  0.14733698296E+01  0.40888436800E+02 -0.26604931728E+03  0.26917703154E+03  0.00000000000E+00 0. -1.
         -3    1    4    4    0  501  0.42544192280E+02 -0.24784756478E+02 -0.19151402453E+03  0.19774203914E+03  0.00000000000E+00 0.  1.
          5    1    3    3  502    0  0.59742419564E+02 -0.40359907799E+02 -0.74153636680E+02  0.10353226881E+03  0.47000000000E+01 0. -1.
         11    1    6    6    0    0 -0.81839338452E+02  0.39896815379E+02  0.16246773538E+02  0.92484543823E+02  0.00000000000E+00 0. -1.
        -12    1    6    6    0    0 -0.57608347618E+02 -0.30421456595E+02 -0.24825384591E+02  0.69717189105E+02  0.00000000000E+00 0.  1.
         -5    1    5    5    0  503  0.35687704397E+02  0.14780868694E+02  0.15139068868E+02  0.41753655297E+02  0.47000000000E+01 0.  1.
<mgrwt>
<rscale>  2 0.20592388E+03</rscale>
<asrwt>0</asrwt>
<pdfrwt beam="1">  1       21 0.19173093E-01 0.20661991E+03</pdfrwt>
<pdfrwt beam="2">  1       21 0.99966403E-01 0.20661991E+03</pdfrwt>
<totfact> 0.20343063E+04</totfact>
</mgrwt>
</event>
<event>
12    1  0.1473662E-001  0.2232010E+03  0.7546771E-02  0.1132475E+00
         21   -1    0    0  504  503  0.00000000000E+00  0.00000000000E+00  0.13201312562E+03  0.13201312562E+03  0.00000000000E+00 0.  1.
         21   -1    0    0  502  504 -0.00000000000E+00 -0.00000000000E+00 -0.66814561450E+03  0.66814561450E+03  0.00000000000E+00 0.  1.
          6    2    1    2  502    0 -0.42062664101E+02  0.12250674390E+03 -0.53762291541E+03  0.58211433715E+03  0.18177329928E+03 0.  0.
         24    2    3    3    0    0 -0.79305824579E+02  0.52440303943E+02 -0.43623431015E+03  0.45328073017E+03  0.78253739242E+02 0.  0.
         -6    2    1    2    0  503  0.42062664101E+02 -0.12250674390E+03  0.14904265267E+01  0.21804440297E+03  0.17539660854E+03 0.  0.
        -24    2    5    5    0    0  0.83231222210E+02 -0.34604684988E+02  0.42782119116E+01  0.12082566052E+03  0.80346851645E+02 0.  0.
          2    1    4    4  501    0 -0.57534287348E+02  0.41983055977E+02 -0.15022900501E+03  0.16625740632E+03  0.00000000000E+00 0. -1.
         -1    1    4    4    0  501 -0.21771537231E+02  0.10457247966E+02 -0.28600530514E+03  0.28702332385E+03  0.00000000000E+00 0.  1.
          5    1    3    3  502    0  0.37243160479E+02  0.70066439953E+02 -0.10138860526E+03  0.12883360698E+03  0.47000000000E+01 0. -1.
         11    1    6    6    0    0  0.98796431664E+01 -0.31139330937E+02  0.28651432740E+02  0.43453076742E+02  0.00000000000E+00 0. -1.
        -12    1    6    6    0    0  0.73351579043E+02 -0.34653540507E+01 -0.24373220828E+02  0.77372583777E+02  0.00000000000E+00 0.  1.
         -5    1    5    5    0  503 -0.41168558109E+02 -0.87902058908E+02 -0.27877853849E+01  0.97218742454E+02  0.47000000000E+01 0.  1.
<mgrwt>
<rscale>  2 0.22189926E+03</rscale>
<asrwt>0</asrwt>
<pdfrwt beam="1">  1       21 0.20309712E-01 0.22320104E+03</pdfrwt>
<pdfrwt beam="2">  1       21 0.10279163E+00 0.22320104E+03</pdfrwt>
<totfact> 0.16920331E+04</totfact>
</mgrwt>
</event>
<event>
12    1  0.1473662E-001  0.1980438E+03  0.7546771E-02  0.1151595E+00
         21   -1    0    0  504  503  0.00000000000E+00  0.00000000000E+00  0.17113627868E+03  0.17113627868E+03  0.00000000000E+00 0.  1.
         21   -1    0    0  502  504 -0.00000000000E+00 -0.00000000000E+00 -0.22972028242E+03  0.22972028242E+03  0.00000000000E+00 0.  1.
          6    2    1    2  502    0  0.90541981147E+02 -0.25587697450E+02 -0.46023333774E+02  0.20332118777E+03  0.17426639818E+03 0.  0.
         24    2    3    3    0    0  0.18463513670E+02  0.17766652797E+02  0.29855945911E+02  0.89942793690E+02  0.80881229848E+02 0.  0.
         -6    2    1    2    0  503 -0.90541981147E+02  0.25587697450E+02 -0.12560669961E+02  0.19753537332E+03  0.17323357837E+03 0.  0.
        -24    2    5    5    0    0 -0.20863315773E+02 -0.46508225920E+02  0.13438229469E+01  0.96202439399E+02  0.81577021660E+02 0.  0.
          4    1    4    4  501    0 -0.16157993706E+02  0.20461972541E+02  0.45039974590E+02  0.52042025248E+02  0.00000000000E+00 0. -1.
         -3    1    4    4    0  501  0.34621507377E+02 -0.26953197447E+01 -0.15184028678E+02  0.37900768442E+02  0.00000000000E+00 0.  1.
          5    1    3    3  502    0  0.72078467476E+02 -0.43354350247E+02 -0.75879279686E+02  0.11337839408E+03  0.47000000000E+01 0. -1.
         13    1    6    6    0    0 -0.22201757270E+02 -0.40199573581E+02  0.37615427231E+02  0.59361975268E+02  0.00000000000E+00 0. -1.
        -14    1    6    6    0    0  0.13384414975E+01 -0.63086523389E+01 -0.36271604284E+02  0.36840464130E+02  0.00000000000E+00 0.  1.
         -5    1    5    5    0  503 -0.69678665374E+02  0.72095923370E+02 -0.13904492908E+02  0.10133293392E+03  0.47000000000E+01 0.  1.
<mgrwt>
<rscale>  2 0.19781639E+03</rscale>
<asrwt>0</asrwt>
<pdfrwt beam="1">  1       21 0.26328658E-01 0.19804383E+03</pdfrwt>
<pdfrwt beam="2">  1       21 0.35341582E-01 0.19804383E+03</pdfrwt>
<totfact> 0.10566075E+05</totfact>
</mgrwt>
</event>
<event>
12    1  0.1473662E-001  0.1787783E+03  0.7546771E-02  0.1169081E+00
         21   -1    0    0  504  503  0.00000000000E+00  0.00000000000E+00  0.16097214951E+03  0.16097214951E+03  0.00000000000E+00 0. -1.
         21   -1    0    0  502  504 -0.00000000000E+00 -0.00000000000E+00 -0.24866783631E+03  0.24866783631E+03  0.00000000000E+00 0. -1.
          6    2    1    2  502    0  0.22311985612E+02  0.37756493464E+02 -0.13620572527E+03  0.22475248700E+03  0.17331561763E+03 0.  0.
         24    2    3    3    0    0  0.67864692826E+02 -0.18651899169E+02 -0.81402810309E+02  0.13374476545E+03  0.79421249568E+02 0.  0.
         -6    2    1    2    0  503 -0.22311985612E+02 -0.37756493464E+02  0.48510038469E+02  0.18488749882E+03  0.17293578545E+03 0.  0.
        -24    2    5    5    0    0 -0.69684419078E+02 -0.20914111178E+02  0.70382318940E+02  0.12985750749E+03  0.81338693884E+02 0.  0.
          2    1    4    4  501    0  0.87859080514E+01 -0.15167367188E+02 -0.71652715765E+02  0.73765526394E+02  0.00000000000E+00 0. -1.
         -1    1    4    4    0  501  0.59078784774E+02 -0.34845319812E+01 -0.97500945437E+01  0.59979239051E+02  0.00000000000E+00 0.  1.
          5    1    3    3  502    0 -0.45552707213E+02  0.56408392634E+02 -0.54802914963E+02  0.91007721554E+02  0.47000000000E+01 0. -1.
         11    1    6    6    0    0 -0.44850183778E+02  0.67387665652E+01  0.79555059584E+02  0.91574873547E+02  0.00000000000E+00 0. -1.
        -12    1    6    6    0    0 -0.24834235300E+02 -0.27652877744E+02 -0.91727406445E+01  0.38282633940E+02  0.00000000000E+00 0.  1.
         -5    1    5    5    0  503  0.47372433466E+02 -0.16842382286E+02 -0.21872280471E+02  0.55029991337E+02  0.47000000000E+01 0.  1.
<mgrwt>
<rscale>  2 0.17868618E+03</rscale>
<asrwt>0</asrwt>
<pdfrwt beam="1">  1       21 0.24764946E-01 0.17877830E+03</pdfrwt>
<pdfrwt beam="2">  1       21 0.38256590E-01 0.17877830E+03</pdfrwt>
<totfact> 0.10214613E+05</totfact>
</mgrwt>
</event>
<event>
12    1  0.1473662E-001  0.2152702E+03  0.7546771E-02  0.1137556E+00
         21   -1    0    0  504  503  0.00000000000E+00  0.00000000000E+00  0.15320162432E+03  0.15320162432E+03  0.00000000000E+00 0.  1.
         21   -1    0    0  502  504 -0.00000000000E+00 -0.00000000000E+00 -0.35324040921E+03  0.35324040921E+03  0.00000000000E+00 0. -1.
          6    2    1    2  502    0  0.55749166027E+01  0.12807352630E+03 -0.19676955005E+03  0.29164967953E+03  0.17293747978E+03 0.  0.
         24    2    3    3    0    0 -0.17541030768E+01 -0.42876807196E+01 -0.56271426535E+02  0.98426967711E+02  0.80622164725E+02 0.  0.
         -6    2    1    2    0  503 -0.55749166027E+01 -0.12807352630E+03 -0.32692348463E+01  0.21479235400E+03  0.17231122891E+03 0.  0.
        -24    2    5    5    0    0  0.27281145653E+02 -0.14864640710E+03 -0.23985815393E+02  0.17058793158E+03  0.75398327637E+02 0.  0.
          4    1    4    4  501    0 -0.22131286134E+02  0.26385538107E+02 -0.42625603617E+01  0.34701006729E+02  0.00000000000E+00 0. -1.
         -3    1    4    4    0  501  0.20377183057E+02 -0.30673218827E+02 -0.52008866173E+02  0.63725960982E+02  0.00000000000E+00 0.  1.
          5    1    3    3  502    0  0.73290196795E+01  0.13236120702E+03 -0.14049812351E+03  0.19322271182E+03  0.47000000000E+01 0. -1.
         13    1    6    6    0    0  0.53213618714E+02 -0.91839424186E+02 -0.10142271434E+02  0.10662567571E+03  0.00000000000E+00 0. -1.
        -14    1    6    6    0    0 -0.25932473061E+02 -0.56806982914E+02 -0.13843543960E+02  0.63962255872E+02  0.00000000000E+00 0.  1.
         -5    1    5    5    0  503 -0.32856062256E+02  0.20572880804E+02  0.20716580547E+02  0.44204422416E+02  0.47000000000E+01 0.  1.
<mgrwt>
<rscale>  2 0.21514444E+03</rscale>
<asrwt>0</asrwt>
<pdfrwt beam="1">  1       21 0.23569480E-01 0.21527025E+03</pdfrwt>
<pdfrwt beam="2">  1       21 0.54344679E-01 0.21527025E+03</pdfrwt>
<totfact> 0.53633478E+04</totfact>
</mgrwt>
</event>
<event>
12    1  0.1473662E-001  0.1818712E+03  0.7546771E-02  0.1166046E+00
         21   -1    0    0  504  503  0.00000000000E+00  0.00000000000E+00  0.97348265193E+03  0.97348265193E+03  0.00000000000E+00 0.  1.
         21   -1    0    0  502  504 -0.00000000000E+00 -0.00000000000E+00 -0.41899594248E+02  0.41899594248E+02  0.00000000000E+00 0. -1.
          6    2    1    2  502    0  0.38028018026E+02  0.39944391678E+02  0.24440189953E+03  0.30454115211E+03  0.17312232742E+03 0.  0.
         24    2    3    3    0    0  0.19302746388E+02  0.69723670421E+02  0.24639703460E+03  0.26899524089E+03  0.80080926104E+02 0.  0.
         -6    2    1    2    0  503 -0.38028018026E+02 -0.39944391678E+02  0.68718115815E+03  0.71084109407E+03  0.17330733488E+03 0.  0.
        -24    2    5    5    0    0  0.38771412221E+02 -0.15179504845E+02  0.48068391200E+03  0.48908750385E+03  0.80099459415E+02 0.  0.
          2    1    4    4  501    0  0.47144233676E+02  0.49332479766E+02  0.12076938686E+03  0.13871379575E+03  0.00000000000E+00 0. -1.
         -1    1    4    4    0  501 -0.27841487288E+02  0.20391190655E+02  0.12562764774E+03  0.13028144514E+03  0.00000000000E+00 0.  1.
          5    1    3    3  502    0  0.18725271638E+02 -0.29779278743E+02 -0.19951350692E+01  0.35545911217E+02  0.47000000000E+01 0. -1.
         13    1    6    6    0    0  0.10407836131E+02  0.30620802899E+02  0.25603653275E+03  0.25807104202E+03  0.00000000000E+00 0. -1.
        -14    1    6    6    0    0  0.28363576090E+02 -0.45800307744E+02  0.22464737924E+03  0.23101646184E+03  0.00000000000E+00 0.  1.
         -5    1    5    5    0  503 -0.76799430247E+02 -0.24764886833E+02  0.20649724615E+03  0.22175359022E+03  0.47000000000E+01 0.  1.
<mgrwt>
<rscale>  2 0.18182707E+03</rscale>
<asrwt>0</asrwt>
<pdfrwt beam="1">  1       21 0.14976654E+00 0.18187115E+03</pdfrwt>
<pdfrwt beam="2">  1       21 0.64460921E-02 0.18187115E+03</pdfrwt>
<totfact> 0.52641974E+04</totfact>
</mgrwt>
</event>
<event>
12    1  0.1473662E-001  0.2624847E+03  0.7546771E-02  0.1105980E+00
         21   -1    0    0  504  503  0.00000000000E+00  0.00000000000E+00  0.75500332213E+02  0.75500332213E+02  0.00000000000E+00 0.  1.
         21   -1    0    0  502  504 -0.00000000000E+00 -0.00000000000E+00 -0.91942759578E+03  0.91942759578E+03  0.00000000000E+00 0. -1.
          6    2    1    2  502    0 -0.17131909468E+03  0.93804257981E+02 -0.48579530969E+03  0.55217326334E+03  0.17535324008E+03 0.  0.
         24    2    3    3    0    0 -0.85707517180E+02 -0.10844735336E+02 -0.30228204476E+03  0.32418211787E+03  0.79096296858E+02 0.  0.
         -6    2    1    2    0  503  0.17131909468E+03 -0.93804257981E+02 -0.35813195388E+03  0.44275466466E+03  0.17211544286E+03 0.  0.
        -24    2    5    5    0    0  0.80400491285E+02 -0.95636514537E+02 -0.29759259836E+03  0.33340818243E+03  0.83600715337E+02 0.  0.
          4    1    4    4  501    0 -0.14147357690E+02 -0.93424141746E+01 -0.19175613142E+03  0.19250413598E+03  0.00000000000E+00 0. -1.
         -3    1    4    4    0  501 -0.71560159490E+02 -0.15023211619E+01 -0.11052591334E+03  0.13167798189E+03  0.00000000000E+00 0.  1.
          5    1    3    3  502    0 -0.85611577504E+02  0.10464899332E+03 -0.18351326493E+03  0.22799114546E+03  0.47000000000E+01 0. -1.
         11    1    6    6    0    0  0.94579290925E+02 -0.60126308857E+02 -0.21936717987E+03  0.24633792824E+03  0.00000000000E+00 0. -1.
        -12    1    6    6    0    0 -0.14178799640E+02 -0.35510205680E+02 -0.78225418489E+02  0.87070254188E+02  0.00000000000E+00 0.  1.
         -5    1    5    5    0  503  0.90918603400E+02  0.18322565563E+01 -0.60539355522E+02  0.10934648223E+03  0.47000000000E+01 0.  1.
<mgrwt>
<rscale>  2 0.26194509E+03</rscale>
<asrwt>0</asrwt>
<pdfrwt beam="1">  1       21 0.11615434E-01 0.26248472E+03</pdfrwt>
<pdfrwt beam="2">  1       21 0.14145042E+00 0.26248472E+03</pdfrwt>
<totfact> 0.20808645E+04</totfact>
</mgrwt>
</event>
<event>
12    1  0.1473662E-001  0.2100779E+03  0.7546771E-02  0.1141913E+00
         21   -1    0    0  504  503  0.00000000000E+00  0.00000000000E+00  0.15017308738E+03  0.15017308738E+03  0.00000000000E+00 0. -1.
         21   -1    0    0  502  504 -0.00000000000E+00 -0.00000000000E+00 -0.45151212702E+03  0.45151212702E+03  0.00000000000E+00 0. -1.
          6    2    1    2  502    0  0.11500943184E+03 -0.86849367764E+01 -0.33051067227E+03  0.39162483197E+03  0.17558504204E+03 0.  0.
         24    2    3    3    0    0  0.13410380424E+03 -0.42506978638E+02 -0.21338976611E+03  0.26814235453E+03  0.81083022078E+02 0.  0.
         -6    2    1    2    0  503 -0.11500943184E+03  0.86849367764E+01  0.29171632636E+02  0.21006038244E+03  0.17312360492E+03 0.  0.
        -24    2    5    5    0    0  0.51358356666E+01  0.20853433408E+02  0.31591054788E+02  0.89184821558E+02  0.80589671552E+02 0.  0.
          2    1    4    4  501    0  0.13437937196E+03 -0.23039834220E+02 -0.15418943198E+03  0.20582281337E+03  0.00000000000E+00 0. -1.
         -1    1    4    4    0  501 -0.27556772642E+00 -0.19467144418E+02 -0.59200334121E+02  0.62319541152E+02  0.00000000000E+00 0.  1.
          5    1    3    3  502    0 -0.19094372396E+02  0.33822041861E+02 -0.11712090617E+03  0.12348247744E+03  0.47000000000E+01 0. -1.
         11    1    6    6    0    0 -0.26899525228E+02 -0.18283931519E+02  0.16081053075E+02  0.36283424278E+02  0.00000000000E+00 0. -1.
        -12    1    6    6    0    0  0.32035360895E+02  0.39137364927E+02  0.15510001712E+02  0.52901397280E+02  0.00000000000E+00 0.  1.
         -5    1    5    5    0  503 -0.12014526751E+03 -0.12168496632E+02 -0.24194221517E+01  0.12087556088E+03  0.47000000000E+01 0.  1.
<mgrwt>
<rscale>  2 0.20956274E+03</rscale>
<asrwt>0</asrwt>
<pdfrwt beam="1">  1       21 0.23103552E-01 0.21007785E+03</pdfrwt>
<pdfrwt beam="2">  1       21 0.69463403E-01 0.21007785E+03</pdfrwt>
<totfact> 0.32855143E+04</totfact>
</mgrwt>
</event>
<event>
12    1  0.1473662E-001  0.1957975E+03  0.7546771E-02  0.1153714E+00
         21   -1    0    0  504  503  0.00000000000E+00  0.00000000000E+00  0.51480578920E+03  0.51480578920E+03  0.00000000000E+00 0. -1.
         21   -1    0    0  502  504 -0.00000000000E+00 -0.00000000000E+00 -0.76051814397E+02  0.76051814397E+02  0.00000000000E+00 0. -1.
          6    2    1    2  502    0 -0.84656506937E+02 -0.37374838902E+02  0.16956259612E+03  0.25901378248E+03  0.17254872577E+03 0.  0.
         24    2    3    3    0    0 -0.54158440421E+02 -0.82892030247E+02  0.15710563455E+03  0.20262927521E+03  0.81069213749E+02 0.  0.
         -6    2    1    2    0  503  0.84656506937E+02  0.37374838902E+02  0.26919137868E+03  0.33184382111E+03  0.17056588318E+03 0.  0.
        -24    2    5    5    0    0  0.83603132546E+02  0.48188183304E+02  0.92669104130E+02  0.15492507867E+03  0.78119346890E+02 0.  0.
          2    1    4    4  501    0 -0.68785099870E+02 -0.83336914204E+02  0.11385155545E+03  0.15696690069E+03  0.00000000000E+00 0. -1.
         -1    1    4    4    0  501  0.14626659448E+02  0.44488395634E+00  0.43254079098E+02  0.45662374521E+02  0.00000000000E+00 0.  1.
          5    1    3    3  502    0 -0.30498066516E+02  0.45517191345E+02  0.12456961575E+02  0.56384507277E+02  0.47000000000E+01 0. -1.
         11    1    6    6    0    0 -0.27730010865E+01 -0.75036548335E-01  0.45018011747E+02  0.45103398399E+02  0.00000000000E+00 0. -1.
        -12    1    6    6    0    0  0.86376133632E+02  0.48263219853E+02  0.47651092383E+02  0.10982168027E+03  0.00000000000E+00 0.  1.
         -5    1    5    5    0  503  0.10533743912E+01 -0.10813344402E+02  0.17652227455E+03  0.17691874244E+03  0.47000000000E+01 0.  1.
<mgrwt>
<rscale>  2 0.19535976E+03</rscale>
<asrwt>0</asrwt>
<pdfrwt beam="1">  1       21 0.79200888E-01 0.19579751E+03</pdfrwt>
<pdfrwt beam="2">  1       21 0.11700279E-01 0.19579751E+03</pdfrwt>
<totfact> 0.86261903E+04</totfact>
</mgrwt>
</event>
<event>
12    1  0.1473662E-001  0.1759757E+03  0.7546771E-02  0.1174643E+00
         21   -1    0    0  504  503  0.00000000000E+00  0.00000000000E+00  0.65409534663E+03  0.65409534663E+03  0.00000000000E+00 0.  1.
         21   -1    0    0  502  504 -0.00000000000E+00 -0.00000000000E+00 -0.85811191607E+02  0.85811191607E+02  0.00000000000E+00 0.  1.
          6    2    1    2  502    0 -0.58073226395E+01 -0.25587297765E+02  0.22332190416E+02  0.16629430055E+03  0.16268568733E+03 0.  0.
         24    2    3    3    0    0 -0.57544324653E+02 -0.44873808372E+02  0.21952953956E+02  0.11087841213E+03  0.80542424299E+02 0.  0.
         -6    2    1    2    0  503  0.58073226395E+01  0.25587297765E+02  0.54595196461E+03  0.57361223769E+03  0.17400866865E+03 0.  0.
        -24    2    5    5    0    0  0.69087999014E+02  0.37201319245E+02  0.33400328120E+03  0.35206390459E+03  0.78953855550E+02 0.  0.
          2    1    4    4  501    0 -0.28163624256E+02 -0.12299429640E+02 -0.29955817097E+02  0.42916391724E+02  0.00000000000E+00 0. -1.
         -1    1    4    4    0  501 -0.29380700398E+02 -0.32574378732E+02  0.51908771054E+02  0.67962020408E+02  0.00000000000E+00 0.  1.
          5    1    3    3  502    0  0.51737002014E+02  0.19286510607E+02  0.37923646002E+00  0.55415888417E+02  0.47000000000E+01 0. -1.
         13    1    6    6    0    0  0.87494910664E+01  0.48764884533E+02  0.13566778273E+03  0.14443100370E+03  0.00000000000E+00 0. -1.
        -14    1    6    6    0    0  0.60338507948E+02 -0.11563565289E+02  0.19833549846E+03  0.20763290090E+03  0.00000000000E+00 0.  1.
         -5    1    5    5    0  503 -0.63280676375E+02 -0.11614021480E+02  0.21194868342E+03  0.22154833310E+03  0.47000000000E+01 0.  1.
<mgrwt>
<rscale>  2 0.17310950E+03</rscale>
<asrwt>0</asrwt>
<pdfrwt beam="1">  1       21 0.10063005E+00 0.17597571E+03</pdfrwt>
<pdfrwt beam="2">  1       21 0.13201722E-01 0.17597571E+03</pdfrwt>
<totfact> 0.40343333E+04</totfact>
</mgrwt>
</event>
<event>
12    1  0.1473662E-001  0.2108904E+03  0.7546771E-02  0.1140966E+00
         21   -1    0    0  504  503  0.00000000000E+00  0.00000000000E+00  0.11540058738E+04  0.11540058738E+04  0.00000000000E+00 0.  1.
         21   -1    0    0  502  504 -0.00000000000E+00 -0.00000000000E+00 -0.40541510224E+02  0.40541510224E+02  0.00000000000E+00 0.  1.
          6    2    1    2  502    0 -0.77366243701E+02  0.92804709179E+02  0.42152683350E+03  0.47133810856E+03  0.17284817473E+03 0.  0.
         24    2    3    3    0    0 -0.21852704339E+02  0.12375837803E+03  0.25880870580E+03  0.29658353280E+03  0.72015060279E+02 0.  0.
         -6    2    1    2    0  503  0.77366243701E+02 -0.92804709179E+02  0.69193753003E+03  0.72320927542E+03  0.17220877121E+03 0.  0.
        -24    2    5    5    0    0  0.99947420399E+02 -0.61259417672E+02  0.33024517786E+03  0.35941199317E+03  0.79830446790E+02 0.  0.
          2    1    4    4  501    0  0.20638607490E+02  0.11287915479E+02  0.30133495901E+02  0.38228219030E+02  0.00000000000E+00 0. -1.
         -1    1    4    4    0  501 -0.42491311829E+02  0.11247046255E+03  0.22867520990E+03  0.25835531377E+03  0.00000000000E+00 0.  1.
          5    1    3    3  502    0 -0.55513539363E+02 -0.30953668851E+02  0.16271812770E+03  0.17475457576E+03  0.47000000000E+01 0. -1.
         13    1    6    6    0    0  0.52545988954E+02 -0.63233860364E+02  0.13153083491E+03  0.15511274152E+03  0.00000000000E+00 0. -1.
        -14    1    6    6    0    0  0.47401431445E+02  0.19744426917E+01  0.19871434295E+03  0.20429925164E+03  0.00000000000E+00 0.  1.
         -5    1    5    5    0  503 -0.22581176697E+02 -0.31545291507E+02  0.36169235217E+03  0.36379728226E+03  0.47000000000E+01 0.  1.
<mgrwt>
<rscale>  2 0.21075930E+03</rscale>
<asrwt>0</asrwt>
<pdfrwt beam="1">  1       21 0.17753934E+00 0.21089035E+03</pdfrwt>
<pdfrwt beam="2">  1       21 0.62371563E-02 0.21089035E+03</pdfrwt>
<totfact> 0.34489790E+04</totfact>
</mgrwt>
</event>
<event>
12    1  0.1473662E-001  0.3262128E+03  0.7546771E-02  0.1072934E+00
         21   -1    0    0  504  503  0.00000000000E+00  0.00000000000E+00  0.30128484311E+03  0.30128484311E+03  0.00000000000E+00 0.  1.
         21   -1    0    0  502  504 -0.00000000000E+00 -0.00000000000E+00 -0.35313484541E+03  0.35313484541E+03  0.00000000000E+00 0. -1.
          6    2    1    2  502    0 -0.10743032854E+03 -0.25475444253E+03 -0.87482834967E+01  0.32633011141E+03  0.17312916469E+03 0.  0.
         24    2    3    3    0    0 -0.92291685247E+02 -0.10382306539E+03 -0.58713111648E+02  0.16655516600E+03  0.70685286800E+02 0.  0.
         -6    2    1    2    0  503  0.10743032854E+03  0.25475444253E+03 -0.43101718805E+02  0.32808957712E+03  0.17130064498E+03 0.  0.
        -24    2    5    5    0    0  0.45709080526E+02  0.24434252422E+03 -0.41205065108E+02  0.26529142592E+03  0.83000566800E+02 0.  0.
          2    1    4    4  501    0 -0.40555805105E+02 -0.63619301059E+02 -0.66503771086E+02  0.10057305983E+03  0.00000000000E+00 0. -1.
         -1    1    4    4    0  501 -0.51735880142E+02 -0.40203764333E+02  0.77906594377E+01  0.65982106174E+02  0.00000000000E+00 0.  1.
          5    1    3    3  502    0 -0.15138643292E+02 -0.15093137714E+03  0.49964828151E+02  0.15977494540E+03  0.47000000000E+01 0. -1.
         11    1    6    6    0    0 -0.18142864848E+02  0.29312118274E+02 -0.20308041169E+02  0.40009753295E+02  0.00000000000E+00 0. -1.
        -12    1    6    6    0    0  0.63851945373E+02  0.21503040595E+03 -0.20897023939E+02  0.22528167262E+03  0.00000000000E+00 0.  1.
         -5    1    5    5    0  503  0.61721248013E+02  0.10411918312E+02 -0.18966536972E+01  0.62798151203E+02  0.47000000000E+01 0.  1.
<mgrwt>
<rscale>  2 0.32597087E+03</rscale>
<asrwt>0</asrwt>
<pdfrwt beam="1">  1       21 0.46351515E-01 0.32621283E+03</pdfrwt>
<pdfrwt beam="2">  1       21 0.54328437E-01 0.32621283E+03</pdfrwt>
<totfact> 0.13336897E+04</totfact>
</mgrwt>
</event>
<event>
12    1  0.1473662E-001  0.1910954E+03  0.7546771E-02  0.1157545E+00
         21   -1    0    0  504  503  0.00000000000E+00  0.00000000000E+00  0.48734511626E+02  0.48734511626E+02  0.00000000000E+00 0.  1.
         21   -1    0    0  502  504 -0.00000000000E+00 -0.00000000000E+00 -0.74854986933E+03  0.74854986933E+03  0.00000000000E+00 0.  1.
          6    2    1    2  502    0  0.80557614130E+02  0.93355551972E+01 -0.34022664035E+03  0.39007252383E+03  0.17270126017E+03 0.  0.
         24    2    3    3    0    0 -0.58311870937E+01  0.41151742930E+02 -0.10542704531E+03  0.13782614703E+03  0.78445625973E+02 0.  0.
         -6    2    1    2    0  503 -0.80557614130E+02 -0.93355551972E+01 -0.35958871736E+03  0.40721185713E+03  0.17303401153E+03 0.  0.
        -24    2    5    5    0    0 -0.69912053390E+02 -0.27348711070E+02 -0.36789535072E+03  0.38421420712E+03  0.81473435338E+02 0.  0.
          4    1    4    4  501    0 -0.11155235367E+02  0.58452990382E+02 -0.44610104364E+02  0.74372392540E+02  0.00000000000E+00 0. -1.
         -3    1    4    4    0  501  0.53240482729E+01 -0.17301247452E+02 -0.60816940944E+02  0.63453754493E+02  0.00000000000E+00 0.  1.
          5    1    3    3  502    0  0.86388801224E+02 -0.31816187733E+02 -0.23479959504E+03  0.25224637680E+03  0.47000000000E+01 0. -1.
         13    1    6    6    0    0 -0.29440156870E+02 -0.30999967323E+02 -0.31304613327E+03  0.31595189882E+03  0.00000000000E+00 0. -1.
        -14    1    6    6    0    0 -0.40471896520E+02  0.36512562530E+01 -0.54849217450E+02  0.68262308304E+02  0.00000000000E+00 0.  1.
         -5    1    5    5    0  503 -0.10645560740E+02  0.18013155873E+02  0.83066333594E+01  0.22997650005E+02  0.47000000000E+01 0.  1.
<mgrwt>
<rscale>  2 0.19102004E+03</rscale>
<asrwt>0</asrwt>
<pdfrwt beam="1">  1       21 0.74976169E-02 0.19109540E+03</pdfrwt>
<pdfrwt beam="2">  1       21 0.11516152E+00 0.19109540E+03</pdfrwt>
<totfact> 0.78532828E+04</totfact>
</mgrwt>
</event>
<event>
12    1  0.1473662E-001  0.2599032E+03  0.7546771E-02  0.1107260E+00
         21   -1    0    0  504  503  0.00000000000E+00  0.00000000000E+00  0.11576932153E+04  0.11576932153E+04  0.00000000000E+00 0. -1.
         21   -1    0    0  502  504 -0.00000000000E+00 -0.00000000000E+00 -0.76363456913E+02  0.76363456913E+02  0.00000000000E+00 0. -1.
          6    2    1    2  502    0 -0.70043049249E+02  0.18005059510E+03  0.23993402878E+03  0.35343390257E+03  0.17327128953E+03 0.  0.
         24    2    3    3    0    0 -0.11073984976E+03  0.13204941950E+03  0.14968703903E+03  0.24331146349E+03  0.84225264000E+02 0.  0.
         -6    2    1    2    0  503  0.70043049249E+02 -0.18005059510E+03  0.84139572963E+03  0.88062276967E+03  0.17385466077E+03 0.  0.
        -24    2    5    5    0    0 -0.20031884994E+02 -0.11896131235E+03  0.56672424754E+03  0.58513688621E+03  0.81582673456E+02 0.  0.
          4    1    4    4  501    0 -0.12074604386E+03  0.10211152353E+03  0.13723074744E+03  0.20937680958E+03  0.00000000000E+00 0. -1.
         -3    1    4    4    0  501  0.10006194107E+02  0.29937895973E+02  0.12456291591E+02  0.33934653910E+02  0.00000000000E+00 0.  1.
          5    1    3    3  502    0  0.40696800508E+02  0.48001175591E+02  0.90246989748E+02  0.11012243908E+03  0.47000000000E+01 0. -1.
         13    1    6    6    0    0  0.10141888416E+02 -0.10779922029E+03  0.49213417619E+03  0.50390433335E+03  0.00000000000E+00 0. -1.
        -14    1    6    6    0    0 -0.30173773410E+02 -0.11162092060E+02  0.74590071348E+02  0.81232552863E+02  0.00000000000E+00 0.  1.
         -5    1    5    5    0  503  0.90074934243E+02 -0.61089282750E+02  0.27467148210E+03  0.29548588346E+03  0.47000000000E+01 0.  1.
<mgrwt>
<rscale>  2 0.25980571E+03</rscale>
<asrwt>0</asrwt>
<pdfrwt beam="1">  1       21 0.17810664E+00 0.25990323E+03</pdfrwt>
<pdfrwt beam="2">  1       21 0.11748225E-01 0.25990323E+03</pdfrwt>
<totfact> 0.10901815E+04</totfact>
</mgrwt>
</event>
<event>
12    1  0.1473662E-001  0.2693198E+03  0.7546771E-02  0.1101753E+00
         21   -1    0    0  504  503  0.00000000000E+00  0.00000000000E+00  0.17013880107E+04  0.17013880107E+04  0.00000000000E+00 0. -1.
         21   -1    0    0  502  504 -0.00000000000E+00 -0.00000000000E+00 -0.44618140246E+02  0.44618140246E+02  0.00000000000E+00 0.  1.
          6    2    1    2  502    0  0.20565796283E+03 -0.55378649425E+01  0.10176588544E+04  0.10526930570E+04  0.17380236706E+03 0.  0.
         24    2    3    3    0    0  0.15436044396E+03  0.13190502597E+02  0.45252585312E+03  0.48490825069E+03  0.79719682830E+02 0.  0.
         -6    2    1    2    0  503 -0.20565796283E+03  0.55378649425E+01  0.63911101609E+03  0.69331309393E+03  0.17289965213E+03 0.  0.
        -24    2    5    5    0    0 -0.19735219543E+03 -0.30673227943E+02  0.60714385533E+03  0.64407674164E+03  0.79513848483E+02 0.  0.
          4    1    4    4  501    0  0.55843158605E+02  0.14409309256E+02  0.74275853113E+02  0.94037167715E+02  0.00000000000E+00 0. -1.
         -3    1    4    4    0  501  0.98517285354E+02 -0.12188066593E+01  0.37825000001E+03  0.39087108298E+03  0.00000000000E+00 0.  1.
          5    1    3    3  502    0  0.51297518872E+02 -0.18728367539E+02  0.56513300123E+03  0.56778480631E+03  0.47000000000E+01 0. -1.
         11    1    6    6    0    0 -0.11139659600E+03  0.19336305025E+02  0.27409471372E+03  0.29649790283E+03  0.00000000000E+00 0. -1.
        -12    1    6    6    0    0 -0.85955599429E+02 -0.50009532968E+02  0.33304914161E+03  0.34757883881E+03  0.00000000000E+00 0.  1.
         -5    1    5    5    0  503 -0.83057673994E+01  0.36211092886E+02  0.31967160760E+02  0.49236352293E+02  0.47000000000E+01 0.  1.
<mgrwt>
<rscale>  2 0.26917422E+03</rscale>
<asrwt>0</asrwt>
<pdfrwt beam="1">  1       21 0.26175195E+00 0.26931975E+03</pdfrwt>
<pdfrwt beam="2">  1       21 0.68643306E-02 0.26931975E+03</pdfrwt>
<totfact> 0.83158260E+03</totfact>
</mgrwt>
</event>
<event>
12    1  0.1473662E-001  0.2260319E+03  0.7546771E-02  0.1129643E+00
         21   -1    0    0  504  503  0.00000000000E+00  0.00000000000E+00  0.16882221514E+04  0.16882221514E+04  0.00000000000E+00 0. -1.
         21   -1    0    0  502  504 -0.00000000000E+00 -0.00000000000E+00 -0.33045763852E+02  0.33045763852E+02  0.00000000000E+00 0.  1.
          6    2    1    2  502    0 -0.24471321974E+02 -0.14263768811E+03  0.57030559919E+03  0.61310049539E+03  0.17233509599E+03 0.  0.
         24    2    3    3    0    0  0.16634144683E+02 -0.63689790505E+02  0.45840323589E+03  0.47003876453E+03  0.80435249103E+02 0.  0.
         -6    2    1    2    0  503  0.24471321974E+02  0.14263768811E+03  0.10848707884E+04  0.11081674199E+04  0.17362617125E+03 0.  0.
        -24    2    5    5    0    0  0.56049791891E+02  0.15388092238E+03  0.76481471792E+03  0.78632648352E+03  0.80912721479E+02 0.  0.
          4    1    4    4  501    0 -0.20366854532E+01 -0.45084440016E+02  0.42546765612E+03  0.42785450941E+03  0.00000000000E+00 0. -1.
         -3    1    4    4    0  501  0.18670830136E+02 -0.18605350490E+02  0.32935579772E+02  0.42184255117E+02  0.00000000000E+00 0.  1.
          5    1    3    3  502    0 -0.41105466657E+02 -0.78947897609E+02  0.11190236330E+03  0.14306173086E+03  0.47000000000E+01 0. -1.
         11    1    6    6    0    0  0.68211302022E+02  0.74102265197E+02  0.37836358471E+03  0.39153918024E+03  0.00000000000E+00 0. -1.
        -12    1    6    6    0    0 -0.12161510131E+02  0.79778657188E+02  0.38645113321E+03  0.39478730328E+03  0.00000000000E+00 0.  1.
         -5    1    5    5    0  503 -0.31578469917E+02 -0.11243234270E+02  0.32005607047E+03  0.32184093637E+03  0.47000000000E+01 0.  1.
<mgrwt>
<rscale>  2 0.22578390E+03</rscale>
<asrwt>0</asrwt>
<pdfrwt beam="1">  1       21 0.25972642E+00 0.22603186E+03</pdfrwt>
<pdfrwt beam="2">  1       21 0.50839650E-02 0.22603186E+03</pdfrwt>
<totfact> 0.14809463E+04</totfact>
</mgrwt>
</event>
<event>
12    1  0.1473662E-001  0.2009116E+03  0.7546771E-02  0.1149589E+00
         21   -1    0    0  504  503  0.00000000000E+00  0.00000000000E+00  0.41693480222E+02  0.41693480222E+02  0.00000000000E+00 0. -1.
         21   -1    0    0  502  504 -0.00000000000E+00 -0.00000000000E+00 -0.95667814772E+03  0.95667814772E+03  0.00000000000E+00 0. -1.
          6    2    1    2  502    0  0.86367398020E+02 -0.45816202380E+02 -0.48654794728E+03  0.52639756174E+03  0.17551933274E+03 0.  0.
         24    2    3    3    0    0  0.53061410465E+02  0.19070711474E+02 -0.40483547879E+03  0.41676810447E+03  0.81392153765E+02 0.  0.
         -6    2    1    2    0  503 -0.86367398020E+02  0.45816202380E+02 -0.42843672022E+03  0.47197406620E+03  0.17217155425E+03 0.  0.
        -24    2    5    5    0    0  0.20319273220E+02  0.42804835023E+02 -0.21277874040E+03  0.23130506443E+03  0.77344125177E+02 0.  0.
          2    1    4    4  501    0  0.48563152122E+01  0.43337738434E+02 -0.21672464502E+03  0.22106857562E+03  0.00000000000E+00 0. -1.
         -1    1    4    4    0  501  0.48205095253E+02 -0.24267026961E+02 -0.18811083378E+03  0.19569952885E+03  0.00000000000E+00 0.  1.
          5    1    3    3  502    0  0.33305987555E+02 -0.64886913854E+02 -0.81712468489E+02  0.10962945728E+03  0.47000000000E+01 0. -1.
         11    1    6    6    0    0  0.33498484463E+02 -0.10458351065E+02 -0.68979304424E+02  0.77392958383E+02  0.00000000000E+00 0. -1.
        -12    1    6    6    0    0 -0.13179211243E+02  0.53263186088E+02 -0.14379943597E+03  0.15391210605E+03  0.00000000000E+00 0.  1.
         -5    1    5    5    0  503 -0.10668667124E+03  0.30113673577E+01 -0.21565797982E+03  0.24066900177E+03  0.47000000000E+01 0.  1.
<mgrwt>
<rscale>  2 0.20017814E+03</rscale>
<asrwt>0</asrwt>
<pdfrwt beam="1">  1       21 0.64143821E-02 0.20091164E+03</pdfrwt>
<pdfrwt beam="2">  1       21 0.14718124E+00 0.20091164E+03</pdfrwt>
<totfact> 0.54989666E+04</totfact>
</mgrwt>
</event>
<event>
12    1  0.1473662E-001  0.1982895E+03  0.7546771E-02  0.1151225E+00
         21   -1    0    0  504  503  0.00000000000E+00  0.00000000000E+00  0.35772476124E+03  0.35772476124E+03  0.00000000000E+00 0.  1.
         21   -1    0    0  502  504 -0.00000000000E+00 -0.00000000000E+00 -0.15340449836E+03  0.15340449836E+03  0.00000000000E+00 0.  1.
          6    2    1    2  502    0 -0.77395002490E+02  0.58656747960E+02  0.23840641291E+03  0.31009086266E+03  0.17288182350E+03 0.  0.
         24    2    3    3    0    0 -0.93132295660E+02 -0.14505907023E+02  0.13829035341E+03  0.18500788280E+03  0.78864751440E+02 0.  0.
         -6    2    1    2    0  503  0.77395002490E+02 -0.58656747960E+02 -0.34086150031E+02  0.20103839694E+03  0.17269618099E+03 0.  0.
        -24    2    5    5    0    0  0.41514668168E+02 -0.10338821828E+03 -0.39547319132E+02  0.14324378477E+03  0.80883867812E+02 0.  0.
          2    1    4    4  501    0 -0.78513206892E+02 -0.43974815164E+02  0.10239926949E+03  0.13632211272E+03  0.00000000000E+00 0. -1.
         -1    1    4    4    0  501 -0.14619088769E+02  0.29468908141E+02  0.35891083923E+02  0.48685770083E+02  0.00000000000E+00 0.  1.
          5    1    3    3  502    0  0.15737293171E+02  0.73162654982E+02  0.10011605950E+03  0.12508297985E+03  0.47000000000E+01 0. -1.
         11    1    6    6    0    0  0.38080757223E+02 -0.73486737874E+02  0.11920490650E+02  0.83621425552E+02  0.00000000000E+00 0. -1.
        -12    1    6    6    0    0  0.34339109454E+01 -0.29901480403E+02 -0.51467809782E+02  0.59622359215E+02  0.00000000000E+00 0.  1.
         -5    1    5    5    0  503  0.35880334321E+02  0.44731470317E+02  0.54611691012E+01  0.57794612169E+02  0.47000000000E+01 0.  1.
<mgrwt>
<rscale>  2 0.19824903E+03</rscale>
<asrwt>0</asrwt>
<pdfrwt beam="1">  1       21 0.55034578E-01 0.19828950E+03</pdfrwt>
<pdfrwt beam="2">  1       21 0.23600692E-01 0.19828950E+03</pdfrwt>
<totfact> 0.52507078E+04</totfact>
</mgrwt>
</event>
<event>
12    1  0.1473662E-001  0.1785895E+03  0.7546771E-02  0.1169517E+00
         21   -1    0    0  504  503  0.00000000000E+00  0.00000000000E+00  0.61264786814E+03  0.61264786814E+03  0.00000000000E+00 0. -1.
         21   -1    0    0  502  504 -0.00000000000E+00 -0.00000000000E+00 -0.83136653149E+02  0.83136653149E+02  0.00000000000E+00 0. -1.
          6    2    1    2  502    0  0.89510410995E+01  0.41801652098E+02  0.50030149153E+02  0.18412420022E+03  0.17196280419E+03 0.  0.
         24    2    3    3    0    0  0.56471209206E+02 -0.18095646993E+02  0.49096630757E+02  0.10751601350E+03  0.75051742805E+02 0.  0.
         -6    2    1    2    0  503 -0.89510410995E+01 -0.41801652098E+02  0.47948106584E+03  0.51166032108E+03  0.17339749828E+03 0.  0.
        -24    2    5    5    0    0 -0.23561494596E+02 -0.92647709732E+02  0.33545240053E+03  0.35815092931E+03  0.81271354115E+02 0.  0.
          2    1    4    4  501    0  0.30274048379E+02 -0.18735055112E+02 -0.14722529329E+02  0.38526265912E+02  0.00000000000E+00 0. -1.
         -1    1    4    4    0  501  0.26197160827E+02  0.63940811902E+00  0.63819160086E+02  0.68989747588E+02  0.00000000000E+00 0.  1.
          5    1    3    3  502    0 -0.47520168106E+02  0.59897299091E+02  0.93351839658E+00  0.76608186716E+02  0.47000000000E+01 0. -1.
         13    1    6    6    0    0 -0.11300024587E+01 -0.28265491838E+02  0.23530447529E+03  0.23699875744E+03  0.00000000000E+00 0. -1.
        -14    1    6    6    0    0 -0.22431492137E+02 -0.64382217894E+02  0.10014792524E+03  0.12115217187E+03  0.00000000000E+00 0.  1.
         -5    1    5    5    0  503  0.14610453497E+02  0.50846057634E+02  0.14402866531E+03  0.15350939176E+03  0.47000000000E+01 0.  1.
<mgrwt>
<rscale>  2 0.17824026E+03</rscale>
<asrwt>0</asrwt>
<pdfrwt beam="1">  1       21 0.94253515E-01 0.17858945E+03</pdfrwt>
<pdfrwt beam="2">  1       21 0.12790255E-01 0.17858945E+03</pdfrwt>
<totfact> 0.49734394E+04</totfact>
</mgrwt>
</event>
<event>
12    1  0.1473662E-001  0.1758587E+03  0.7546771E-02  0.1172127E+00
         21   -1    0    0  504  503  0.00000000000E+00  0.00000000000E+00  0.57710312895E+03  0.57710312895E+03  0.00000000000E+00 0.  1.
         21   -1    0    0  502  504 -0.00000000000E+00 -0.00000000000E+00 -0.55841982010E+02  0.55841982010E+02  0.00000000000E+00 0.  1.
          6    2    1    2  502    0 -0.28568977919E+02 -0.11979977133E+02  0.19354778741E+03  0.26150911306E+03  0.17310853200E+03 0.  0.
         24    2    3    3    0    0  0.34365167893E+02  0.31481902579E+02  0.14017417034E+03  0.16812563114E+03  0.80282967428E+02 0.  0.
         -6    2    1    2    0  503  0.28568977919E+02  0.11979977133E+02  0.32771335953E+03  0.37143599790E+03  0.17207250847E+03 0.  0.
        -24    2    5    5    0    0  0.72427581064E+02 -0.22101328509E+02  0.15255946060E+03  0.18762606679E+03  0.78707869365E+02 0.  0.
          4    1    4    4  501    0  0.33061090737E+02  0.20007277688E+02  0.14878421606E+03  0.15372075277E+03  0.00000000000E+00 0. -1.
         -3    1    4    4    0  501  0.13040771566E+01  0.11474624891E+02 -0.86100457186E+01  0.14404878371E+02  0.00000000000E+00 0.  1.
          5    1    3    3  502    0 -0.62934145812E+02 -0.43461879713E+02  0.53373617060E+02  0.93383481919E+02  0.47000000000E+01 0. -1.
         13    1    6    6    0    0  0.77903439230E+02 -0.26138229732E+01  0.77627877117E+02  0.11000847795E+03  0.00000000000E+00 0. -1.
        -14    1    6    6    0    0 -0.54758581668E+01 -0.19487505535E+02  0.74931583479E+02  0.77617588840E+02  0.00000000000E+00 0.  1.
         -5    1    5    5    0  503 -0.43858603145E+02  0.34081305642E+02  0.17515389894E+03  0.18380993112E+03  0.47000000000E+01 0.  1.
<mgrwt>
<rscale>  2 0.17560318E+03</rscale>
<asrwt>0</asrwt>
<pdfrwt beam="1">  1       21 0.88785093E-01 0.17585867E+03</pdfrwt>
<pdfrwt beam="2">  1       21 0.85910745E-02 0.17585867E+03</pdfrwt>
<totfact> 0.11562891E+05</totfact>
</mgrwt>
</event>
<event>
12    1  0.1473662E-001  0.2034931E+03  0.7546771E-02  0.1147030E+00
         21   -1    0    0  504  503  0.00000000000E+00  0.00000000000E+00  0.24363385431E+03  0.24363385431E+03  0.00000000000E+00 0.  1.
         21   -1    0    0  502  504 -0.00000000000E+00 -0.00000000000E+00 -0.18312171199E+03  0.18312171199E+03  0.00000000000E+00 0.  1.
          6    2    1    2  502    0 -0.10405995648E+03 -0.24362826492E+02 -0.28779863884E+02  0.20453382897E+03  0.17199937433E+03 0.  0.
         24    2    3    3    0    0 -0.12641090636E+03 -0.27575188246E+02 -0.61633691491E+02  0.16439222690E+03  0.80535607554E+02 0.  0.
         -6    2    1    2    0  503  0.10405995648E+03  0.24362826492E+02  0.89292006209E+02  0.22222173733E+03  0.17316875097E+03 0.  0.
        -24    2    5    5    0    0  0.61858120431E+02  0.28244615117E+02  0.13503000951E+03  0.15969079943E+03  0.51418504515E+02 0.  0.
          2    1    4    4  501    0 -0.11588494158E+03 -0.35559573733E+02 -0.77400757986E+02  0.14382169623E+03  0.00000000000E+00 0. -1.
         -1    1    4    4    0  501 -0.10525964776E+02  0.79843854870E+01  0.15767066495E+02  0.20570530667E+02  0.00000000000E+00 0.  1.
          5    1    3    3  502    0  0.22350949881E+02  0.32123617537E+01  0.32853827607E+02  0.40141602073E+02  0.47000000000E+01 0. -1.
         13    1    6    6    0    0  0.10389426083E+02  0.30339583695E+02  0.67742918899E+02  0.74950207299E+02  0.00000000000E+00 0. -1.
        -14    1    6    6    0    0  0.51468694348E+02 -0.20949685774E+01  0.67287090613E+02  0.84740592129E+02  0.00000000000E+00 0.  1.
         -5    1    5    5    0  503  0.42201836047E+02 -0.38817886252E+01 -0.45738003304E+02  0.62530937902E+02  0.47000000000E+01 0.  1.
<mgrwt>
<rscale>  2 0.20324409E+03</rscale>
<asrwt>0</asrwt>
<pdfrwt beam="1">  1       21 0.37482131E-01 0.20349309E+03</pdfrwt>
<pdfrwt beam="2">  1       21 0.28172571E-01 0.20349309E+03</pdfrwt>
<totfact> 0.82267723E+04</totfact>
</mgrwt>
</event>
<event>
12    1  0.1473662E-001  0.2101662E+03  0.7546771E-02  0.1142796E+00
         21   -1    0    0  504  503  0.00000000000E+00  0.00000000000E+00  0.37997516650E+02  0.37997516650E+02  0.00000000000E+00 0.  1.
         21   -1    0    0  502  504 -0.00000000000E+00 -0.00000000000E+00 -0.11633333400E+04  0.11633333400E+04  0.00000000000E+00 0. -1.
          6    2    1    2  502    0 -0.10842953511E+03  0.50516568340E+02 -0.44519752602E+03  0.48946153181E+03  0.16450795175E+03 0.  0.
         24    2    3    3    0    0 -0.80575294347E+02 -0.50261983593E+01 -0.15249833175E+03  0.19020283773E+03  0.80023356359E+02 0.  0.
         -6    2    1    2    0  503  0.10842953511E+03 -0.50516568340E+02 -0.68013829738E+03  0.71186932489E+03  0.17280319555E+03 0.  0.
        -24    2    5    5    0    0  0.25022670346E+02 -0.84636992590E+02 -0.39745922566E+03  0.41513635397E+03  0.81085151412E+02 0.  0.
          2    1    4    4  501    0 -0.79430106378E+02 -0.27253457455E+02 -0.14335715241E+03  0.16614200520E+03  0.00000000000E+00 0. -1.
         -1    1    4    4    0  501 -0.11451879692E+01  0.22227259096E+02 -0.91411793400E+01  0.24060832532E+02  0.00000000000E+00 0.  1.
          5    1    3    3  502    0 -0.27854240761E+02  0.55542766699E+02 -0.29269919426E+03  0.29925869408E+03  0.47000000000E+01 0. -1.
         13    1    6    6    0    0  0.44387380327E+02 -0.59456905745E+02 -0.35164114002E+03  0.35938399314E+03  0.00000000000E+00 0. -1.
        -14    1    6    6    0    0 -0.19364709981E+02 -0.25180086845E+02 -0.45818085646E+02  0.55752360833E+02  0.00000000000E+00 0.  1.
         -5    1    5    5    0  503  0.83406864763E+02  0.34120424250E+02 -0.28267907172E+03  0.29673297092E+03  0.47000000000E+01 0.  1.
<mgrwt>
<rscale>  2 0.20845396E+03</rscale>
<asrwt>0</asrwt>
<pdfrwt beam="1">  1       21 0.58457710E-02 0.21016620E+03</pdfrwt>
<pdfrwt beam="2">  1       21 0.17897438E+00 0.21016620E+03</pdfrwt>
<totfact> 0.37697506E+04</totfact>
</mgrwt>
</event>
<event>
12    1  0.1473662E-001  0.2277915E+03  0.7546771E-02  0.1129898E+00
         21   -1    0    0  504  503  0.00000000000E+00  0.00000000000E+00  0.20280121307E+03  0.20280121307E+03  0.00000000000E+00 0.  1.
         21   -1    0    0  502  504 -0.00000000000E+00 -0.00000000000E+00 -0.25047346214E+03  0.25047346214E+03  0.00000000000E+00 0.  1.
          6    2    1    2  502    0 -0.12964513994E+03 -0.67649402476E+02 -0.55195383781E+02  0.22535899627E+03  0.16234482697E+03 0.  0.
         24    2    3    3    0    0 -0.15437563964E+03 -0.74030236097E+02 -0.58342172232E+02  0.19919977361E+03  0.83453141202E+02 0.  0.
         -6    2    1    2    0  503  0.12964513994E+03  0.67649402476E+02  0.75231347082E+01  0.22791567894E+03  0.17465581921E+03 0.  0.
        -24    2    5    5    0    0  0.16245842601E+02  0.53704528200E+01 -0.36625536860E+02  0.91133869445E+02  0.81677310463E+02 0.  0.
          2    1    4    4  501    0 -0.74216425511E+02 -0.28755501536E+02 -0.70516502201E+02  0.10633688808E+03  0.00000000000E+00 0. -1.
         -1    1    4    4    0  501 -0.80159214125E+02 -0.45274734560E+02  0.12174329969E+02  0.92862885529E+02  0.00000000000E+00 0.  1.
          5    1    3    3  502    0  0.24730499693E+02  0.63808336210E+01  0.31467884504E+01  0.26159222662E+02  0.47000000000E+01 0. -1.
         13    1    6    6    0    0 -0.20000714404E+02  0.20460294590E+02  0.98810699430E+01  0.30270245698E+02  0.00000000000E+00 0. -1.
        -14    1    6    6    0    0  0.36246557005E+02 -0.15089841770E+02 -0.46506606803E+02  0.60863623747E+02  0.00000000000E+00 0.  1.
         -5    1    5    5    0  503  0.11339929734E+03  0.62278949656E+02  0.44148671568E+02  0.13678180950E+03  0.47000000000E+01 0.  1.
<mgrwt>
<rscale>  2 0.22543097E+03</rscale>
<asrwt>0</asrwt>
<pdfrwt beam="1">  1       21 0.31200187E-01 0.22779148E+03</pdfrwt>
<pdfrwt beam="2">  1       21 0.38534379E-01 0.22779148E+03</pdfrwt>
<totfact> 0.63116975E+04</totfact>
</mgrwt>
</event>
<event>
12    1  0.1473662E-001  0.1942445E+03  0.7546771E-02  0.1154743E+00
         21   -1    0    0  504  503  0.00000000000E+00  0.00000000000E+00  0.50662363588E+02  0.50662363588E+02  0.00000000000E+00 0. -1.
         21   -1    0    0  502  504 -0.00000000000E+00 -0.00000000000E+00 -0.85008796798E+03  0.85008796798E+03  0.00000000000E+00 0. -1.
          6    2    1    2  502    0 -0.79315688630E+02 -0.38276515666E+02 -0.55874714408E+03  0.59146561027E+03  0.17285001300E+03 0.  0.
         24    2    3    3    0    0 -0.12094248059E+03 -0.33606588207E+02 -0.47119113924E+03  0.49429183800E+03  0.80912576531E+02 0.  0.
         -6    2    1    2    0  503  0.79315688630E+02  0.38276515666E+02 -0.24067846031E+03  0.30928472130E+03  0.17313245640E+03 0.  0.
        -24    2    5    5    0    0  0.27830492083E+02  0.51763353676E+02 -0.23467645621E+03  0.25551917177E+03  0.82237625037E+02 0.  0.
          2    1    4    4  501    0 -0.10646745733E+03 -0.57464441984E+02 -0.39701328390E+03  0.41503858755E+03  0.00000000000E+00 0. -1.
         -1    1    4    4    0  501 -0.14475023257E+02  0.23857853777E+02 -0.74177855337E+02  0.79253250454E+02  0.00000000000E+00 0.  1.
          5    1    3    3  502    0  0.41626791957E+02 -0.46699274590E+01 -0.87556004846E+02  0.97173772262E+02  0.47000000000E+01 0. -1.
         11    1    6    6    0    0  0.51916604622E+02  0.21544001126E+02 -0.92998599001E+02  0.10866562122E+03  0.00000000000E+00 0. -1.
        -12    1    6    6    0    0 -0.24086112539E+02  0.30219352550E+02 -0.14167785721E+03  0.14685355055E+03  0.00000000000E+00 0.  1.
         -5    1    5    5    0  503  0.51485196547E+02 -0.13486838011E+02 -0.60020041042E+01  0.53765549530E+02  0.47000000000E+01 0.  1.
<mgrwt>
<rscale>  2 0.19418152E+03</rscale>
<asrwt>0</asrwt>
<pdfrwt beam="1">  1       21 0.77942102E-02 0.19424448E+03</pdfrwt>
<pdfrwt beam="2">  1       21 0.13078276E+00 0.19424448E+03</pdfrwt>
<totfact> 0.53416816E+04</totfact>
</mgrwt>
</event>
<event>
12    1  0.1473662E-001  0.1860368E+03  0.7546771E-02  0.1162419E+00
         21   -1    0    0  504  503  0.00000000000E+00  0.00000000000E+00  0.22092256408E+02  0.22092256408E+02  0.00000000000E+00 0. -1.
         21   -1    0    0  502  504 -0.00000000000E+00 -0.00000000000E+00 -0.15698998664E+04  0.15698998664E+04  0.00000000000E+00 0. -1.
          6    2    1    2  502    0  0.62078787650E+02 -0.90155683515E+01 -0.85557715678E+03  0.87556949808E+03  0.17514170953E+03 0.  0.
         24    2    3    3    0    0 -0.12905042814E+02 -0.13128405597E+02 -0.20772318728E+03  0.22336067718E+03  0.80013588932E+02 0.  0.
         -6    2    1    2    0  503 -0.62078787650E+02  0.90155683515E+01 -0.69223045324E+03  0.71642262476E+03  0.17361831851E+03 0.  0.
        -24    2    5    5    0    0 -0.52947901717E+02  0.32904932190E+02 -0.68033442262E+03  0.68782751456E+03  0.79784386498E+02 0.  0.
          4    1    4    4  501    0 -0.44319270041E+02  0.16452129084E+01 -0.85700828328E+02  0.96496302513E+02  0.00000000000E+00 0. -1.
         -3    1    4    4    0  501  0.31414227227E+02 -0.14773618506E+02 -0.12202235895E+03  0.12686437467E+03  0.00000000000E+00 0.  1.
          5    1    3    3  502    0  0.74983830464E+02  0.41128372457E+01 -0.64785396950E+03  0.65220882090E+03  0.47000000000E+01 0. -1.
         11    1    6    6    0    0  0.65855815612E+01 -0.11443487343E+02 -0.24733289557E+02  0.28036741953E+02  0.00000000000E+00 0. -1.
        -12    1    6    6    0    0 -0.59533483278E+02  0.44348419533E+02 -0.65560113307E+03  0.65979077261E+03  0.00000000000E+00 0.  1.
         -5    1    5    5    0  503 -0.91308859329E+01 -0.23889363838E+02 -0.11896030621E+02  0.28595110195E+02  0.47000000000E+01 0.  1.
<mgrwt>
<rscale>  2 0.18567735E+03</rscale>
<asrwt>0</asrwt>
<pdfrwt beam="1">  1       21 0.33988082E-02 0.18603676E+03</pdfrwt>
<pdfrwt beam="2">  1       21 0.24152309E+00 0.18603676E+03</pdfrwt>
<totfact> 0.38579664E+04</totfact>
</mgrwt>
</event>
<event>
12    1  0.1473662E-001  0.1799799E+03  0.7546771E-02  0.1168576E+00
         21   -1    0    0  504  503  0.00000000000E+00  0.00000000000E+00  0.35835534760E+03  0.35835534760E+03  0.00000000000E+00 0. -1.
         21   -1    0    0  502  504 -0.00000000000E+00 -0.00000000000E+00 -0.11786255695E+03  0.11786255695E+03  0.00000000000E+00 0. -1.
          6    2    1    2  502    0  0.96861403183E+01  0.10401371206E+02  0.13322504286E+01  0.17690113434E+03  0.17632420878E+03 0.  0.
         24    2    3    3    0    0  0.55789208618E+02  0.30830745442E+02 -0.41861013371E+02  0.11033837992E+03  0.79744861785E+02 0.  0.
         -6    2    1    2    0  503 -0.96861403183E+01 -0.10401371206E+02  0.23916054021E+03  0.29931677021E+03  0.17941782268E+03 0.  0.
        -24    2    5    5    0    0  0.18634354925E+02 -0.60387875899E+02  0.21199239487E+03  0.23559158504E+03  0.81047422683E+02 0.  0.
          4    1    4    4  501    0  0.42278450874E+02 -0.12917481207E+02 -0.46688854030E+02  0.64297572424E+02  0.00000000000E+00 0. -1.
         -3    1    4    4    0  501  0.13510757744E+02  0.43748226649E+02  0.48278406592E+01  0.46040807499E+02  0.00000000000E+00 0.  1.
          5    1    3    3  502    0 -0.46103068299E+02 -0.20429374236E+02  0.43193263800E+02  0.66562754420E+02  0.47000000000E+01 0. -1.
         13    1    6    6    0    0  0.22422552169E+02  0.60948321558E+01  0.11881066003E+03  0.12106151643E+03  0.00000000000E+00 0. -1.
        -14    1    6    6    0    0 -0.37881972439E+01 -0.66482708054E+02  0.93181734838E+02  0.11453006861E+03  0.00000000000E+00 0.  1.
         -5    1    5    5    0  503 -0.28320495243E+02  0.49986504693E+02  0.27168145348E+02  0.63725185161E+02  0.47000000000E+01 0.  1.
<mgrwt>
<rscale>  2 0.17920395E+03</rscale>
<asrwt>0</asrwt>
<pdfrwt beam="1">  1       21 0.55131591E-01 0.17997990E+03</pdfrwt>
<pdfrwt beam="2">  1       21 0.18132701E-01 0.17997990E+03</pdfrwt>
<totfact> 0.86392574E+04</totfact>
</mgrwt>
</event>
<event>
12    1  0.1473662E-001  0.1878602E+03  0.7546771E-02  0.1160436E+00
         21   -1    0    0  504  503  0.00000000000E+00  0.00000000000E+00  0.49280413011E+02  0.49280413011E+02  0.00000000000E+00 0.  1.
         21   -1    0    0  502  504 -0.00000000000E+00 -0.00000000000E+00 -0.85716307930E+03  0.85716307930E+03  0.00000000000E+00 0.  1.
          6    2    1    2  502    0  0.14144479244E+01  0.71635846966E+02 -0.58822767968E+03  0.61749758741E+03  0.17365993229E+03 0.  0.
         24    2    3    3    0    0 -0.42973294367E+02  0.12301331869E+02 -0.46194797110E+03  0.47100693533E+03  0.80334166652E+02 0.  0.
         -6    2    1    2    0  503 -0.14144479244E+01 -0.71635846966E+02 -0.21965498661E+03  0.28894590490E+03  0.17351578482E+03 0.  0.
        -24    2    5    5    0    0  0.46165910413E+02 -0.46727316759E+02 -0.20960393292E+03  0.23410578221E+03  0.80975151446E+02 0.  0.
          2    1    4    4  501    0 -0.66521852775E+02  0.13869166123E+02 -0.36067190734E+03  0.36701735028E+03  0.00000000000E+00 0. -1.
         -1    1    4    4    0  501  0.23548558408E+02 -0.15678342536E+01 -0.10127606376E+03  0.10398958504E+03  0.00000000000E+00 0.  1.
          5    1    3    3  502    0  0.44387742292E+02  0.59334515097E+02 -0.12627970858E+03  0.14649065208E+03  0.47000000000E+01 0. -1.
         11    1    6    6    0    0  0.30033556789E+02 -0.19263418021E+02 -0.19641852115E+03  0.19963298640E+03  0.00000000000E+00 0. -1.
        -12    1    6    6    0    0  0.16132353624E+02 -0.27463898738E+02 -0.13185411768E+02  0.34472795808E+02  0.00000000000E+00 0.  1.
         -5    1    5    5    0  503 -0.47580358338E+02 -0.24908530208E+02 -0.10051053687E+02  0.54840122692E+02  0.47000000000E+01 0.  1.
<mgrwt>
<rscale>  2 0.18782691E+03</rscale>
<asrwt>0</asrwt>
<pdfrwt beam="1">  1       21 0.75816024E-02 0.18786023E+03</pdfrwt>
<pdfrwt beam="2">  1       21 0.13187124E+00 0.18786023E+03</pdfrwt>
<totfact> 0.55064123E+04</totfact>
</mgrwt>
</event>
<event>
12    1  0.1473662E-001  0.1831488E+03  0.7546771E-02  0.1165662E+00
         21   -1    0    0  504  503  0.00000000000E+00  0.00000000000E+00  0.24898407846E+03  0.24898407846E+03  0.00000000000E+00 0.  1.
         21   -1    0    0  502  504 -0.00000000000E+00 -0.00000000000E+00 -0.22341481891E+03  0.22341481891E+03  0.00000000000E+00 0.  1.
          6    2    1    2  502    0  0.47262885012E+02 -0.28516879572E+02  0.16390210511E+03  0.24577909936E+03  0.17463239362E+03 0.  0.
         24    2    3    3    0    0  0.71570286255E+02 -0.39818456668E+02  0.18062509197E+03  0.21383659336E+03  0.79955296544E+02 0.  0.
         -6    2    1    2    0  503 -0.47262885012E+02  0.28516879572E+02 -0.13833284557E+03  0.22661979801E+03  0.17080270480E+03 0.  0.
        -24    2    5    5    0    0 -0.15858426444E+02  0.72978545913E+02 -0.13171142841E+03  0.17158332867E+03  0.80719145509E+02 0.  0.
          4    1    4    4  501    0  0.40683279717E+02  0.13760768833E+02  0.34248025528E+02  0.54931004542E+02  0.00000000000E+00 0. -1.
         -3    1    4    4    0  501  0.30887006538E+02 -0.53579225501E+02  0.14637706644E+03  0.15890558882E+03  0.00000000000E+00 0.  1.
          5    1    3    3  502    0 -0.24307401243E+02  0.11301577096E+02 -0.16722986856E+02  0.31942505998E+02  0.47000000000E+01 0. -1.
         13    1    6    6    0    0 -0.36298177671E+02  0.11148844270E+02 -0.21678520399E+02  0.43724280182E+02  0.00000000000E+00 0. -1.
        -14    1    6    6    0    0  0.20439751226E+02  0.61829701643E+02 -0.11003290801E+03  0.12785904849E+03  0.00000000000E+00 0.  1.
         -5    1    5    5    0  503 -0.31404458568E+02 -0.44461666341E+02 -0.66214171570E+01  0.55036469336E+02  0.47000000000E+01 0.  1.
<mgrwt>
<rscale>  2 0.18222989E+03</rscale>
<asrwt>0</asrwt>
<pdfrwt beam="1">  1       21 0.38305243E-01 0.18314875E+03</pdfrwt>
<pdfrwt beam="2">  1       21 0.34371511E-01 0.18314875E+03</pdfrwt>
<totfact> 0.53844879E+04</totfact>
</mgrwt>
</event>
<event>
12    1  0.1473662E-001  0.1759434E+03  0.7546771E-02  0.1172478E+00
         21   -1    0    0  504  503  0.00000000000E+00  0.00000000000E+00  0.50391983067E+03  0.50391983067E+03  0.00000000000E+00 0.  1.
         21   -1    0    0  502  504 -0.00000000000E+00 -0.00000000000E+00 -0.75460402137E+02  0.75460402137E+02  0.00000000000E+00 0.  1.
          6    2    1    2  502    0 -0.11341638844E+02 -0.28059097153E+02  0.83787280197E+02  0.19239834715E+03  0.17053114073E+03 0.  0.
         24    2    3    3    0    0 -0.11109889388E+02 -0.74775778507E+02  0.19092671234E+02  0.11246096883E+03  0.81043770405E+02 0.  0.
         -6    2    1    2    0  503  0.11341638844E+02  0.28059097153E+02  0.34467214833E+03  0.38698188565E+03  0.17332092857E+03 0.  0.
        -24    2    5    5    0    0 -0.13479683543E+02  0.73243892004E+02  0.29711811918E+03  0.31668793556E+03  0.80409590220E+02 0.  0.
          2    1    4    4  501    0 -0.39983411061E+02 -0.65656944693E+02  0.26457559715E+02  0.81298893059E+02  0.00000000000E+00 0. -1.
         -1    1    4    4    0  501  0.28873521673E+02 -0.91188338140E+01 -0.73648884807E+01  0.31162075770E+02  0.00000000000E+00 0.  1.
          5    1    3    3  502    0 -0.23174945612E+00  0.46716681354E+02  0.64694608963E+02  0.79937378325E+02  0.47000000000E+01 0. -1.
         13    1    6    6    0    0 -0.60225496340E+01 -0.21152088422E+01 -0.30788056744E+01  0.70869074300E+01  0.00000000000E+00 0. -1.
        -14    1    6    6    0    0 -0.74571339095E+01  0.75359100846E+02  0.30019692486E+03  0.30960102813E+03  0.00000000000E+00 0.  1.
         -5    1    5    5    0  503  0.24821322387E+02 -0.45184794851E+02  0.47554029148E+02  0.70293950088E+02  0.47000000000E+01 0.  1.
<mgrwt>
<rscale>  2 0.17525248E+03</rscale>
<asrwt>0</asrwt>
<pdfrwt beam="1">  1       21 0.77526126E-01 0.17594343E+03</pdfrwt>
<pdfrwt beam="2">  1       21 0.11609293E-01 0.17594343E+03</pdfrwt>
<totfact> 0.92531900E+04</totfact>
</mgrwt>
</event>
<event>
12    1  0.1473662E-001  0.2140162E+03  0.7546771E-02  0.1139397E+00
         21   -1    0    0  504  503  0.00000000000E+00  0.00000000000E+00  0.26503421402E+03  0.26503421402E+03  0.00000000000E+00 0. -1.
         21   -1    0    0  502  504 -0.00000000000E+00 -0.00000000000E+00 -0.78798801336E+03  0.78798801336E+03  0.00000000000E+00 0.  1.
          6    2    1    2  502    0  0.75194589658E+02 -0.10122803534E+03 -0.72752394645E+03  0.75696163470E+03  0.16672876866E+03 0.  0.
         24    2    3    3    0    0  0.10377395238E+03 -0.11675241801E+03 -0.59802865470E+03  0.62336183299E+03  0.80879803958E+02 0.  0.
         -6    2    1    2    0  503 -0.75194589658E+02  0.10122803534E+03  0.20457014711E+03  0.29606059268E+03  0.17292075641E+03 0.  0.
        -24    2    5    5    0    0 -0.79570502453E+02  0.30275420642E+01  0.12856893495E+03  0.17171928923E+03  0.81344406015E+02 0.  0.
          2    1    4    4  501    0  0.50789442024E+01 -0.52323773557E+02 -0.11986432292E+03  0.13088555635E+03  0.00000000000E+00 0. -1.
         -1    1    4    4    0  501  0.98695008179E+02 -0.64428644453E+02 -0.47816433178E+03  0.49247627664E+03  0.00000000000E+00 0.  1.
          5    1    3    3  502    0 -0.28579362724E+02  0.15524382668E+02 -0.12949529175E+03  0.13359980171E+03  0.47000000000E+01 0. -1.
         11    1    6    6    0    0 -0.41254279162E+01 -0.23368520067E+02  0.45307763827E+01  0.24158535143E+02  0.00000000000E+00 0. -1.
        -12    1    6    6    0    0 -0.75445074537E+02  0.26396062131E+02  0.12403815856E+03  0.14756075409E+03  0.00000000000E+00 0.  1.
         -5    1    5    5    0  503  0.43759127954E+01  0.98200493278E+02  0.76001212161E+02  0.12434130345E+03  0.47000000000E+01 0.  1.
<mgrwt>
<rscale>  2 0.21276242E+03</rscale>
<asrwt>0</asrwt>
<pdfrwt beam="1">  1       21 0.40774495E-01 0.21401619E+03</pdfrwt>
<pdfrwt beam="2">  1       21 0.12122892E+00 0.21401619E+03</pdfrwt>
<totfact> 0.29296158E+03</totfact>
</mgrwt>
</event>
<event>
12    1  0.1473662E-001  0.1852343E+03  0.7546771E-02  0.1163020E+00
         21   -1    0    0  504  503  0.00000000000E+00  0.00000000000E+00  0.51713574114E+03  0.51713574114E+03  0.00000000000E+00 0.  1.
         21   -1    0    0  502  504 -0.00000000000E+00 -0.00000000000E+00 -0.82026290087E+02  0.82026290087E+02  0.00000000000E+00 0. -1.
          6    2    1    2  502    0  0.13566793667E+02 -0.64195023014E+02  0.35010727297E+03  0.39608942577E+03  0.17322433937E+03 0.  0.
         24    2    3    3    0    0 -0.26829315061E+02 -0.19779649701E+01  0.28550815847E+03  0.29761128857E+03  0.79585463740E+02 0.  0.
         -6    2    1    2    0  503 -0.13566793667E+02  0.64195023014E+02  0.85002178080E+02  0.20307260545E+03  0.17236024466E+03 0.  0.
        -24    2    5    5    0    0 -0.69231818757E+02  0.45399156793E+02  0.24287752409E+02  0.11845457493E+03  0.81163188939E+02 0.  0.
          4    1    4    4  501    0  0.13325927916E+02  0.70932447378E+01  0.80358604761E+01  0.17101740535E+02  0.00000000000E+00 0. -1.
         -3    1    4    4    0  501 -0.40155242977E+02 -0.90712097078E+01  0.27747229800E+03  0.28050954804E+03  0.00000000000E+00 0.  1.
          5    1    3    3  502    0  0.40396108728E+02 -0.62217058044E+02  0.64599114498E+02  0.98478137197E+02  0.47000000000E+01 0. -1.
         11    1    6    6    0    0 -0.22454111419E+02  0.45669078905E+02 -0.19385578110E+02  0.54457805008E+02  0.00000000000E+00 0. -1.
        -12    1    6    6    0    0 -0.46777707339E+02 -0.26992211174E+00  0.43673330520E+02  0.63996769922E+02  0.00000000000E+00 0.  1.
         -5    1    5    5    0  503  0.55665025091E+02  0.18795866221E+02  0.60714425670E+02  0.84618030524E+02  0.47000000000E+01 0.  1.
<mgrwt>
<rscale>  2 0.18503197E+03</rscale>
<asrwt>0</asrwt>
<pdfrwt beam="1">  1       21 0.79559343E-01 0.18523426E+03</pdfrwt>
<pdfrwt beam="2">  1       21 0.12619430E-01 0.18523426E+03</pdfrwt>
<totfact> 0.74910344E+04</totfact>
</mgrwt>
</event>
<event>
12    1  0.1473662E-001  0.2504749E+03  0.7546771E-02  0.1113503E+00
         21   -1    0    0  504  503  0.00000000000E+00  0.00000000000E+00  0.12012723102E+03  0.12012723102E+03  0.00000000000E+00 0. -1.
         21   -1    0    0  502  504 -0.00000000000E+00 -0.00000000000E+00 -0.67833356125E+03  0.67833356125E+03  0.00000000000E+00 0.  1.
          6    2    1    2  502    0  0.17466585713E+03  0.40736537401E+02 -0.47589935923E+03  0.53778980720E+03  0.17484292804E+03 0.  0.
         24    2    3    3    0    0  0.10869172184E+03  0.86242933609E+02 -0.38261140310E+03  0.41471198067E+03  0.79641742433E+02 0.  0.
         -6    2    1    2    0  503 -0.17466585713E+03 -0.40736537401E+02 -0.82306971002E+02  0.26067098507E+03  0.17031528955E+03 0.  0.
        -24    2    5    5    0    0 -0.56606378904E+02 -0.81747682262E+01 -0.95755546593E+02  0.13737758137E+03  0.80202033584E+02 0.  0.
          2    1    4    4  501    0  0.29278599945E+02  0.42626796161E+02 -0.58058860508E+02  0.77750314785E+02  0.00000000000E+00 0. -1.
         -1    1    4    4    0  501  0.79413121890E+02  0.43616137448E+02 -0.32455254259E+03  0.33696166589E+03  0.00000000000E+00 0.  1.
          5    1    3    3  502    0  0.65974135295E+02 -0.45506396208E+02 -0.93287956132E+02  0.12307782653E+03  0.47000000000E+01 0. -1.
         13    1    6    6    0    0 -0.31620803529E+01 -0.27634905268E+02 -0.22161839466E+01  0.27903372782E+02  0.00000000000E+00 0. -1.
        -14    1    6    6    0    0 -0.53444298552E+02  0.19460137041E+02 -0.93539362646E+02  0.10947420859E+03  0.00000000000E+00 0.  1.
         -5    1    5    5    0  503 -0.11805947823E+03 -0.32561769175E+02  0.13448575591E+02  0.12329340370E+03  0.47000000000E+01 0.  1.
<mgrwt>
<rscale>  2 0.24968637E+03</rscale>
<asrwt>0</asrwt>
<pdfrwt beam="1">  1       21 0.18481112E-01 0.25047490E+03</pdfrwt>
<pdfrwt beam="2">  1       21 0.10435901E+00 0.25047490E+03</pdfrwt>
<totfact> 0.19180637E+04</totfact>
</mgrwt>
</event>
<event>
12    1  0.1473662E-001  0.1792224E+03  0.7546771E-02  0.1169013E+00
         21   -1    0    0  504  503  0.00000000000E+00  0.00000000000E+00  0.10598051329E+03  0.10598051329E+03  0.00000000000E+00 0. -1.
         21   -1    0    0  502  504 -0.00000000000E+00 -0.00000000000E+00 -0.30046552122E+03  0.30046552122E+03  0.00000000000E+00 0. -1.
          6    2    1    2  502    0  0.29641937584E+02  0.30197678690E+02 -0.10624413230E+03  0.20834702604E+03  0.17415545742E+03 0.  0.
         24    2    3    3    0    0  0.20740162918E+02 -0.68852649379E+01  0.12101808739E+02  0.83919384172E+02  0.80115217243E+02 0.  0.
         -6    2    1    2    0  503 -0.29641937584E+02 -0.30197678690E+02 -0.88240875626E+02  0.19809900846E+03  0.17223884800E+03 0.  0.
        -24    2    5    5    0    0 -0.25790723795E+02 -0.76380677429E+02 -0.98896680916E+02  0.15031472855E+03  0.79465683184E+02 0.  0.
          2    1    4    4  501    0  0.37143710198E+01 -0.44134515636E+01  0.45758381309E+02  0.46120543869E+02  0.00000000000E+00 0. -1.
         -1    1    4    4    0  501  0.17025791898E+02 -0.24718133742E+01 -0.33656572570E+02  0.37798840303E+02  0.00000000000E+00 0.  1.
          5    1    3    3  502    0  0.89017746662E+01  0.37082943628E+02 -0.11834594104E+03  0.12442764187E+03  0.47000000000E+01 0. -1.
         11    1    6    6    0    0  0.21879200068E+02 -0.46810436954E+02 -0.70590719055E+02  0.87481232388E+02  0.00000000000E+00 0. -1.
        -12    1    6    6    0    0 -0.47669923863E+02 -0.29570240475E+02 -0.28305961860E+02  0.62833496159E+02  0.00000000000E+00 0.  1.
         -5    1    5    5    0  503 -0.38512137887E+01  0.46182998739E+02  0.10655805289E+02  0.47784279910E+02  0.47000000000E+01 0.  1.
<mgrwt>
<rscale>  2 0.17875511E+03</rscale>
<asrwt>0</asrwt>
<pdfrwt beam="1">  1       21 0.16304694E-01 0.17922240E+03</pdfrwt>
<pdfrwt beam="2">  1       21 0.46225465E-01 0.17922240E+03</pdfrwt>
<totfact> 0.15168810E+05</totfact>
</mgrwt>
</event>
<event>
12    1  0.1473662E-001  0.3670712E+03  0.7546771E-02  0.1055842E+00
         21   -1    0    0  504  503  0.00000000000E+00  0.00000000000E+00  0.21553637497E+04  0.21553637497E+04  0.00000000000E+00 0.  1.
         21   -1    0    0  502  504 -0.00000000000E+00 -0.00000000000E+00 -0.89521781525E+02  0.89521781525E+02  0.00000000000E+00 0. -1.
          6    2    1    2  502    0  0.28162356951E+03 -0.15902115909E+03  0.16501536763E+04  0.16904876239E+04  0.17361361497E+03 0.  0.
         24    2    3    3    0    0  0.11610727509E+03 -0.11757146998E+03  0.10743074973E+04  0.10898757423E+04  0.79928624933E+02 0.  0.
         -6    2    1    2    0  503 -0.28162356951E+03  0.15902115909E+03  0.41568829191E+03  0.55439790734E+03  0.17309165111E+03 0.  0.
        -24    2    5    5    0    0 -0.23801006233E+03  0.15724152565E+03  0.26894715002E+03  0.40123016326E+03  0.85319325135E+02 0.  0.
          2    1    4    4  501    0  0.10005217364E+02 -0.11074540934E+01  0.27528164725E+03  0.27546563514E+03  0.00000000000E+00 0. -1.
         -1    1    4    4    0  501  0.10610205772E+03 -0.11646401588E+03  0.79902585002E+03  0.81441010716E+03  0.00000000000E+00 0.  1.
          5    1    3    3  502    0  0.16551629442E+03 -0.41449689108E+02  0.57584617901E+03  0.60061188161E+03  0.47000000000E+01 0. -1.
         13    1    6    6    0    0 -0.84899468563E+02  0.44219872266E+02  0.40604640084E+02  0.10398102549E+03  0.00000000000E+00 0. -1.
        -14    1    6    6    0    0 -0.15311059377E+03  0.11302165339E+03  0.22834250994E+03  0.29724913777E+03  0.00000000000E+00 0.  1.
         -5    1    5    5    0  503 -0.43613507182E+02  0.17796334338E+01  0.14674114189E+03  0.15316774408E+03  0.47000000000E+01 0.  1.
<mgrwt>
<rscale>  2 0.36700952E+03</rscale>
<asrwt>0</asrwt>
<pdfrwt beam="1">  1       21 0.33159438E+00 0.36707118E+03</pdfrwt>
<pdfrwt beam="2">  1       21 0.13772583E-01 0.36707118E+03</pdfrwt>
<totfact> 0.86211864E+02</totfact>
</mgrwt>
</event>
<event>
12    1  0.1473662E-001  0.2448293E+03  0.7546771E-02  0.1117309E+00
         21   -1    0    0  504  503  0.00000000000E+00  0.00000000000E+00  0.10259212421E+03  0.10259212421E+03  0.00000000000E+00 0.  1.
         21   -1    0    0  502  504 -0.00000000000E+00 -0.00000000000E+00 -0.59161777765E+03  0.59161777765E+03  0.00000000000E+00 0.  1.
          6    2    1    2  502    0 -0.15962918246E+03  0.66681290174E+02 -0.30193970934E+03  0.38608246654E+03  0.16722503562E+03 0.  0.
         24    2    3    3    0    0 -0.18364854503E+03  0.57719788792E+02 -0.23415387624E+03  0.31345845223E+03  0.79811035605E+02 0.  0.
         -6    2    1    2    0  503  0.15962918246E+03 -0.66681290174E+02 -0.18708594410E+03  0.30812743532E+03  0.17324403472E+03 0.  0.
        -24    2    5    5    0    0  0.86143477453E+02  0.36074136196E+02 -0.10042687265E+03  0.15486063802E+03  0.71932040487E+02 0.  0.
          4    1    4    4  501    0 -0.59540933091E+02  0.42489030122E+02 -0.42424606113E+02  0.84559373211E+02  0.00000000000E+00 0. -1.
         -3    1    4    4    0  501 -0.12410761194E+03  0.15230758671E+02 -0.19172927012E+03  0.22889907901E+03  0.00000000000E+00 0.  1.
          5    1    3    3  502    0  0.24019362572E+02  0.89615013814E+01 -0.67785833103E+02  0.72624014312E+02  0.47000000000E+01 0. -1.
         13    1    6    6    0    0  0.23489871912E+02 -0.17816752142E+02 -0.50010841395E+02  0.58054241847E+02  0.00000000000E+00 0. -1.
        -14    1    6    6    0    0  0.62653605541E+02  0.53890888338E+02 -0.50416031254E+02  0.96806396176E+02  0.00000000000E+00 0.  1.
         -5    1    5    5    0  503  0.73485705006E+02 -0.10275542637E+03 -0.86659071450E+02  0.15326679730E+03  0.47000000000E+01 0.  1.
<mgrwt>
<rscale>  2 0.24376698E+03</rscale>
<asrwt>0</asrwt>
<pdfrwt beam="1">  1       21 0.15783404E-01 0.24482926E+03</pdfrwt>
<pdfrwt beam="2">  1       21 0.91018119E-01 0.24482926E+03</pdfrwt>
<totfact> 0.35643341E+04</totfact>
</mgrwt>
</event>
<event>
12    1  0.1473662E-001  0.1749775E+03  0.7546771E-02  0.1172880E+00
         21   -1    0    0  504  503  0.00000000000E+00  0.00000000000E+00  0.24139625924E+03  0.24139625924E+03  0.00000000000E+00 0.  1.
         21   -1    0    0  502  504 -0.00000000000E+00 -0.00000000000E+00 -0.14880217345E+03  0.14880217345E+03  0.00000000000E+00 0.  1.
          6    2    1    2  502    0 -0.86409002095E+01  0.20276402318E+02  0.12182107084E+03  0.21279680863E+03  0.17307891500E+03 0.  0.
         24    2    3    3    0    0  0.44285772263E+02 -0.16691743830E+02  0.25903894692E+02  0.97081333570E+02  0.80708919151E+02 0.  0.
         -6    2    1    2    0  503  0.86409002095E+01 -0.20276402318E+02 -0.29226985050E+02  0.17740162406E+03  0.17358376052E+03 0.  0.
        -24    2    5    5    0    0  0.61125856860E+02 -0.24005749986E+02 -0.30949957181E+02  0.12454675350E+03  0.10119954322E+03 0.  0.
          4    1    4    4  501    0  0.57049285983E+02  0.45094150277E+01 -0.50519314842E+01  0.57449785611E+02  0.00000000000E+00 0. -1.
         -3    1    4    4    0  501 -0.12763513719E+02 -0.21201158858E+02  0.30955826176E+02  0.39631547959E+02  0.00000000000E+00 0.  1.
          5    1    3    3  502    0 -0.52926672473E+02  0.36968146149E+02  0.95917176146E+02  0.11571547506E+03  0.47000000000E+01 0. -1.
         11    1    6    6    0    0 -0.12538907321E+02 -0.33104243405E+02  0.13665222396E+02  0.37945400662E+02  0.00000000000E+00 0. -1.
        -12    1    6    6    0    0  0.73664764181E+02  0.90984934195E+01 -0.44615179577E+02  0.86601352837E+02  0.00000000000E+00 0.  1.
         -5    1    5    5    0  503 -0.52484956650E+02  0.37293476672E+01  0.17229721311E+01  0.52854870557E+02  0.47000000000E+01 0.  1.
<mgrwt>
<rscale>  2 0.17485215E+03</rscale>
<asrwt>0</asrwt>
<pdfrwt beam="1">  1       21 0.37137886E-01 0.17497748E+03</pdfrwt>
<pdfrwt beam="2">  1       21 0.22892642E-01 0.17497748E+03</pdfrwt>
<totfact> 0.12598612E+05</totfact>
</mgrwt>
</event>
<event>
12    1  0.1473662E-001  0.2034291E+03  0.7546771E-02  0.1148019E+00
         21   -1    0    0  504  503  0.00000000000E+00  0.00000000000E+00  0.28066567230E+02  0.28066567230E+02  0.00000000000E+00 0. -1.
         21   -1    0    0  502  504 -0.00000000000E+00 -0.00000000000E+00 -0.14357506236E+04  0.14357506236E+04  0.00000000000E+00 0. -1.
          6    2    1    2  502    0 -0.16745556459E+02  0.94981707252E+02 -0.70814441556E+03  0.73529875735E+03  0.17289826749E+03 0.  0.
         24    2    3    3    0    0  0.52616453850E+02  0.48996357781E+02 -0.29851178167E+03  0.31727157451E+03  0.79892639899E+02 0.  0.
         -6    2    1    2    0  503  0.16745556459E+02 -0.94981707252E+02 -0.69953964078E+03  0.72851843344E+03  0.17911298243E+03 0.  0.
        -24    2    5    5    0    0  0.59126210094E+02 -0.10480838258E+03 -0.62809051991E+03  0.64473448377E+03  0.81878859181E+02 0.  0.
          2    1    4    4  501    0 -0.54118419316E+01  0.48454018038E+02 -0.15438867034E+03  0.16190411182E+03  0.00000000000E+00 0. -1.
         -1    1    4    4    0  501  0.58028295782E+02  0.54233974328E+00 -0.14412311133E+03  0.15536746269E+03  0.00000000000E+00 0.  1.
          5    1    3    3  502    0 -0.69362010309E+02  0.45985349471E+02 -0.40963263389E+03  0.41802718284E+03  0.47000000000E+01 0. -1.
         11    1    6    6    0    0  0.29777883181E+02 -0.11114763721E+03 -0.47623141510E+03  0.48993558792E+03  0.00000000000E+00 0. -1.
        -12    1    6    6    0    0  0.29348326913E+02  0.63392546286E+01 -0.15185910481E+03  0.15479889585E+03  0.00000000000E+00 0.  1.
         -5    1    5    5    0  503 -0.42380653635E+02  0.98266753294E+01 -0.71449120868E+02  0.83783949676E+02  0.47000000000E+01 0.  1.
<mgrwt>
<rscale>  2 0.20205271E+03</rscale>
<asrwt>0</asrwt>
<pdfrwt beam="1">  1       21 0.43179340E-02 0.20342910E+03</pdfrwt>
<pdfrwt beam="2">  1       21 0.22088468E+00 0.20342910E+03</pdfrwt>
<totfact> 0.33965219E+04</totfact>
</mgrwt>
</event>
<event>
12    1  0.1473662E-001  0.2860342E+03  0.7546771E-02  0.1092542E+00
         21   -1    0    0  504  503  0.00000000000E+00  0.00000000000E+00  0.17389749378E+04  0.17389749378E+04  0.00000000000E+00 0.  1.
         21   -1    0    0  502  504 -0.00000000000E+00 -0.00000000000E+00 -0.10666579564E+03  0.10666579564E+03  0.00000000000E+00 0. -1.
          6    2    1    2  502    0 -0.19638131852E+03  0.11503354904E+03  0.12599460019E+03  0.31255432356E+03  0.17325480148E+03 0.  0.
         24    2    3    3    0    0 -0.98192969400E+02  0.66886121600E+02  0.14479118886E+03  0.20149340147E+03  0.74293269964E+02 0.  0.
         -6    2    1    2    0  503  0.19638131852E+03 -0.11503354904E+03  0.15063145420E+04  0.15330864099E+04  0.17196540677E+03 0.  0.
        -24    2    5    5    0    0  0.87077530220E+02 -0.11394424345E+03  0.11145564550E+04  0.11263371094E+04  0.76376735787E+02 0.  0.
          2    1    4    4  501    0 -0.35554275193E+02 -0.11842675499E+02  0.24950221841E+02  0.45020762070E+02  0.00000000000E+00 0. -1.
         -1    1    4    4    0  501 -0.62638694207E+02  0.78728797099E+02  0.11984096702E+03  0.15647263940E+03  0.00000000000E+00 0.  1.
          5    1    3    3  502    0 -0.98188349117E+02  0.48147427437E+02 -0.18796588672E+02  0.11106092210E+03  0.47000000000E+01 0. -1.
         13    1    6    6    0    0  0.89368582887E+02 -0.11874313822E+03  0.93797633195E+03  0.94967693232E+03  0.00000000000E+00 0. -1.
        -14    1    6    6    0    0 -0.22910526667E+01  0.47988947773E+01  0.17658012303E+03  0.17666017707E+03  0.00000000000E+00 0.  1.
         -5    1    5    5    0  503  0.10930378830E+03 -0.10893055907E+01  0.39175808703E+03  0.40674930052E+03  0.47000000000E+01 0.  1.
<mgrwt>
<rscale>  2 0.28583922E+03</rscale>
<asrwt>0</asrwt>
<pdfrwt beam="1">  1       21 0.26753459E+00 0.28603420E+03</pdfrwt>
<pdfrwt beam="2">  1       21 0.16410124E-01 0.28603420E+03</pdfrwt>
<totfact> 0.15933957E+03</totfact>
</mgrwt>
</event>
<event>
12    1  0.1473662E-001  0.2806597E+03  0.7546771E-02  0.1095374E+00
         21   -1    0    0  504  503  0.00000000000E+00  0.00000000000E+00  0.18473080635E+03  0.18473080635E+03  0.00000000000E+00 0. -1.
         21   -1    0    0  502  504 -0.00000000000E+00 -0.00000000000E+00 -0.42590662143E+03  0.42590662143E+03  0.00000000000E+00 0. -1.
          6    2    1    2  502    0  0.17038254955E+03  0.14096641873E+03 -0.12121174862E+03  0.30541414325E+03  0.17228977478E+03 0.  0.
         24    2    3    3    0    0  0.12543997075E+02  0.69930908228E+02 -0.32360089413E+02  0.11079718679E+03  0.78620337223E+02 0.  0.
         -6    2    1    2    0  503 -0.17038254955E+03 -0.14096641873E+03 -0.11996406646E+03  0.30522328453E+03  0.17282399074E+03 0.  0.
        -24    2    5    5    0    0 -0.13610155165E+03 -0.97864277456E+02 -0.15011990344E+02  0.18660621290E+03  0.80594476709E+02 0.  0.
          2    1    4    4  501    0  0.13009519467E+02  0.87412800708E+02 -0.28804528303E+02  0.92951310777E+02  0.00000000000E+00 0. -1.
         -1    1    4    4    0  501 -0.46552239243E+00 -0.17481892480E+02 -0.35555611106E+01  0.17845876011E+02  0.00000000000E+00 0.  1.
          5    1    3    3  502    0  0.15783855247E+03  0.71035510502E+02 -0.88851659204E+02  0.19461695646E+03  0.47000000000E+01 0. -1.
         13    1    6    6    0    0 -0.41876850368E+02 -0.19061076589E+02 -0.40336691888E+02  0.61188593299E+02  0.00000000000E+00 0. -1.
        -14    1    6    6    0    0 -0.94224701286E+02 -0.78803200867E+02  0.25324701544E+02  0.12541761961E+03  0.00000000000E+00 0.  1.
         -5    1    5    5    0  503 -0.34280997894E+02 -0.43102141273E+02 -0.10495207612E+03  0.11861707162E+03  0.47000000000E+01 0.  1.
<mgrwt>
<rscale>  2 0.28057752E+03</rscale>
<asrwt>0</asrwt>
<pdfrwt beam="1">  1       21 0.28420124E-01 0.28065972E+03</pdfrwt>
<pdfrwt beam="2">  1       21 0.65524095E-01 0.28065972E+03</pdfrwt>
<totfact> 0.24271749E+04</totfact>
</mgrwt>
</event>
<event>
12    1  0.1473662E-001  0.1854948E+03  0.7546771E-02  0.1164421E+00
         21   -1    0    0  504  503  0.00000000000E+00  0.00000000000E+00  0.17840071820E+03  0.17840071820E+03  0.00000000000E+00 0.  1.
         21   -1    0    0  502  504 -0.00000000000E+00 -0.00000000000E+00 -0.33871646792E+03  0.33871646792E+03  0.00000000000E+00 0. -1.
          6    2    1    2  502    0  0.20302021614E+02 -0.35272699381E+02 -0.25341945700E+03  0.30956807415E+03  0.17307407647E+03 0.  0.
         24    2    3    3    0    0  0.16355385966E+02 -0.54346862475E+02 -0.62605253163E+02  0.11770471127E+03  0.81938398943E+02 0.  0.
         -6    2    1    2    0  503 -0.20302021614E+02  0.35272699381E+02  0.93103707275E+02  0.20754911197E+03  0.18097513135E+03 0.  0.
        -24    2    5    5    0    0  0.48879448993E+02 -0.22135082969E+02  0.38439102130E+02  0.10223036527E+03  0.78066129530E+02 0.  0.
          2    1    4    4  501    0 -0.25050710337E+02 -0.69800769290E+01 -0.45665326774E+02  0.52550752913E+02  0.00000000000E+00 0. -1.
         -1    1    4    4    0  501  0.41406096303E+02 -0.47366785546E+02 -0.16939926389E+02  0.65153958361E+02  0.00000000000E+00 0.  1.
          5    1    3    3  502    0  0.39466356479E+01  0.19074163094E+02 -0.19081420383E+03  0.19186336288E+03  0.47000000000E+01 0. -1.
         13    1    6    6    0    0  0.40510654232E+02  0.19131520166E+02 -0.60818279217E+00  0.44805111946E+02  0.00000000000E+00 0. -1.
        -14    1    6    6    0    0  0.83687947605E+01 -0.41266603136E+02  0.39047284922E+02  0.57425253329E+02  0.00000000000E+00 0.  1.
         -5    1    5    5    0  503 -0.69181470607E+02  0.57407782350E+02  0.54664605146E+02  0.10531874670E+03  0.47000000000E+01 0.  1.
<mgrwt>
<rscale>  2 0.18353910E+03</rscale>
<asrwt>0</asrwt>
<pdfrwt beam="1">  1       21 0.27446265E-01 0.18549483E+03</pdfrwt>
<pdfrwt beam="2">  1       21 0.52110225E-01 0.18549483E+03</pdfrwt>
<totfact> 0.44407841E+04</totfact>
</mgrwt>
</event>
<event>
12    1  0.1473662E-001  0.2681103E+03  0.7546771E-02  0.1102487E+00
         21   -1    0    0  504  503  0.00000000000E+00  0.00000000000E+00  0.98845869719E+03  0.98845869719E+03  0.00000000000E+00 0.  1.
         21   -1    0    0  502  504 -0.00000000000E+00 -0.00000000000E+00 -0.74082115567E+02  0.74082115567E+02  0.00000000000E+00 0.  1.
          6    2    1    2  502    0 -0.12315136475E+03 -0.16240423427E+03  0.37872411861E+03  0.46353607954E+03  0.17289402846E+03 0.  0.
         24    2    3    3    0    0 -0.47098635582E+02 -0.63549260412E+02  0.76887849340E+02  0.13691160570E+03  0.81094120786E+02 0.  0.
         -6    2    1    2    0  503  0.12315136475E+03  0.16240423427E+03  0.53565246302E+03  0.59900473322E+03  0.17418873480E+03 0.  0.
        -24    2    5    5    0    0  0.11988070181E+03  0.65404142291E+02  0.41732610642E+03  0.44589388531E+03  0.77531886114E+02 0.  0.
          2    1    4    4  501    0 -0.15174094167E+02 -0.25500702088E+01 -0.15401594614E+02  0.21770739732E+02  0.00000000000E+00 0. -1.
         -1    1    4    4    0  501 -0.31924541415E+02 -0.60999190203E+02  0.92289443954E+02  0.11514086597E+03  0.00000000000E+00 0.  1.
          5    1    3    3  502    0 -0.76052729167E+02 -0.98854973856E+02  0.30183626927E+03  0.32662447385E+03  0.47000000000E+01 0. -1.
         13    1    6    6    0    0 -0.38403269282E+01  0.22043662736E+02  0.33407254983E+02  0.40208405380E+02  0.00000000000E+00 0. -1.
        -14    1    6    6    0    0  0.12372102874E+03  0.43360479555E+02  0.38391885143E+03  0.40568547993E+03  0.00000000000E+00 0.  1.
         -5    1    5    5    0  503  0.32706629346E+01  0.97000091977E+02  0.11832635660E+03  0.15311084791E+03  0.47000000000E+01 0.  1.
<mgrwt>
<rscale>  2 0.26790017E+03</rscale>
<asrwt>0</asrwt>
<pdfrwt beam="1">  1       21 0.15207056E+00 0.26811026E+03</pdfrwt>
<pdfrwt beam="2">  1       21 0.11397249E-01 0.26811026E+03</pdfrwt>
<totfact> 0.17722867E+04</totfact>
</mgrwt>
</event>
<event>
12    1  0.1473662E-001  0.2335271E+03  0.7546771E-02  0.1124780E+00
         21   -1    0    0  504  503  0.00000000000E+00  0.00000000000E+00  0.59111227815E+03  0.59111227815E+03  0.00000000000E+00 0. -1.
         21   -1    0    0  502  504 -0.00000000000E+00 -0.00000000000E+00 -0.97261957934E+02  0.97261957934E+02  0.00000000000E+00 0. -1.
          6    2    1    2  502    0 -0.14486617265E+03 -0.58603232680E+02  0.16063400000E+03  0.28343990173E+03  0.17353486416E+03 0.  0.
         24    2    3    3    0    0 -0.65048871157E+02 -0.95035602828E+02  0.12642014520E+03  0.18914887845E+03  0.80821554431E+02 0.  0.
         -6    2    1    2    0  503  0.14486617265E+03  0.58603232680E+02  0.33321632022E+03  0.40493433435E+03  0.16887318384E+03 0.  0.
        -24    2    5    5    0    0  0.12695605036E+03  0.97415136032E+02  0.30210340652E+03  0.35185665806E+03  0.83241168536E+02 0.  0.
          2    1    4    4  501    0 -0.69188410157E+02 -0.31954470334E+02  0.56382363036E+02  0.94800290801E+02  0.00000000000E+00 0. -1.
         -1    1    4    4    0  501  0.41395389999E+01 -0.63081132493E+02  0.70037782169E+02  0.94348587647E+02  0.00000000000E+00 0.  1.
          5    1    3    3  502    0 -0.79817301492E+02  0.36432370147E+02  0.34213854796E+02  0.94291023284E+02  0.47000000000E+01 0. -1.
         13    1    6    6    0    0  0.41522953690E+02 -0.30266302525E+01  0.12006368587E+03  0.12707716096E+03  0.00000000000E+00 0. -1.
        -14    1    6    6    0    0  0.85433096668E+02  0.10044176628E+03  0.18203972065E+03  0.22477949710E+03  0.00000000000E+00 0.  1.
         -5    1    5    5    0  503  0.17910122291E+02 -0.38811903351E+02  0.31112913701E+02  0.53077676298E+02  0.47000000000E+01 0.  1.
<mgrwt>
<rscale>  2 0.23266154E+03</rscale>
<asrwt>0</asrwt>
<pdfrwt beam="1">  1       21 0.90940348E-01 0.23352708E+03</pdfrwt>
<pdfrwt beam="2">  1       21 0.14963379E-01 0.23352708E+03</pdfrwt>
<totfact> 0.39587069E+04</totfact>
</mgrwt>
</event>
<event>
12    1  0.1473662E-001  0.2064833E+03  0.7546771E-02  0.1144654E+00
         21   -1    0    0  504  503  0.00000000000E+00  0.00000000000E+00  0.57115880236E+03  0.57115880236E+03  0.00000000000E+00 0.  1.
         21   -1    0    0  502  504 -0.00000000000E+00 -0.00000000000E+00 -0.77819803532E+02  0.77819803532E+02  0.00000000000E+00 0. -1.
          6    2    1    2  502    0  0.17386623912E+02 -0.10417846194E+03  0.17709057995E+03  0.27202287583E+03  0.17742582913E+03 0.  0.
         24    2    3    3    0    0 -0.51667578240E+02 -0.68529086166E+02  0.65549137307E+02  0.13599734787E+03  0.82660842816E+02 0.  0.
         -6    2    1    2    0  503 -0.17386623912E+02  0.10417846194E+03  0.31624841888E+03  0.37695573007E+03  0.17586106266E+03 0.  0.
        -24    2    5    5    0    0  0.69696960382E+01  0.40843357289E+02  0.29029271722E+03  0.30415219820E+03  0.80758538259E+02 0.  0.
          4    1    4    4  501    0 -0.52026093791E+01 -0.36340905855E+02 -0.13242901111E+02  0.39026952386E+02  0.00000000000E+00 0. -1.
         -3    1    4    4    0  501 -0.46464968861E+02 -0.32188180312E+02  0.78792038418E+02  0.96970395488E+02  0.00000000000E+00 0.  1.
          5    1    3    3  502    0  0.69054202152E+02 -0.35649375778E+02  0.11154144264E+03  0.13602552795E+03  0.47000000000E+01 0. -1.
         13    1    6    6    0    0  0.33085610068E+01  0.31806956067E+02  0.30547922275E+02  0.44224479483E+02  0.00000000000E+00 0. -1.
        -14    1    6    6    0    0  0.36611350313E+01  0.90364012215E+01  0.25974479495E+03  0.25992771872E+03  0.00000000000E+00 0.  1.
         -5    1    5    5    0  503 -0.24356319950E+02  0.63335104656E+02  0.25955701659E+02  0.72803531864E+02  0.47000000000E+01 0.  1.
<mgrwt>
<rscale>  2 0.20614677E+03</rscale>
<asrwt>0</asrwt>
<pdfrwt beam="1">  1       21 0.87870582E-01 0.20648334E+03</pdfrwt>
<pdfrwt beam="2">  1       21 0.11972278E-01 0.20648334E+03</pdfrwt>
<totfact> 0.64999007E+04</totfact>
</mgrwt>
</event>
<event>
12    1  0.1473662E-001  0.2092326E+03  0.7546771E-02  0.1144239E+00
         21   -1    0    0  504  503  0.00000000000E+00  0.00000000000E+00  0.13451862675E+03  0.13451862675E+03  0.00000000000E+00 0. -1.
         21   -1    0    0  502  504 -0.00000000000E+00 -0.00000000000E+00 -0.48301175885E+03  0.48301175885E+03  0.00000000000E+00 0. -1.
          6    2    1    2  502    0 -0.82123434848E+02  0.55581714344E+02 -0.36181419820E+03  0.41795667322E+03  0.18424082379E+03 0.  0.
         24    2    3    3    0    0  0.27414765132E+02  0.20047185646E+01 -0.13193772922E+03  0.15769835401E+03  0.81887839272E+02 0.  0.
         -6    2    1    2    0  503  0.82123434848E+02 -0.55581714344E+02  0.13321066100E+02  0.19957371237E+03  0.17268071794E+03 0.  0.
        -24    2    5    5    0    0  0.14489063941E+02 -0.23742591344E+02 -0.52797969682E+02  0.99663979242E+02  0.79822550311E+02 0.  0.
          4    1    4    4  501    0  0.13656034104E+02  0.10349440622E+02  0.65017728500E+01  0.18326790194E+02  0.00000000000E+00 0. -1.
         -3    1    4    4    0  501  0.13758731028E+02 -0.83447220570E+01 -0.13843950207E+03  0.13937156381E+03  0.00000000000E+00 0.  1.
          5    1    3    3  502    0 -0.10953819998E+03  0.53576995779E+02 -0.22987646898E+03  0.26025831921E+03  0.47000000000E+01 0. -1.
         11    1    6    6    0    0  0.13442429400E+02  0.22580728213E+02  0.37629236895E+01  0.26547086272E+02  0.00000000000E+00 0. -1.
        -12    1    6    6    0    0  0.10466345406E+01 -0.46323319558E+02 -0.56560893371E+02  0.73116892971E+02  0.00000000000E+00 0.  1.
         -5    1    5    5    0  503  0.67634370907E+02 -0.31839123000E+02  0.66119035782E+02  0.99909733130E+02  0.47000000000E+01 0.  1.
<mgrwt>
<rscale>  2 0.20665951E+03</rscale>
<asrwt>0</asrwt>
<pdfrwt beam="1">  1       21 0.20695174E-01 0.20923257E+03</pdfrwt>
<pdfrwt beam="2">  1       21 0.74309500E-01 0.20923257E+03</pdfrwt>
<totfact> 0.34834961E+04</totfact>
</mgrwt>
</event>
<event>
12    1  0.1473662E-001  0.2087913E+03  0.7546771E-02  0.1142570E+00
         21   -1    0    0  504  503  0.00000000000E+00  0.00000000000E+00  0.49197633045E+02  0.49197633045E+02  0.00000000000E+00 0.  1.
         21   -1    0    0  502  504 -0.00000000000E+00 -0.00000000000E+00 -0.88630377328E+03  0.88630377328E+03  0.00000000000E+00 0.  1.
          6    2    1    2  502    0 -0.99479317062E+02 -0.60681178245E+02 -0.40206604322E+03  0.45304626827E+03  0.17324975660E+03 0.  0.
         24    2    3    3    0    0 -0.11292693645E+03 -0.88040023037E+02 -0.27979559829E+03  0.32694513204E+03  0.90022241172E+02 0.  0.
         -6    2    1    2    0  503  0.99479317062E+02  0.60681178245E+02 -0.43504009702E+03  0.48245513806E+03  0.17298767099E+03 0.  0.
        -24    2    5    5    0    0  0.85530268846E+02  0.11754771325E+02 -0.40811055885E+03  0.42469997149E+03  0.79763625790E+02 0.  0.
          4    1    4    4  501    0 -0.84061072696E+02 -0.87434042879E+01 -0.13137169917E+03  0.15620894470E+03  0.00000000000E+00 0. -1.
         -3    1    4    4    0  501 -0.28865863753E+02 -0.79296618749E+02 -0.14842389912E+03  0.17073618733E+03  0.00000000000E+00 0.  1.
          5    1    3    3  502    0  0.13447619387E+02  0.27358844791E+02 -0.12227044493E+03  0.12610113623E+03  0.47000000000E+01 0. -1.
         13    1    6    6    0    0  0.18221256854E+02 -0.32023320432E+02 -0.14521087669E+03  0.14981223569E+03  0.00000000000E+00 0. -1.
        -14    1    6    6    0    0  0.67309011992E+02  0.43778091757E+02 -0.26289968216E+03  0.27488773580E+03  0.00000000000E+00 0.  1.
         -5    1    5    5    0  503  0.13949048217E+02  0.48926406920E+02 -0.26929538168E+02  0.57755166576E+02  0.47000000000E+01 0.  1.
<mgrwt>
<rscale>  2 0.20873695E+03</rscale>
<asrwt>0</asrwt>
<pdfrwt beam="1">  1       21 0.75688672E-02 0.20879133E+03</pdfrwt>
<pdfrwt beam="2">  1       21 0.13635442E+00 0.20879133E+03</pdfrwt>
<totfact> 0.50159020E+04</totfact>
</mgrwt>
</event>
<event>
12    1  0.1473662E-001  0.1933792E+03  0.7546771E-02  0.1157049E+00
         21   -1    0    0  504  503  0.00000000000E+00  0.00000000000E+00  0.10320089542E+04  0.10320089542E+04  0.00000000000E+00 0.  1.
         21   -1    0    0  502  504 -0.00000000000E+00 -0.00000000000E+00 -0.11901328119E+03  0.11901328119E+03  0.00000000000E+00 0.  1.
          6    2    1    2  502    0 -0.15641984097E+02  0.84344790703E+02 -0.24750882638E+02  0.19495675481E+03  0.17331132297E+03 0.  0.
         24    2    3    3    0    0  0.14081446673E+02  0.97514879775E-01 -0.56913156269E+02  0.99890527024E+02  0.80874677020E+02 0.  0.
         -6    2    1    2    0  503  0.15641984097E+02 -0.84344790703E+02  0.93774655563E+03  0.95606548055E+03  0.16532962567E+03 0.  0.
        -24    2    5    5    0    0  0.13945237404E+02 -0.42882403898E+02  0.88067583034E+03  0.88534655696E+03  0.78836778000E+02 0.  0.
          2    1    4    4  501    0  0.25831312070E+02 -0.35264222895E+02 -0.38843458026E+02  0.58477656683E+02  0.00000000000E+00 0. -1.
         -1    1    4    4    0  501 -0.11749865397E+02  0.35361737775E+02 -0.18069698243E+02  0.41412870342E+02  0.00000000000E+00 0.  1.
          5    1    3    3  502    0 -0.29723430770E+02  0.84247275823E+02  0.32162273631E+02  0.95066227786E+02  0.47000000000E+01 0. -1.
         13    1    6    6    0    0 -0.66703561332E+01  0.20366121978E+02  0.32441101423E+03  0.32511809966E+03  0.00000000000E+00 0. -1.
        -14    1    6    6    0    0  0.20615593537E+02 -0.63248525876E+02  0.55626481612E+03  0.56022845730E+03  0.00000000000E+00 0.  1.
         -5    1    5    5    0  503  0.16967466935E+01 -0.41462386805E+02  0.57070725287E+02  0.70718923589E+02  0.47000000000E+01 0.  1.
<mgrwt>
<rscale>  2 0.19157419E+03</rscale>
<asrwt>0</asrwt>
<pdfrwt beam="1">  1       21 0.15877060E+00 0.19337924E+03</pdfrwt>
<pdfrwt beam="2">  1       21 0.18309736E-01 0.19337924E+03</pdfrwt>
<totfact> 0.69868805E+03</totfact>
</mgrwt>
</event>
<event>
12    1  0.1473662E-001  0.1958730E+03  0.7546771E-02  0.1153451E+00
         21   -1    0    0  504  503  0.00000000000E+00  0.00000000000E+00  0.26744735860E+03  0.26744735860E+03  0.00000000000E+00 0. -1.
         21   -1    0    0  502  504 -0.00000000000E+00 -0.00000000000E+00 -0.14675103700E+03  0.14675103700E+03  0.00000000000E+00 0.  1.
          6    2    1    2  502    0 -0.61357498964E+02  0.65148752239E+02  0.26406589492E+02  0.19681211070E+03  0.17328761165E+03 0.  0.
         24    2    3    3    0    0 -0.23195649233E+02  0.15420810534E+02  0.76216360282E+02  0.11661050082E+03  0.83745064249E+02 0.  0.
         -6    2    1    2    0  503  0.61357498964E+02 -0.65148752239E+02  0.94289732115E+02  0.21738628490E+03  0.17423300687E+03 0.  0.
        -24    2    5    5    0    0 -0.13498859663E+01  0.24199444614E+02  0.38522987196E+02  0.94718700576E+02  0.83067300332E+02 0.  0.
          2    1    4    4  501    0 -0.45275592074E+02 -0.17558827362E+02  0.41263769607E+02  0.63725115443E+02  0.00000000000E+00 0. -1.
         -1    1    4    4    0  501  0.22079942841E+02  0.32979637896E+02  0.34952590675E+02  0.52885385377E+02  0.00000000000E+00 0.  1.
          5    1    3    3  502    0 -0.38161849731E+02  0.49727941705E+02 -0.49809770790E+02  0.80201609879E+02  0.47000000000E+01 0. -1.
         13    1    6    6    0    0  0.38633974707E+02  0.18743771916E+02  0.69913581244E+01  0.43506230309E+02  0.00000000000E+00 0. -1.
        -14    1    6    6    0    0 -0.39983860673E+02  0.54556726986E+01  0.31531629072E+02  0.51212470267E+02  0.00000000000E+00 0.  1.
         -5    1    5    5    0  503  0.62707384931E+02 -0.89348196853E+02  0.55766744919E+02  0.12266758433E+03  0.47000000000E+01 0.  1.
<mgrwt>
<rscale>  2 0.19566257E+03</rscale>
<asrwt>0</asrwt>
<pdfrwt beam="1">  1       21 0.41145748E-01 0.19587303E+03</pdfrwt>
<pdfrwt beam="2">  1       21 0.22577083E-01 0.19587303E+03</pdfrwt>
<totfact> 0.10444442E+05</totfact>
</mgrwt>
</event>
<event>
12    1  0.1473662E-001  0.2335816E+03  0.7546771E-02  0.1124450E+00
         21   -1    0    0  504  503  0.00000000000E+00  0.00000000000E+00  0.21166490468E+03  0.21166490468E+03  0.00000000000E+00 0. -1.
         21   -1    0    0  502  504 -0.00000000000E+00 -0.00000000000E+00 -0.69136451538E+03  0.69136451538E+03  0.00000000000E+00 0. -1.
          6    2    1    2  502    0 -0.13714401114E+03  0.75046369536E+02 -0.59855867597E+03  0.64252070579E+03  0.17355094761E+03 0.  0.
         24    2    3    3    0    0 -0.42393909351E+02  0.87179084766E+02 -0.43740330357E+03  0.45512292399E+03  0.80111107846E+02 0.  0.
         -6    2    1    2    0  503  0.13714401114E+03 -0.75046369536E+02  0.11885906528E+03  0.26050871426E+03  0.17116330049E+03 0.  0.
        -24    2    5    5    0    0  0.13025309797E+03  0.31524857347E+01  0.70690484990E+02  0.16828698268E+03  0.79671551839E+02 0.  0.
          4    1    4    4  501    0 -0.37439694106E+02  0.62917604294E+02 -0.41599738626E+03  0.42239102855E+03  0.00000000000E+00 0. -1.
         -3    1    4    4    0  501 -0.49542152445E+01  0.24261480472E+02 -0.21405917307E+02  0.32731895441E+02  0.00000000000E+00 0.  1.
          5    1    3    3  502    0 -0.94750101794E+02 -0.12132715230E+02 -0.16115537241E+03  0.18739778180E+03  0.47000000000E+01 0. -1.
         11    1    6    6    0    0  0.89343240766E+01  0.25802887575E+02  0.23938414579E+02  0.36313342540E+02  0.00000000000E+00 0. -1.
        -12    1    6    6    0    0  0.12131877390E+03 -0.22650401840E+02  0.46752070411E+02  0.13197364014E+03  0.00000000000E+00 0.  1.
         -5    1    5    5    0  503  0.68909131729E+01 -0.78198855271E+02  0.48168580291E+02  0.92221731589E+02  0.47000000000E+01 0.  1.
<mgrwt>
<rscale>  2 0.23313822E+03</rscale>
<asrwt>0</asrwt>
<pdfrwt beam="1">  1       21 0.32563832E-01 0.23358161E+03</pdfrwt>
<pdfrwt beam="2">  1       21 0.10636377E+00 0.23358161E+03</pdfrwt>
<totfact> 0.62410345E+03</totfact>
</mgrwt>
</event>
<event>
12    1  0.1473662E-001  0.2916378E+03  0.7546771E-02  0.1089669E+00
         21   -1    0    0  504  503  0.00000000000E+00  0.00000000000E+00  0.20390766086E+03  0.20390766086E+03  0.00000000000E+00 0.  1.
         21   -1    0    0  502  504 -0.00000000000E+00 -0.00000000000E+00 -0.66330272976E+03  0.66330272976E+03  0.00000000000E+00 0. -1.
          6    2    1    2  502    0 -0.22877319393E+03 -0.44226792880E+02 -0.49454664330E+03  0.57346174419E+03  0.17317276395E+03 0.  0.
         24    2    3    3    0    0 -0.39476688485E+02 -0.36654545452E+02 -0.12363876827E+03  0.15694614104E+03  0.80271922437E+02 0.  0.
         -6    2    1    2    0  503  0.22877319393E+03  0.44226792880E+02  0.35151574404E+02  0.29374864644E+03  0.17538372397E+03 0.  0.
        -24    2    5    5    0    0  0.17349994248E+03 -0.23443048216E+02  0.61243813170E+02  0.20244018767E+03  0.81113614030E+02 0.  0.
          2    1    4    4  501    0  0.18244213865E+02 -0.16402882282E+02 -0.74646218784E+02  0.78574575185E+02  0.00000000000E+00 0. -1.
         -1    1    4    4    0  501 -0.57720902351E+02 -0.20251663170E+02 -0.48992549486E+02  0.78371565855E+02  0.00000000000E+00 0.  1.
          5    1    3    3  502    0 -0.18929650544E+03 -0.75722474282E+01 -0.37090787503E+03  0.41651560315E+03  0.47000000000E+01 0. -1.
         13    1    6    6    0    0  0.68887289283E+02 -0.10488771250E+02 -0.16320290803E+02  0.71566925594E+02  0.00000000000E+00 0. -1.
        -14    1    6    6    0    0  0.10461265320E+03 -0.12954276966E+02  0.77564103973E+02  0.13087326207E+03  0.00000000000E+00 0.  1.
         -5    1    5    5    0  503  0.55273251450E+02  0.67669841096E+02 -0.26092238766E+02  0.91308458773E+02  0.47000000000E+01 0.  1.
<mgrwt>
<rscale>  2 0.29130622E+03</rscale>
<asrwt>0</asrwt>
<pdfrwt beam="1">  1       21 0.31370409E-01 0.29163785E+03</pdfrwt>
<pdfrwt beam="2">  1       21 0.10204657E+00 0.29163785E+03</pdfrwt>
<totfact> 0.71850916E+03</totfact>
</mgrwt>
</event>
<event>
12    1  0.1473662E-001  0.2366090E+03  0.7546771E-02  0.1122093E+00
         21   -1    0    0  504  503  0.00000000000E+00  0.00000000000E+00  0.89379554608E+02  0.89379554608E+02  0.00000000000E+00 0.  1.
         21   -1    0    0  502  504 -0.00000000000E+00 -0.00000000000E+00 -0.70176323787E+03  0.70176323787E+03  0.00000000000E+00 0.  1.
          6    2    1    2  502    0 -0.10858856493E+03  0.11911489835E+03 -0.43620056410E+03  0.49624059951E+03  0.17321652647E+03 0.  0.
         24    2    3    3    0    0 -0.61140422200E+02 -0.61329882323E+01 -0.21757051192E+03  0.23980435196E+03  0.79958956912E+02 0.  0.
         -6    2    1    2    0  503  0.10858856493E+03 -0.11911489835E+03 -0.17618311917E+03  0.29490219297E+03  0.17305194739E+03 0.  0.
        -24    2    5    5    0    0 -0.36931840990E+01 -0.82545691511E+02 -0.65210670612E+02  0.13278657870E+03  0.80946977241E+02 0.  0.
          4    1    4    4  501    0 -0.15220675210E+02 -0.40582461698E+02 -0.98756865996E+02  0.10784954211E+03  0.00000000000E+00 0. -1.
         -3    1    4    4    0  501 -0.45919746990E+02  0.34449473465E+02 -0.11881364593E+03  0.13195480985E+03  0.00000000000E+00 0.  1.
          5    1    3    3  502    0 -0.47448142726E+02  0.12524788659E+03 -0.21863005217E+03  0.25643624755E+03  0.47000000000E+01 0. -1.
         13    1    6    6    0    0  0.11069640652E+02 -0.50766128107E+02 -0.79475552969E+02  0.94953147535E+02  0.00000000000E+00 0. -1.
        -14    1    6    6    0    0 -0.14762824751E+02 -0.31779563404E+02  0.14264882357E+02  0.37833431162E+02  0.00000000000E+00 0.  1.
         -5    1    5    5    0  503  0.11228174902E+03 -0.36569206842E+02 -0.11097244855E+03  0.16211561427E+03  0.47000000000E+01 0.  1.
<mgrwt>
<rscale>  2 0.23657884E+03</rscale>
<asrwt>0</asrwt>
<pdfrwt beam="1">  1       21 0.13750700E-01 0.23660896E+03</pdfrwt>
<pdfrwt beam="2">  1       21 0.10796358E+00 0.23660896E+03</pdfrwt>
<totfact> 0.30647778E+04</totfact>
</mgrwt>
</event>
<event>
12    1  0.1473662E-001  0.2254974E+03  0.7546771E-02  0.1129851E+00
         21   -1    0    0  504  503  0.00000000000E+00  0.00000000000E+00  0.46840009866E+03  0.46840009866E+03  0.00000000000E+00 0.  1.
         21   -1    0    0  502  504 -0.00000000000E+00 -0.00000000000E+00 -0.38526970156E+03  0.38526970156E+03  0.00000000000E+00 0. -1.
          6    2    1    2  502    0 -0.91882587911E+02 -0.11249663725E+03 -0.32017254724E+03  0.39160664988E+03  0.17247436002E+03 0.  0.
         24    2    3    3    0    0 -0.34123774531E+02  0.40750737319E+01 -0.17747537574E+03  0.19844967465E+03  0.81876285697E+02 0.  0.
         -6    2    1    2    0  503  0.91882587911E+02  0.11249663725E+03  0.40330294435E+03  0.46206315035E+03  0.17248532296E+03 0.  0.
        -24    2    5    5    0    0  0.61697944581E+02 -0.53844237679E+01  0.15405019540E+03  0.18465356130E+03  0.80807466317E+02 0.  0.
          2    1    4    4  501    0 -0.57685239758E+02 -0.13689081970E+02 -0.11898061276E+03  0.13293368295E+03  0.00000000000E+00 0. -1.
         -1    1    4    4    0  501  0.23561465227E+02  0.17764155702E+02 -0.58494762984E+02  0.65515991697E+02  0.00000000000E+00 0.  1.
          5    1    3    3  502    0 -0.57758813380E+02 -0.11657171098E+03 -0.14269717150E+03  0.19315697523E+03  0.47000000000E+01 0. -1.
         13    1    6    6    0    0  0.77717386192E+02  0.10930003678E+02  0.12628806040E+03  0.14868803347E+03  0.00000000000E+00 0. -1.
        -14    1    6    6    0    0 -0.16019441611E+02 -0.16314427445E+02  0.27762135002E+02  0.35965527833E+02  0.00000000000E+00 0.  1.
         -5    1    5    5    0  503  0.30184643330E+02  0.11788106102E+03  0.24925274894E+03  0.27740958905E+03  0.47000000000E+01 0.  1.
<mgrwt>
<rscale>  2 0.22549533E+03</rscale>
<asrwt>0</asrwt>
<pdfrwt beam="1">  1       21 0.72061553E-01 0.22549743E+03</pdfrwt>
<pdfrwt beam="2">  1       21 0.59272262E-01 0.22549743E+03</pdfrwt>
<totfact> 0.45088816E+03</totfact>
</mgrwt>
</event>
<event>
12    1  0.1473662E-001  0.2005020E+03  0.7546771E-02  0.1149787E+00
         21   -1    0    0  504  503  0.00000000000E+00  0.00000000000E+00  0.59102797198E+02  0.59102797198E+02  0.00000000000E+00 0.  1.
         21   -1    0    0  502  504 -0.00000000000E+00 -0.00000000000E+00 -0.73434398586E+03  0.73434398586E+03  0.00000000000E+00 0.  1.
          6    2    1    2  502    0 -0.81699075364E+00 -0.96758110017E+02 -0.45087616015E+03  0.49254693127E+03  0.17306174732E+03 0.  0.
         24    2    3    3    0    0  0.38809998273E+02 -0.10461574733E+03 -0.24859067514E+03  0.28621334658E+03  0.87579023980E+02 0.  0.
         -6    2    1    2    0  503  0.81699075364E+00  0.96758110017E+02 -0.22436502851E+03  0.30089985179E+03  0.17560824428E+03 0.  0.
        -24    2    5    5    0    0  0.13140418309E+02  0.76802584899E+02 -0.48235930090E+02  0.12315385560E+03  0.82273079175E+02 0.  0.
          4    1    4    4  501    0  0.26163237001E+02 -0.11054326448E+03 -0.24735403312E+03  0.27219174490E+03  0.00000000000E+00 0. -1.
         -3    1    4    4    0  501  0.12646761272E+02  0.59275171471E+01 -0.12366420162E+01  0.14021601680E+02  0.00000000000E+00 0.  1.
          5    1    3    3  502    0 -0.39626989026E+02  0.78576373142E+01 -0.20228548501E+03  0.20633358469E+03  0.47000000000E+01 0. -1.
         13    1    6    6    0    0 -0.12052846814E+02  0.51056042743E+02 -0.64911286208E+02  0.83459365527E+02  0.00000000000E+00 0. -1.
        -14    1    6    6    0    0  0.25193265123E+02  0.25746542156E+02  0.16675356118E+02  0.39694490073E+02  0.00000000000E+00 0.  1.
         -5    1    5    5    0  503 -0.12323427555E+02  0.19955525119E+02 -0.17612909842E+03  0.17774599619E+03  0.47000000000E+01 0.  1.
<mgrwt>
<rscale>  2 0.19994304E+03</rscale>
<asrwt>0</asrwt>
<pdfrwt beam="1">  1       21 0.90927383E-02 0.20050201E+03</pdfrwt>
<pdfrwt beam="2">  1       21 0.11297600E+00 0.20050201E+03</pdfrwt>
<totfact> 0.58497589E+04</totfact>
</mgrwt>
</event>
<event>
12    1  0.1473662E-001  0.2049058E+03  0.7546771E-02  0.1146043E+00
         21   -1    0    0  504  503  0.00000000000E+00  0.00000000000E+00  0.17448148440E+02  0.17448148440E+02  0.00000000000E+00 0. -1.
         21   -1    0    0  502  504 -0.00000000000E+00 -0.00000000000E+00 -0.27051427959E+04  0.27051427959E+04  0.00000000000E+00 0. -1.
          6    2    1    2  502    0 -0.74593246187E+02  0.76481188015E+02 -0.18069600384E+04  0.18183344275E+04  0.17269043232E+03 0.  0.
         24    2    3    3    0    0 -0.91178000151E+02  0.15599471683E+02 -0.79361134479E+03  0.80301216228E+03  0.80329290774E+02 0.  0.
         -6    2    1    2    0  503  0.74593246187E+02 -0.76481188015E+02 -0.88073460908E+03  0.90425651685E+03  0.17485099980E+03 0.  0.
        -24    2    5    5    0    0  0.10401943097E+03 -0.96073741530E+02 -0.60191759665E+03  0.62316794553E+03  0.77351724925E+02 0.  0.
          4    1    4    4  501    0 -0.44474189340E+02 -0.32369826506E+02 -0.39634814635E+03  0.40014698837E+03  0.00000000000E+00 0. -1.
         -3    1    4    4    0  501 -0.46703810811E+02  0.47969298189E+02 -0.39726319844E+03  0.40286517391E+03  0.00000000000E+00 0.  1.
          5    1    3    3  502    0  0.16584753964E+02  0.60881716332E+02 -0.10133486936E+04  0.10153222652E+04  0.47000000000E+01 0. -1.
         13    1    6    6    0    0  0.19242350329E+02  0.11742657226E+02 -0.58065674706E+02  0.62287885050E+02  0.00000000000E+00 0. -1.
        -14    1    6    6    0    0  0.84777080639E+02 -0.10781639876E+03 -0.54385192195E+03  0.56088006048E+03  0.00000000000E+00 0.  1.
         -5    1    5    5    0  503 -0.29426184780E+02  0.19592553515E+02 -0.27881701243E+03  0.28108857132E+03  0.47000000000E+01 0.  1.
<mgrwt>
<rscale>  2 0.20444413E+03</rscale>
<asrwt>0</asrwt>
<pdfrwt beam="1">  1       21 0.26843301E-02 0.20490582E+03</pdfrwt>
<pdfrwt beam="2">  1       21 0.41617588E+00 0.20490582E+03</pdfrwt>
<totfact> 0.51566116E+03</totfact>
</mgrwt>
</event>
<event>
12    1  0.1473662E-001  0.1769813E+03  0.7546771E-02  0.1170789E+00
         21   -1    0    0  504  503  0.00000000000E+00  0.00000000000E+00  0.48933665414E+03  0.48933665414E+03  0.00000000000E+00 0.  1.
         21   -1    0    0  502  504 -0.00000000000E+00 -0.00000000000E+00 -0.14760438922E+03  0.14760438922E+03  0.00000000000E+00 0.  1.
          6    2    1    2  502    0 -0.13705105155E+02 -0.31396462690E+02 -0.68893889316E+02  0.18979877734E+03  0.17350400606E+03 0.  0.
         24    2    3    3    0    0 -0.46710105153E+02 -0.42767168317E+02 -0.99050401253E+02  0.14342930265E+03  0.82159103332E+02 0.  0.
         -6    2    1    2    0  503  0.13705105155E+02  0.31396462690E+02  0.41062615424E+03  0.44714226603E+03  0.17363409731E+03 0.  0.
        -24    2    5    5    0    0  0.65298702583E-01 -0.45616302284E+02  0.26979534117E+03  0.28598266129E+03  0.83160718761E+02 0.  0.
          2    1    4    4  501    0 -0.67013525936E+02 -0.15249750901E+02 -0.57439988712E+02  0.89569636954E+02  0.00000000000E+00 0. -1.
         -1    1    4    4    0  501  0.20303420783E+02 -0.27517417416E+02 -0.41610412541E+02  0.53859665693E+02  0.00000000000E+00 0.  1.
          5    1    3    3  502    0  0.33004999998E+02  0.11370705627E+02  0.30156511937E+02  0.46369474696E+02  0.47000000000E+01 0. -1.
         11    1    6    6    0    0  0.48799537383E+01 -0.77971977556E+01 -0.36472959413E+01  0.98951002528E+01  0.00000000000E+00 0. -1.
        -12    1    6    6    0    0 -0.48146550358E+01 -0.37819104529E+02  0.27344263711E+03  0.27608756104E+03  0.00000000000E+00 0.  1.
         -5    1    5    5    0  503  0.13639806452E+02  0.77012764975E+02  0.14083081307E+03  0.16115960474E+03  0.47000000000E+01 0.  1.
<mgrwt>
<rscale>  2 0.17694935E+03</rscale>
<asrwt>0</asrwt>
<pdfrwt beam="1">  1       21 0.75282561E-01 0.17698126E+03</pdfrwt>
<pdfrwt beam="2">  1       21 0.22708368E-01 0.17698126E+03</pdfrwt>
<totfact> 0.28917960E+04</totfact>
</mgrwt>
</event>
<event>
12    1  0.1473662E-001  0.2620483E+03  0.7546771E-02  0.1106171E+00
         21   -1    0    0  504  503  0.00000000000E+00  0.00000000000E+00  0.52895034555E+03  0.52895034555E+03  0.00000000000E+00 0.  1.
         21   -1    0    0  502  504 -0.00000000000E+00 -0.00000000000E+00 -0.24572553617E+03  0.24572553617E+03  0.00000000000E+00 0. -1.
          6    2    1    2  502    0 -0.15623989581E+03  0.11926377596E+03 -0.12560271683E+03  0.28907392189E+03  0.17074231035E+03 0.  0.
         24    2    3    3    0    0 -0.16979481007E+03  0.72192223792E+02 -0.67248363755E+02  0.21274052653E+03  0.81818057284E+02 0.  0.
         -6    2    1    2    0  503  0.15623989581E+03 -0.11926377596E+03  0.40882752621E+03  0.48560195983E+03  0.17330482943E+03 0.  0.
        -24    2    5    5    0    0  0.48849146723E+02 -0.31991245904E+02  0.27894872173E+03  0.29576028542E+03  0.79070083619E+02 0.  0.
          2    1    4    4  501    0 -0.90578847393E+02  0.64739608699E+02 -0.72729523873E+02  0.13298619542E+03  0.00000000000E+00 0. -1.
         -1    1    4    4    0  501 -0.79215962678E+02  0.74526150936E+01  0.54811601173E+01  0.79754331111E+02  0.00000000000E+00 0.  1.
          5    1    3    3  502    0  0.13554914265E+02  0.47071552164E+02 -0.58354353075E+02  0.76333395356E+02  0.47000000000E+01 0. -1.
         13    1    6    6    0    0 -0.19899839537E+02 -0.13950209821E+02  0.43632482123E+02  0.49944023304E+02  0.00000000000E+00 0. -1.
        -14    1    6    6    0    0  0.68748986260E+02 -0.18041036083E+02  0.23531623961E+03  0.24581626211E+03  0.00000000000E+00 0.  1.
         -5    1    5    5    0  503  0.10739074908E+03 -0.87272530052E+02  0.12987880448E+03  0.18984167441E+03  0.47000000000E+01 0.  1.
<mgrwt>
<rscale>  2 0.26162538E+03</rscale>
<asrwt>0</asrwt>
<pdfrwt beam="1">  1       21 0.81376976E-01 0.26204831E+03</pdfrwt>
<pdfrwt beam="2">  1       21 0.37803929E-01 0.26204831E+03</pdfrwt>
<totfact> 0.85482448E+03</totfact>
</mgrwt>
</event>
<event>
12    1  0.1473662E-001  0.2256086E+03  0.7546771E-02  0.1131875E+00
         21   -1    0    0  504  503  0.00000000000E+00  0.00000000000E+00  0.50580133314E+03  0.50580133314E+03  0.00000000000E+00 0. -1.
         21   -1    0    0  502  504 -0.00000000000E+00 -0.00000000000E+00 -0.17194988902E+03  0.17194988902E+03  0.00000000000E+00 0. -1.
          6    2    1    2  502    0  0.12532967552E+03 -0.17764121409E+02 -0.61196173864E+02  0.22282062569E+03  0.17286112334E+03 0.  0.
         24    2    3    3    0    0  0.13186092343E+03 -0.18857002286E+02  0.58433713025E+01  0.15529106028E+03  0.79613307622E+02 0.  0.
         -6    2    1    2    0  503 -0.12532967552E+03  0.17764121409E+02  0.39504761798E+03  0.45493059647E+03  0.18675153429E+03 0.  0.
        -24    2    5    5    0    0 -0.14066413282E+03 -0.35805071530E+02  0.25324141361E+03  0.30249735334E+03  0.79404242973E+02 0.  0.
          4    1    4    4  501    0  0.15971473466E+02 -0.30313695857E+02  0.17100138640E+02  0.38293901116E+02  0.00000000000E+00 0. -1.
         -3    1    4    4    0  501  0.11588944997E+03  0.11456693571E+02 -0.11256767337E+02  0.11699715916E+03  0.00000000000E+00 0.  1.
          5    1    3    3  502    0 -0.65312479153E+01  0.10928808776E+01 -0.67039545167E+02  0.67529565407E+02  0.47000000000E+01 0. -1.
         13    1    6    6    0    0 -0.76496700948E+02  0.21438881127E+02  0.11959202353E+03  0.14357445097E+03  0.00000000000E+00 0. -1.
        -14    1    6    6    0    0 -0.64167431875E+02 -0.57243952657E+02  0.13364939008E+03  0.15892290237E+03  0.00000000000E+00 0.  1.
         -5    1    5    5    0  503  0.15334457306E+02  0.53569192939E+02  0.14180620437E+03  0.15243324313E+03  0.47000000000E+01 0.  1.
<mgrwt>
<rscale>  2 0.22271429E+03</rscale>
<asrwt>0</asrwt>
<pdfrwt beam="1">  1       21 0.77815589E-01 0.22560857E+03</pdfrwt>
<pdfrwt beam="2">  1       21 0.26453829E-01 0.22560857E+03</pdfrwt>
<totfact> 0.19518837E+04</totfact>
</mgrwt>
</event>
<event>
12    1  0.1473662E-001  0.2011531E+03  0.7546771E-02  0.1151834E+00
         21   -1    0    0  504  503  0.00000000000E+00  0.00000000000E+00  0.33092071720E+03  0.33092071720E+03  0.00000000000E+00 0. -1.
         21   -1    0    0  502  504 -0.00000000000E+00 -0.00000000000E+00 -0.18574794399E+03  0.18574794399E+03  0.00000000000E+00 0. -1.
          6    2    1    2  502    0  0.71130466711E+02 -0.18958647960E+01 -0.86443121266E+02  0.21894058677E+03  0.18814736172E+03 0.  0.
         24    2    3    3    0    0 -0.14543049949E+02 -0.19740957433E+02  0.14125005927E+02  0.85544795998E+02  0.80729118834E+02 0.  0.
         -6    2    1    2    0  503 -0.71130466711E+02  0.18958647960E+01  0.23161589447E+03  0.29772807442E+03  0.17301140462E+03 0.  0.
        -24    2    5    5    0    0 -0.93291855679E+02 -0.29374464274E+02  0.22573281314E+03  0.25866836004E+03  0.79923639017E+02 0.  0.
          2    1    4    4  501    0 -0.16729946416E+02  0.26429347506E+02 -0.10723992920E+02  0.33066683245E+02  0.00000000000E+00 0. -1.
         -1    1    4    4    0  501  0.21868964676E+01 -0.46170304940E+02  0.24848998847E+02  0.52478112753E+02  0.00000000000E+00 0.  1.
          5    1    3    3  502    0  0.85673516660E+02  0.17845092637E+02 -0.10056812719E+03  0.13339579077E+03  0.47000000000E+01 0. -1.
         13    1    6    6    0    0 -0.59936946646E+02 -0.57111684772E+02  0.14229375177E+03  0.16462592112E+03  0.00000000000E+00 0. -1.
        -14    1    6    6    0    0 -0.33354909033E+02  0.27737220498E+02  0.83439061366E+02  0.94042438926E+02  0.00000000000E+00 0.  1.
         -5    1    5    5    0  503  0.22161388968E+02  0.31270329070E+02  0.58830813304E+01  0.39059714376E+02  0.47000000000E+01 0.  1.
<mgrwt>
<rscale>  2 0.19753655E+03</rscale>
<asrwt>0</asrwt>
<pdfrwt beam="1">  1       21 0.50910879E-01 0.20115309E+03</pdfrwt>
<pdfrwt beam="2">  1       21 0.28576607E-01 0.20115309E+03</pdfrwt>
<totfact> 0.42791652E+04</totfact>
</mgrwt>
</event>
<event>
12    1  0.1473662E-001  0.2280320E+03  0.7546771E-02  0.1130864E+00
         21   -1    0    0  504  503  0.00000000000E+00  0.00000000000E+00  0.55540601892E+03  0.55540601892E+03  0.00000000000E+00 0.  1.
         21   -1    0    0  502  504 -0.00000000000E+00 -0.00000000000E+00 -0.97813000626E+02  0.97813000626E+02  0.00000000000E+00 0.  1.
          6    2    1    2  502    0  0.51877219451E+02  0.11175093006E+03  0.32801550805E+03  0.39094257629E+03  0.17338514404E+03 0.  0.
         24    2    3    3    0    0  0.27961988120E+02  0.13596328135E+03  0.19356719001E+03  0.25217436500E+03  0.82799557108E+02 0.  0.
         -6    2    1    2    0  503 -0.51877219451E+02 -0.11175093006E+03  0.12957751025E+03  0.26227644325E+03  0.19188299887E+03 0.  0.
        -24    2    5    5    0    0  0.33544177856E+02 -0.45208282585E+02  0.11643896565E+03  0.15310020772E+03  0.81930703651E+02 0.  0.
          4    1    4    4  501    0 -0.22191908201E+02  0.26481207079E+02  0.77814940809E+02  0.85140472932E+02  0.00000000000E+00 0. -1.
         -3    1    4    4    0  501  0.50153896321E+02  0.10948207427E+03  0.11575224920E+03  0.16703389206E+03  0.00000000000E+00 0.  1.
          5    1    3    3  502    0  0.23915231331E+02 -0.24212351290E+02  0.13444831803E+03  0.13876821130E+03  0.47000000000E+01 0. -1.
         13    1    6    6    0    0  0.84204219643E+00 -0.43409854622E+02  0.14102957840E+02  0.45651045258E+02  0.00000000000E+00 0. -1.
        -14    1    6    6    0    0  0.32702135659E+02 -0.17984279634E+01  0.10233600781E+03  0.10744916246E+03  0.00000000000E+00 0.  1.
         -5    1    5    5    0  503 -0.85421397306E+02 -0.66542647474E+02  0.13138544599E+02  0.10917623553E+03  0.47000000000E+01 0.  1.
<mgrwt>
<rscale>  2 0.22409879E+03</rscale>
<asrwt>0</asrwt>
<pdfrwt beam="1">  1       21 0.85447078E-01 0.22803202E+03</pdfrwt>
<pdfrwt beam="2">  1       21 0.15048154E-01 0.22803202E+03</pdfrwt>
<totfact> 0.45378501E+04</totfact>
</mgrwt>
</event>
<event>
12    1  0.1473662E-001  0.1760789E+03  0.7546771E-02  0.1173362E+00
         21   -1    0    0  504  503  0.00000000000E+00  0.00000000000E+00  0.30647772374E+03  0.30647772374E+03  0.00000000000E+00 0.  1.
         21   -1    0    0  502  504 -0.00000000000E+00 -0.00000000000E+00 -0.10478634647E+03  0.10478634647E+03  0.00000000000E+00 0.  1.
          6    2    1    2  502    0  0.14318376575E+02  0.22592026154E+02  0.47850373296E+02  0.18246491626E+03  0.17403554777E+03 0.  0.
         24    2    3    3    0    0  0.15218460809E+02 -0.32191231540E+01 -0.40035188868E+02  0.90742576471E+02  0.79933938559E+02 0.  0.
         -6    2    1    2    0  503 -0.14318376575E+02 -0.22592026154E+02  0.15384100397E+03  0.22879915394E+03  0.16723212247E+03 0.  0.
        -24    2    5    5    0    0 -0.48951579612E+02 -0.66885600019E+02  0.97670408506E+02  0.14918379591E+03  0.76461464988E+02 0.  0.
          4    1    4    4  501    0  0.20593190236E+02  0.26435262366E+02  0.76126948806E+01  0.34363581067E+02  0.00000000000E+00 0. -1.
         -3    1    4    4    0  501 -0.53747294264E+01 -0.29654385520E+02 -0.47647883749E+02  0.56378995404E+02  0.00000000000E+00 0.  1.
          5    1    3    3  502    0 -0.90008423456E+00  0.25811149308E+02  0.87885562164E+02  0.91722339793E+02  0.47000000000E+01 0. -1.
         13    1    6    6    0    0 -0.23902556633E+02 -0.27637834647E+02 -0.45854832067E+01  0.36826739929E+02  0.00000000000E+00 0. -1.
        -14    1    6    6    0    0 -0.25049022979E+02 -0.39247765372E+02  0.10225589171E+03  0.11235705598E+03  0.00000000000E+00 0.  1.
         -5    1    5    5    0  503  0.34633203037E+02  0.44293573865E+02  0.56170595469E+02  0.79615358026E+02  0.47000000000E+01 0.  1.
<mgrwt>
<rscale>  2 0.17437399E+03</rscale>
<asrwt>0</asrwt>
<pdfrwt beam="1">  1       21 0.47150419E-01 0.17607892E+03</pdfrwt>
<pdfrwt beam="2">  1       21 0.16120976E-01 0.17607892E+03</pdfrwt>
<totfact> 0.14882728E+05</totfact>
</mgrwt>
</event>
<event>
12    1  0.1473662E-001  0.4564895E+03  0.7546771E-02  0.1025884E+00
         21   -1    0    0  504  503  0.00000000000E+00  0.00000000000E+00  0.58289791757E+03  0.58289791757E+03  0.00000000000E+00 0. -1.
         21   -1    0    0  502  504 -0.00000000000E+00 -0.00000000000E+00 -0.43029555717E+03  0.43029555717E+03  0.00000000000E+00 0.  1.
          6    2    1    2  502    0 -0.27839219015E+03  0.31638609825E+03 -0.13320795667E+03  0.47552818734E+03  0.17544321741E+03 0.  0.
         24    2    3    3    0    0 -0.69492557399E+02  0.45543021426E+02 -0.16470140284E+02  0.11407993849E+03  0.76417174182E+02 0.  0.
         -6    2    1    2    0  503  0.27839219015E+03 -0.31638609825E+03  0.28581031707E+03  0.53766528740E+03  0.17260952820E+03 0.  0.
        -24    2    5    5    0    0  0.76666203344E+02 -0.17099814049E+03  0.15940775784E+03  0.25868369483E+03  0.79927153850E+02 0.  0.
          4    1    4    4  501    0 -0.17879469290E+02  0.38979874633E+01  0.28558831401E+02  0.33918675967E+02  0.00000000000E+00 0. -1.
         -3    1    4    4    0  501 -0.51613088110E+02  0.41645033962E+02 -0.45028971685E+02  0.80161262521E+02  0.00000000000E+00 0.  1.
          5    1    3    3  502    0 -0.20889963275E+03  0.27084307682E+03 -0.11673781638E+03  0.36144824886E+03  0.47000000000E+01 0. -1.
         11    1    6    6    0    0  0.18150901969E+02 -0.70599949401E+02  0.11100470375E+03  0.13280004651E+03  0.00000000000E+00 0. -1.
        -12    1    6    6    0    0  0.58515301375E+02 -0.10039819109E+03  0.48403054095E+02  0.12588364832E+03  0.00000000000E+00 0.  1.
         -5    1    5    5    0  503  0.20172598681E+03 -0.14538795776E+03  0.12640255923E+03  0.27898159257E+03  0.47000000000E+01 0.  1.
<mgrwt>
<rscale>  2 0.45621891E+03</rscale>
<asrwt>0</asrwt>
<pdfrwt beam="1">  1       21 0.89676603E-01 0.45648954E+03</pdfrwt>
<pdfrwt beam="2">  1       21 0.66199316E-01 0.45648954E+03</pdfrwt>
<totfact> 0.19086047E+03</totfact>
</mgrwt>
</event>
<event>
12    1  0.1473662E-001  0.1863247E+03  0.7546771E-02  0.1162142E+00
         21   -1    0    0  504  503  0.00000000000E+00  0.00000000000E+00  0.20895160783E+03  0.20895160783E+03  0.00000000000E+00 0. -1.
         21   -1    0    0  502  504 -0.00000000000E+00 -0.00000000000E+00 -0.25371102925E+03  0.25371102925E+03  0.00000000000E+00 0. -1.
          6    2    1    2  502    0  0.43537180530E+02 -0.47491391631E+02 -0.15918548854E+03  0.24400712481E+03  0.17334514366E+03 0.  0.
         24    2    3    3    0    0  0.11695086922E+02  0.32975264623E+02 -0.11984549095E+03  0.14883082995E+03  0.81015622602E+02 0.  0.
         -6    2    1    2    0  503 -0.43537180530E+02  0.47491391631E+02  0.11442606713E+03  0.21865551227E+03  0.17483131824E+03 0.  0.
        -24    2    5    5    0    0  0.10258345131E+02  0.81349790941E+02  0.41972222761E+02  0.12215681099E+03  0.80234636265E+02 0.  0.
          4    1    4    4  501    0 -0.10982130114E+02  0.23207100029E+02 -0.12140497827E+03  0.12409006980E+03  0.00000000000E+00 0. -1.
         -3    1    4    4    0  501  0.22677217036E+02  0.97681645943E+01  0.15594873177E+01  0.24740760148E+02  0.00000000000E+00 0.  1.
          5    1    3    3  502    0  0.31842093608E+02 -0.80466656254E+02 -0.39339997591E+02  0.95176294867E+02  0.47000000000E+01 0. -1.
         13    1    6    6    0    0  0.10832860351E+01  0.18144439312E+02  0.54166785998E+02  0.57135233367E+02  0.00000000000E+00 0. -1.
        -14    1    6    6    0    0  0.91750590961E+01  0.63205351628E+02 -0.12194563237E+02  0.65021577622E+02  0.00000000000E+00 0.  1.
         -5    1    5    5    0  503 -0.53795525661E+02 -0.33858399310E+02  0.72453844365E+02  0.96498701278E+02  0.47000000000E+01 0.  1.
<mgrwt>
<rscale>  2 0.18597531E+03</rscale>
<asrwt>0</asrwt>
<pdfrwt beam="1">  1       21 0.32146401E-01 0.18632474E+03</pdfrwt>
<pdfrwt beam="2">  1       21 0.39032466E-01 0.18632474E+03</pdfrwt>
<totfact> 0.59073808E+04</totfact>
</mgrwt>
</event>
<event>
12    1  0.1473662E-001  0.1746259E+03  0.7546771E-02  0.1174340E+00
         21   -1    0    0  504  503  0.00000000000E+00  0.00000000000E+00  0.28368756170E+02  0.28368756170E+02  0.00000000000E+00 0.  1.
         21   -1    0    0  502  504 -0.00000000000E+00 -0.00000000000E+00 -0.24031158617E+04  0.24031158617E+04  0.00000000000E+00 0.  1.
          6    2    1    2  502    0  0.86083174946E+00  0.12654912803E+02 -0.21083627594E+04  0.21155821279E+04  0.17416465453E+03 0.  0.
         24    2    3    3    0    0  0.43801923636E+02  0.41447038961E+02 -0.18010222986E+04  0.18038880908E+04  0.81819671772E+02 0.  0.
         -6    2    1    2    0  503 -0.86083174946E+00 -0.12654912803E+02 -0.26638434614E+03  0.31590248997E+03  0.16933066895E+03 0.  0.
        -24    2    5    5    0    0  0.10966737666E+02 -0.68159669081E+02 -0.21196549128E+03  0.23713592896E+03  0.80858329731E+02 0.  0.
          2    1    4    4  501    0  0.64427373130E+02  0.24227716936E+02 -0.97384099932E+03  0.97627053660E+03  0.00000000000E+00 0. -1.
         -1    1    4    4    0  501 -0.20625449495E+02  0.17219322025E+02 -0.82718129928E+03  0.82761755424E+03  0.00000000000E+00 0.  1.
          5    1    3    3  502    0 -0.42941091886E+02 -0.28792126158E+02 -0.30734046082E+03  0.31169403709E+03  0.47000000000E+01 0. -1.
         13    1    6    6    0    0  0.24902368260E+02  0.97321231558E+01 -0.44440657096E+02  0.51863418410E+02  0.00000000000E+00 0. -1.
        -14    1    6    6    0    0 -0.13935630594E+02 -0.77891792236E+02 -0.16752483418E+03  0.18527251055E+03  0.00000000000E+00 0.  1.
         -5    1    5    5    0  503 -0.11827569415E+02  0.55504756278E+02 -0.54418854864E+02  0.78766561005E+02  0.47000000000E+01 0.  1.
<mgrwt>
<rscale>  2 0.17340803E+03</rscale>
<asrwt>0</asrwt>
<pdfrwt beam="1">  1       21 0.43644244E-02 0.17462593E+03</pdfrwt>
<pdfrwt beam="2">  1       21 0.36971010E+00 0.17462593E+03</pdfrwt>
<totfact> 0.46314539E+03</totfact>
</mgrwt>
</event>
<event>
12    1  0.1473662E-001  0.2176433E+03  0.7546771E-02  0.1138752E+00
         21   -1    0    0  504  503  0.00000000000E+00  0.00000000000E+00  0.19546860556E+02  0.19546860556E+02  0.00000000000E+00 0. -1.
         21   -1    0    0  502  504 -0.00000000000E+00 -0.00000000000E+00 -0.28308166102E+04  0.28308166102E+04  0.00000000000E+00 0. -1.
          6    2    1    2  502    0 -0.12047547525E+03  0.54682118739E+02 -0.20082455101E+04  0.20183679689E+04  0.15249509746E+03 0.  0.
         24    2    3    3    0    0 -0.16635302574E+02 -0.96397302512E+01 -0.66853956191E+03  0.67309691838E+03  0.75793522167E+02 0.  0.
         -6    2    1    2    0  503  0.12047547525E+03 -0.54682118739E+02 -0.80302423956E+03  0.83199550188E+03  0.17281235948E+03 0.  0.
        -24    2    5    5    0    0  0.38572072539E+02 -0.62614854456E+02 -0.64170067812E+03  0.65083679482E+03  0.80002177519E+02 0.  0.
          2    1    4    4  501    0  0.13554012419E+02  0.82287510883E+00 -0.55449344826E+03  0.55465969075E+03  0.00000000000E+00 0. -1.
         -1    1    4    4    0  501 -0.30189314994E+02 -0.10462605360E+02 -0.11404611365E+03  0.11843722764E+03  0.00000000000E+00 0.  1.
          5    1    3    3  502    0 -0.10384017267E+03  0.64321848990E+02 -0.13397059482E+04  0.13452710505E+04  0.47000000000E+01 0. -1.
         11    1    6    6    0    0  0.16757002850E+02 -0.72133959829E+02 -0.32899726346E+03  0.33722886097E+03  0.00000000000E+00 0. -1.
        -12    1    6    6    0    0  0.21815069689E+02  0.95191053735E+01 -0.31270341466E+03  0.31360793385E+03  0.00000000000E+00 0.  1.
         -5    1    5    5    0  503  0.81903402708E+02  0.79327357169E+01 -0.16132356143E+03  0.18115870706E+03  0.47000000000E+01 0.  1.
<mgrwt>
<rscale>  2 0.21359307E+03</rscale>
<asrwt>0</asrwt>
<pdfrwt beam="1">  1       21 0.30072089E-02 0.21764325E+03</pdfrwt>
<pdfrwt beam="2">  1       21 0.43551030E+00 0.21764325E+03</pdfrwt>
<totfact> 0.31546436E+03</totfact>
</mgrwt>
</event>
<event>
12    1  0.1473662E-001  0.1741588E+03  0.7546771E-02  0.1173912E+00
         21   -1    0    0  504  503  0.00000000000E+00  0.00000000000E+00  0.10675626715E+03  0.10675626715E+03  0.00000000000E+00 0.  1.
         21   -1    0    0  502  504 -0.00000000000E+00 -0.00000000000E+00 -0.51560033969E+03  0.51560033969E+03  0.00000000000E+00 0.  1.
          6    2    1    2  502    0  0.14369167813E+02  0.17370090443E+02 -0.41430630678E+03  0.44942295099E+03  0.17269360154E+03 0.  0.
         24    2    3    3    0    0  0.49106026474E+02  0.51437852227E+02 -0.17041696450E+03  0.20068340242E+03  0.78578825014E+02 0.  0.
         -6    2    1    2    0  503 -0.14369167813E+02 -0.17370090443E+02  0.54622342311E+01  0.17293365585E+03  0.17137100192E+03 0.  0.
        -24    2    5    5    0    0  0.99603799192E+01 -0.74965659705E+02  0.88780023806E+01  0.11014086993E+03  0.79580983910E+02 0.  0.
          2    1    4    4  501    0  0.13895646500E+02  0.55823479777E+02 -0.53713389644E+02  0.78705006913E+02  0.00000000000E+00 0. -1.
         -1    1    4    4    0  501  0.35210379974E+02 -0.43856275508E+01 -0.11670357485E+03  0.12197839551E+03  0.00000000000E+00 0.  1.
          5    1    3    3  502    0 -0.34736858661E+02 -0.34067761784E+02 -0.24388934228E+03  0.24873954857E+03  0.47000000000E+01 0. -1.
         13    1    6    6    0    0  0.30257581554E+02 -0.48044687002E+02  0.35690125013E+02  0.67064135080E+02  0.00000000000E+00 0. -1.
        -14    1    6    6    0    0 -0.20297201634E+02 -0.26920972703E+02 -0.26812122633E+02  0.43076734852E+02  0.00000000000E+00 0.  1.
         -5    1    5    5    0  503 -0.24329547732E+02  0.57595569262E+02 -0.34157681495E+01  0.62792785920E+02  0.47000000000E+01 0.  1.
<mgrwt>
<rscale>  2 0.17382998E+03</rscale>
<asrwt>0</asrwt>
<pdfrwt beam="1">  1       21 0.16424041E-01 0.17415876E+03</pdfrwt>
<pdfrwt beam="2">  1       21 0.79323129E-01 0.17415876E+03</pdfrwt>
<totfact> 0.47028299E+04</totfact>
</mgrwt>
</event>
<event>
12    1  0.1473662E-001  0.2273084E+03  0.7546771E-02  0.1128562E+00
         21   -1    0    0  504  503  0.00000000000E+00  0.00000000000E+00  0.76571350227E+02  0.76571350227E+02  0.00000000000E+00 0. -1.
         21   -1    0    0  502  504 -0.00000000000E+00 -0.00000000000E+00 -0.72470144224E+03  0.72470144224E+03  0.00000000000E+00 0. -1.
          6    2    1    2  502    0 -0.14730974316E+03  0.73091271996E+01 -0.42940027007E+03  0.48581781482E+03  0.17286056083E+03 0.  0.
         24    2    3    3    0    0 -0.90248104503E+02  0.30832697817E+02 -0.14051298715E+03  0.19037350329E+03  0.86039500098E+02 0.  0.
         -6    2    1    2    0  503  0.14730974316E+03 -0.73091271996E+01 -0.21872982195E+03  0.31545497765E+03  0.17296104806E+03 0.  0.
        -24    2    5    5    0    0  0.55696593800E+02  0.44732696070E+02 -0.54074116769E+02  0.11991748316E+03  0.79706135296E+02 0.  0.
          2    1    4    4  501    0 -0.98702446732E+02  0.45680728277E+02 -0.10604387071E+03  0.15190195668E+03  0.00000000000E+00 0. -1.
         -1    1    4    4    0  501  0.84543422287E+01 -0.14848030459E+02 -0.34469116435E+02  0.38471546614E+02  0.00000000000E+00 0.  1.
          5    1    3    3  502    0 -0.57061638658E+02 -0.23523570618E+02 -0.28888728292E+03  0.29544431153E+03  0.47000000000E+01 0. -1.
         13    1    6    6    0    0  0.69331206945E+02  0.28154461418E+02 -0.61855709089E+02  0.97085625615E+02  0.00000000000E+00 0. -1.
        -14    1    6    6    0    0 -0.13634613145E+02  0.16578234651E+02  0.77815923197E+01  0.22831857542E+02  0.00000000000E+00 0.  1.
         -5    1    5    5    0  503  0.91613149361E+02 -0.52041823269E+02 -0.16465570518E+03  0.19553749449E+03  0.47000000000E+01 0.  1.
<mgrwt>
<rscale>  2 0.22728928E+03</rscale>
<asrwt>0</asrwt>
<pdfrwt beam="1">  1       21 0.11780207E-01 0.22730840E+03</pdfrwt>
<pdfrwt beam="2">  1       21 0.11149253E+00 0.22730840E+03</pdfrwt>
<totfact> 0.37640128E+04</totfact>
</mgrwt>
</event>
<event>
12    1  0.1473662E-001  0.1825851E+03  0.7546771E-02  0.1165785E+00
         21   -1    0    0  504  503  0.00000000000E+00  0.00000000000E+00  0.19268814271E+02  0.19268814271E+02  0.00000000000E+00 0. -1.
         21   -1    0    0  502  504 -0.00000000000E+00 -0.00000000000E+00 -0.18441622293E+04  0.18441622293E+04  0.00000000000E+00 0. -1.
          6    2    1    2  502    0 -0.44076797049E+02 -0.29361003594E+02 -0.66741821389E+03  0.69194247601E+03  0.17473547239E+03 0.  0.
         24    2    3    3    0    0 -0.69975982592E+02 -0.73668405433E+02 -0.42170506753E+03  0.44088281386E+03  0.78859491969E+02 0.  0.
         -6    2    1    2    0  503  0.44076797049E+02  0.29361003594E+02 -0.11574752012E+04  0.11714885676E+04  0.17271881800E+03 0.  0.
        -24    2    5    5    0    0 -0.14822152277E+02  0.12592301844E+02 -0.98276739283E+03  0.98629897855E+03  0.81090470642E+02 0.  0.
          4    1    4    4  501    0 -0.37024210685E+02 -0.58946711256E+01 -0.55314091330E+02  0.66822062406E+02  0.00000000000E+00 0. -1.
         -3    1    4    4    0  501 -0.32951771906E+02 -0.67773734307E+02 -0.36639097620E+03  0.37406075145E+03  0.00000000000E+00 0.  1.
          5    1    3    3  502    0  0.25899185542E+02  0.44307401839E+02 -0.24571314635E+03  0.25105966215E+03  0.47000000000E+01 0. -1.
         11    1    6    6    0    0 -0.17326568763E+02 -0.23102796871E+02 -0.77017349644E+03  0.77071470975E+03  0.00000000000E+00 0. -1.
        -12    1    6    6    0    0  0.25044164860E+01  0.35695098715E+02 -0.21259389639E+03  0.21558426880E+03  0.00000000000E+00 0.  1.
         -5    1    5    5    0  503  0.58898949326E+02  0.16768701750E+02 -0.17470780834E+03  0.18518958903E+03  0.47000000000E+01 0.  1.
<mgrwt>
<rscale>  2 0.18210092E+03</rscale>
<asrwt>0</asrwt>
<pdfrwt beam="1">  1       21 0.29644327E-02 0.18258510E+03</pdfrwt>
<pdfrwt beam="2">  1       21 0.28371729E+00 0.18258510E+03</pdfrwt>
<totfact> 0.27597739E+04</totfact>
</mgrwt>
</event>
<event>
12    1  0.1473662E-001  0.2611188E+03  0.7546771E-02  0.1106558E+00
         21   -1    0    0  504  503  0.00000000000E+00  0.00000000000E+00  0.53654327474E+03  0.53654327474E+03  0.00000000000E+00 0.  1.
         21   -1    0    0  502  504 -0.00000000000E+00 -0.00000000000E+00 -0.13865274013E+03  0.13865274013E+03  0.00000000000E+00 0. -1.
          6    2    1    2  502    0  0.87605206262E+02  0.17424395797E+03  0.29784429605E+03  0.39609878347E+03  0.17363004500E+03 0.  0.
         24    2    3    3    0    0 -0.23126167498E+00  0.10865985174E+03  0.95027935867E+02  0.16550588235E+03  0.80962161753E+02 0.  0.
         -6    2    1    2    0  503 -0.87605206262E+02 -0.17424395797E+03  0.10004623856E+03  0.27909723140E+03  0.17277264156E+03 0.  0.
        -24    2    5    5    0    0 -0.12747085729E+03 -0.15421472455E+03  0.80213103928E+02  0.23004742454E+03  0.80353436571E+02 0.  0.
          2    1    4    4  501    0 -0.26368629128E+02  0.53485266763E+02  0.94407549715E+01  0.60374715049E+02  0.00000000000E+00 0. -1.
         -1    1    4    4    0  501  0.26137367453E+02  0.55174584980E+02  0.85587180896E+02  0.10513116730E+03  0.00000000000E+00 0.  1.
          5    1    3    3  502    0  0.87836467937E+02  0.65584106230E+02  0.20281636018E+03  0.23059290112E+03  0.47000000000E+01 0. -1.
         13    1    6    6    0    0 -0.10101390124E+02 -0.25223947377E+02 -0.15326192511E+02  0.31195797483E+02  0.00000000000E+00 0. -1.
        -14    1    6    6    0    0 -0.11736946717E+03 -0.12899077718E+03  0.95539296439E+02  0.19885162706E+03  0.00000000000E+00 0.  1.
         -5    1    5    5    0  503  0.39865651030E+02 -0.20029233419E+02  0.19833134627E+02  0.49049806855E+02  0.47000000000E+01 0.  1.
<mgrwt>
<rscale>  2 0.26097634E+03</rscale>
<asrwt>0</asrwt>
<pdfrwt beam="1">  1       21 0.82545118E-01 0.26111879E+03</pdfrwt>
<pdfrwt beam="2">  1       21 0.21331191E-01 0.26111879E+03</pdfrwt>
<totfact> 0.25298123E+04</totfact>
</mgrwt>
</event>
<event>
12    1  0.1473662E-001  0.2315323E+03  0.7546771E-02  0.1125727E+00
         21   -1    0    0  504  503  0.00000000000E+00  0.00000000000E+00  0.15022352886E+03  0.15022352886E+03  0.00000000000E+00 0.  1.
         21   -1    0    0  502  504 -0.00000000000E+00 -0.00000000000E+00 -0.35765194633E+03  0.35765194633E+03  0.00000000000E+00 0.  1.
          6    2    1    2  502    0  0.15003715176E+03 -0.34703664974E+02 -0.12394958838E+03  0.26262274806E+03  0.17289220939E+03 0.  0.
         24    2    3    3    0    0  0.13982820249E+03 -0.21223674460E+02 -0.15702543091E+03  0.22517900160E+03  0.77757483486E+02 0.  0.
         -6    2    1    2    0  503 -0.15003715176E+03  0.34703664974E+02 -0.83478829091E+02  0.24525272713E+03  0.17165282983E+03 0.  0.
        -24    2    5    5    0    0 -0.54386188448E+02  0.37770479300E+02 -0.10418914073E+03  0.14722457230E+03  0.80219891808E+02 0.  0.
          4    1    4    4  501    0  0.77056211162E+02  0.16327039301E+02 -0.43085643882E+02  0.89780869898E+02  0.00000000000E+00 0. -1.
         -3    1    4    4    0  501  0.62771991331E+02 -0.37550713761E+02 -0.11393978703E+03  0.13539813170E+03  0.00000000000E+00 0.  1.
          5    1    3    3  502    0  0.10208949263E+02 -0.13479990514E+02  0.33075842534E+02  0.37443746455E+02  0.47000000000E+01 0. -1.
         13    1    6    6    0    0  0.23805036267E+01 -0.21570562735E+02 -0.25564225930E+02  0.33533350885E+02  0.00000000000E+00 0. -1.
        -14    1    6    6    0    0 -0.56766692075E+02  0.59341042035E+02 -0.78624914797E+02  0.11369122141E+03  0.00000000000E+00 0.  1.
         -5    1    5    5    0  503 -0.95650963308E+02 -0.30668143264E+01  0.20710311635E+02  0.98028154833E+02  0.47000000000E+01 0.  1.
<mgrwt>
<rscale>  2 0.23130095E+03</rscale>
<asrwt>0</asrwt>
<pdfrwt beam="1">  1       21 0.23111312E-01 0.23153230E+03</pdfrwt>
<pdfrwt beam="2">  1       21 0.55023376E-01 0.23153230E+03</pdfrwt>
<totfact> 0.53844532E+04</totfact>
</mgrwt>
</event>
<event>
12    1  0.1473662E-001  0.2130395E+03  0.7546771E-02  0.1139386E+00
         21   -1    0    0  504  503  0.00000000000E+00  0.00000000000E+00  0.10867438616E+03  0.10867438616E+03  0.00000000000E+00 0.  1.
         21   -1    0    0  502  504 -0.00000000000E+00 -0.00000000000E+00 -0.46155516800E+03  0.46155516800E+03  0.00000000000E+00 0. -1.
          6    2    1    2  502    0 -0.10800374703E+03 -0.60885539635E+02 -0.26603939220E+03  0.34017031177E+03  0.17195064553E+03 0.  0.
         24    2    3    3    0    0 -0.36115917600E+01 -0.60330241292E+02 -0.89485537030E+02  0.13500846295E+03  0.81036054445E+02 0.  0.
         -6    2    1    2    0  503  0.10800374703E+03  0.60885539635E+02 -0.86841389639E+02  0.23005924238E+03  0.17324540324E+03 0.  0.
        -24    2    5    5    0    0  0.13580179652E+03  0.16032341678E+02 -0.52498935265E+02  0.16692418798E+03  0.80052372910E+02 0.  0.
          4    1    4    4  501    0  0.15077885732E+02 -0.16638521307E+02 -0.84260369042E+02  0.87200876260E+02  0.00000000000E+00 0. -1.
         -3    1    4    4    0  501 -0.18689477492E+02 -0.43691719985E+02 -0.52251679876E+01  0.47807586686E+02  0.00000000000E+00 0.  1.
          5    1    3    3  502    0 -0.10439215527E+03 -0.55529834291E+00 -0.17655385517E+03  0.20516184882E+03  0.47000000000E+01 0. -1.
         11    1    6    6    0    0  0.12335860479E+03  0.17023959423E+02 -0.71944841592E+02  0.14381662213E+03  0.00000000000E+00 0. -1.
        -12    1    6    6    0    0  0.12443191736E+02 -0.99161774440E+00  0.19445906328E+02  0.23107565844E+02  0.00000000000E+00 0.  1.
         -5    1    5    5    0  503 -0.27798049495E+02  0.44853197957E+02 -0.34342454374E+02  0.63135054408E+02  0.47000000000E+01 0.  1.
<mgrwt>
<rscale>  2 0.21277612E+03</rscale>
<asrwt>0</asrwt>
<pdfrwt beam="1">  1       21 0.16719137E-01 0.21303950E+03</pdfrwt>
<pdfrwt beam="2">  1       21 0.71008485E-01 0.21303950E+03</pdfrwt>
<totfact> 0.57197027E+04</totfact>
</mgrwt>
</event>
<event>
12    1  0.1473662E-001  0.1764079E+03  0.7546771E-02  0.1171736E+00
         21   -1    0    0  504  503  0.00000000000E+00  0.00000000000E+00  0.53043818710E+02  0.53043818710E+02  0.00000000000E+00 0.  1.
         21   -1    0    0  502  504 -0.00000000000E+00 -0.00000000000E+00 -0.60565910166E+03  0.60565910166E+03  0.00000000000E+00 0.  1.
          6    2    1    2  502    0 -0.24405338781E+02  0.15967852350E+01 -0.34122295826E+03  0.38337318590E+03  0.17304254431E+03 0.  0.
         24    2    3    3    0    0 -0.13847989081E+02 -0.56832919601E+02 -0.28224311052E+03  0.29955075168E+03  0.81533623992E+02 0.  0.
         -6    2    1    2    0  503  0.24405338781E+02 -0.15967852350E+01 -0.21139232469E+03  0.27532973447E+03  0.17470425714E+03 0.  0.
        -24    2    5    5    0    0 -0.27496183897E+02 -0.29180593940E+02 -0.19422248653E+03  0.21391696787E+03  0.80190695706E+02 0.  0.
          2    1    4    4  501    0  0.30488151203E+01  0.14365133597E+02 -0.12789196187E+03  0.12873230460E+03  0.00000000000E+00 0. -1.
         -1    1    4    4    0  501 -0.16896804201E+02 -0.71198053198E+02 -0.15435114865E+03  0.17081844708E+03  0.00000000000E+00 0.  1.
          5    1    3    3  502    0 -0.10557349700E+02  0.58429704836E+02 -0.58979847734E+02  0.83822434220E+02  0.47000000000E+01 0. -1.
         13    1    6    6    0    0 -0.30676940339E+02  0.16510812391E+02 -0.13282374976E+03  0.13731653248E+03  0.00000000000E+00 0. -1.
        -14    1    6    6    0    0  0.31807564421E+01 -0.45691406331E+02 -0.61398736775E+02  0.76600435388E+02  0.00000000000E+00 0.  1.
         -5    1    5    5    0  503  0.51901522678E+02  0.27583808705E+02 -0.17169838163E+02  0.61412766600E+02  0.47000000000E+01 0.  1.
<mgrwt>
<rscale>  2 0.17599508E+03</rscale>
<asrwt>0</asrwt>
<pdfrwt beam="1">  1       21 0.81605872E-02 0.17640790E+03</pdfrwt>
<pdfrwt beam="2">  1       21 0.93178327E-01 0.17640790E+03</pdfrwt>
<totfact> 0.11306765E+05</totfact>
</mgrwt>
</event>
<event>
12    1  0.1473662E-001  0.2566648E+03  0.7546771E-02  0.1109380E+00
         21   -1    0    0  504  503  0.00000000000E+00  0.00000000000E+00  0.71548051517E+03  0.71548051517E+03  0.00000000000E+00 0.  1.
         21   -1    0    0  502  504 -0.00000000000E+00 -0.00000000000E+00 -0.12608399639E+03  0.12608399639E+03  0.00000000000E+00 0.  1.
          6    2    1    2  502    0  0.18745764863E+03 -0.27754661703E+02  0.75127371774E+02  0.26743402101E+03  0.17310731448E+03 0.  0.
         24    2    3    3    0    0  0.17374340780E+03  0.32521169378E+02  0.46773989567E+02  0.19926320250E+03  0.79206183840E+02 0.  0.
         -6    2    1    2    0  503 -0.18745764863E+03  0.27754661703E+02  0.51426914701E+03  0.57413049055E+03  0.17100401556E+03 0.  0.
        -24    2    5    5    0    0 -0.89886311695E+02  0.20845580588E+02  0.42263462457E+03  0.44001532774E+03  0.80494568136E+02 0.  0.
          2    1    4    4  501    0  0.34663600934E+02  0.21255129097E+02  0.43703968220E+02  0.59694074922E+02  0.00000000000E+00 0. -1.
         -1    1    4    4    0  501  0.13907980687E+03  0.11266040281E+02  0.30700213472E+01  0.13956912758E+03  0.00000000000E+00 0.  1.
          5    1    3    3  502    0  0.13714240831E+02 -0.60275831080E+02  0.28353382207E+02  0.68170818512E+02  0.47000000000E+01 0. -1.
         13    1    6    6    0    0 -0.65366686780E+02  0.46435494068E+02  0.21680530395E+03  0.23115708657E+03  0.00000000000E+00 0. -1.
        -14    1    6    6    0    0 -0.24519624915E+02 -0.25589913480E+02  0.20582932062E+03  0.20885824117E+03  0.00000000000E+00 0.  1.
         -5    1    5    5    0  503 -0.97571336938E+02  0.69090811142E+01  0.91634522438E+02  0.13411516281E+03  0.47000000000E+01 0.  1.
<mgrwt>
<rscale>  2 0.25631063E+03</rscale>
<asrwt>0</asrwt>
<pdfrwt beam="1">  1       21 0.11007392E+00 0.25666483E+03</pdfrwt>
<pdfrwt beam="2">  1       21 0.19397538E-01 0.25666483E+03</pdfrwt>
<totfact> 0.15343620E+04</totfact>
</mgrwt>
</event>
<event>
12    1  0.1473662E-001  0.1961705E+03  0.7546771E-02  0.1153331E+00
         21   -1    0    0  504  503  0.00000000000E+00  0.00000000000E+00  0.27642957272E+02  0.27642957272E+02  0.00000000000E+00 0. -1.
         21   -1    0    0  502  504 -0.00000000000E+00 -0.00000000000E+00 -0.15331224763E+04  0.15331224763E+04  0.00000000000E+00 0. -1.
          6    2    1    2  502    0 -0.77738055737E+02 -0.38212824767E+02 -0.10005567482E+04  0.10196061290E+04  0.17600973464E+03 0.  0.
         24    2    3    3    0    0  0.37328070460E+01 -0.67760947991E+02 -0.63677681417E+03  0.64561612452E+03  0.82036511691E+02 0.  0.
         -6    2    1    2    0  503  0.77738055737E+02  0.38212824767E+02 -0.50492277080E+03  0.54115930452E+03  0.17436445483E+03 0.  0.
        -24    2    5    5    0    0  0.73549079796E+02  0.64537223918E+02 -0.49711325882E+03  0.51298839776E+03  0.80380244669E+02 0.  0.
          4    1    4    4  501    0 -0.24842792931E+02 -0.71301264587E+02 -0.39697717094E+03  0.40409393579E+03  0.00000000000E+00 0. -1.
         -3    1    4    4    0  501  0.28575599977E+02  0.35403165955E+01 -0.23979964323E+03  0.24152218873E+03  0.00000000000E+00 0.  1.
          5    1    3    3  502    0 -0.81470862783E+02  0.29548123224E+02 -0.36377993405E+03  0.37399000452E+03  0.47000000000E+01 0. -1.
         13    1    6    6    0    0  0.80195594733E+01  0.42151934424E+02 -0.86284540932E+02  0.96364521032E+02  0.00000000000E+00 0. -1.
        -14    1    6    6    0    0  0.65529520322E+02  0.22385289493E+02 -0.41082871789E+03  0.41662387673E+03  0.00000000000E+00 0.  1.
         -5    1    5    5    0  503  0.41889759411E+01 -0.26324399150E+02 -0.78095119760E+01  0.28170906754E+02  0.47000000000E+01 0.  1.
<mgrwt>
<rscale>  2 0.19580071E+03</rscale>
<asrwt>0</asrwt>
<pdfrwt beam="1">  1       21 0.42527617E-02 0.19617047E+03</pdfrwt>
<pdfrwt beam="2">  1       21 0.23586505E+00 0.19617047E+03</pdfrwt>
<totfact> 0.28429211E+04</totfact>
</mgrwt>
</event>
<event>
12    1  0.1473662E-001  0.1986168E+03  0.7546771E-02  0.1151014E+00
         21   -1    0    0  504  503  0.00000000000E+00  0.00000000000E+00  0.20872485560E+03  0.20872485560E+03  0.00000000000E+00 0.  1.
         21   -1    0    0  502  504 -0.00000000000E+00 -0.00000000000E+00 -0.54305642186E+03  0.54305642186E+03  0.00000000000E+00 0.  1.
          6    2    1    2  502    0  0.66108884624E+02 -0.71326753412E+02 -0.47080385103E+03  0.51079718134E+03  0.17262561786E+03 0.  0.
         24    2    3    3    0    0 -0.92311857483E+01 -0.41879257214E+02 -0.12093314648E+03  0.15166645147E+03  0.80862844423E+02 0.  0.
         -6    2    1    2    0  503 -0.66108884624E+02  0.71326753412E+02  0.13647228477E+03  0.24098409612E+03  0.17317840423E+03 0.  0.
        -24    2    5    5    0    0 -0.49780922683E+01  0.96689568740E+02  0.11796641137E+03  0.17210156186E+03  0.79556390558E+02 0.  0.
          2    1    4    4  501    0  0.65855090430E+01  0.17164989590E+02 -0.27204067043E+01  0.18585112580E+02  0.00000000000E+00 0. -1.
         -1    1    4    4    0  501 -0.15816694791E+02 -0.59044246804E+02 -0.11821273978E+03  0.13308133889E+03  0.00000000000E+00 0.  1.
          5    1    3    3  502    0  0.75340070372E+02 -0.29447496198E+02 -0.34987070455E+03  0.35913072987E+03  0.47000000000E+01 0. -1.
         11    1    6    6    0    0 -0.11514629352E+02  0.27126471286E+02  0.93561008341E+02  0.98092275003E+02  0.00000000000E+00 0. -1.
        -12    1    6    6    0    0  0.65365370832E+01  0.69563097454E+02  0.24405403025E+02  0.74009286858E+02  0.00000000000E+00 0.  1.
         -5    1    5    5    0  503 -0.61130792355E+02 -0.25362815328E+02  0.18505873405E+02  0.68882534258E+02  0.47000000000E+01 0.  1.
<mgrwt>
<rscale>  2 0.19849628E+03</rscale>
<asrwt>0</asrwt>
<pdfrwt beam="1">  1       21 0.32111516E-01 0.19861684E+03</pdfrwt>
<pdfrwt beam="2">  1       21 0.83547142E-01 0.19861684E+03</pdfrwt>
<totfact> 0.11579597E+04</totfact>
</mgrwt>
</event>
<event>
12    1  0.1473662E-001  0.2528337E+03  0.7546771E-02  0.1111836E+00
         21   -1    0    0  504  503  0.00000000000E+00  0.00000000000E+00  0.17536710245E+03  0.17536710245E+03  0.00000000000E+00 0.  1.
         21   -1    0    0  502  504 -0.00000000000E+00 -0.00000000000E+00 -0.44480511063E+03  0.44480511063E+03  0.00000000000E+00 0. -1.
          6    2    1    2  502    0 -0.73232167072E+02  0.16878100000E+03 -0.26834068199E+03  0.36733609877E+03  0.17052598511E+03 0.  0.
         24    2    3    3    0    0 -0.68586805483E+02  0.17030804315E+03 -0.15356603660E+03  0.25236122992E+03  0.79966763843E+02 0.  0.
         -6    2    1    2    0  503  0.73232167072E+02 -0.16878100000E+03 -0.10973261958E+01  0.25283611431E+03  0.17342122222E+03 0.  0.
        -24    2    5    5    0    0  0.96011225347E+02 -0.16380587654E+03  0.35221955727E+02  0.20942162838E+03  0.81032781542E+02 0.  0.
          4    1    4    4  501    0 -0.85147608754E+02  0.15412494172E+03 -0.12689535598E+03  0.21704157276E+03  0.00000000000E+00 0. -1.
         -3    1    4    4    0  501  0.16560803271E+02  0.16183101431E+02 -0.26670680622E+02  0.35319657158E+02  0.00000000000E+00 0.  1.
          5    1    3    3  502    0 -0.46453615894E+01 -0.15270431487E+01 -0.11477464539E+03  0.11497486886E+03  0.47000000000E+01 0. -1.
         11    1    6    6    0    0  0.24419429265E+02 -0.72536428251E+02 -0.22610459720E+02  0.79806483683E+02  0.00000000000E+00 0. -1.
        -12    1    6    6    0    0  0.71591796082E+02 -0.91269448289E+02  0.57832415447E+02  0.12961514469E+03  0.00000000000E+00 0.  1.
         -5    1    5    5    0  503 -0.22779058275E+02 -0.49751234622E+01 -0.36319281922E+02  0.43414485932E+02  0.47000000000E+01 0.  1.
<mgrwt>
<rscale>  2 0.25233802E+03</rscale>
<asrwt>0</asrwt>
<pdfrwt beam="1">  1       21 0.26979555E-01 0.25283373E+03</pdfrwt>
<pdfrwt beam="2">  1       21 0.68431554E-01 0.25283373E+03</pdfrwt>
<totfact> 0.24702596E+04</totfact>
</mgrwt>
</event>
<event>
12    1  0.1473662E-001  0.2621005E+03  0.7546771E-02  0.1106897E+00
         21   -1    0    0  504  503  0.00000000000E+00  0.00000000000E+00  0.17370967073E+04  0.17370967073E+04  0.00000000000E+00 0. -1.
         21   -1    0    0  502  504 -0.00000000000E+00 -0.00000000000E+00 -0.44992882653E+02  0.44992882653E+02  0.00000000000E+00 0. -1.
          6    2    1    2  502    0 -0.16838738147E+03  0.83602906642E+02  0.11740227202E+04  0.12014823892E+04  0.17287807204E+03 0.  0.
         24    2    3    3    0    0 -0.93720485905E+02 -0.30924888065E+01  0.38810823457E+03  0.40726900125E+03  0.80292868136E+02 0.  0.
         -6    2    1    2    0  503  0.16838738147E+03 -0.83602906642E+02  0.51808110447E+03  0.58060720077E+03  0.18262785806E+03 0.  0.
        -24    2    5    5    0    0  0.20884821813E+02 -0.67885038192E+02  0.25940644445E+03  0.28238123572E+03  0.86040134066E+02 0.  0.
          2    1    4    4  501    0  0.25366410930E+01  0.20275600408E+02  0.34974026504E+02  0.40505765637E+02  0.00000000000E+00 0. -1.
         -1    1    4    4    0  501 -0.96257126998E+02 -0.23368089215E+02  0.35313420806E+03  0.36676323561E+03  0.00000000000E+00 0.  1.
          5    1    3    3  502    0 -0.74666895570E+02  0.86695395448E+02  0.78591448564E+03  0.79421338797E+03  0.47000000000E+01 0. -1.
         13    1    6    6    0    0  0.37320014974E+02 -0.29484648703E+02  0.50624504983E+02  0.69461993432E+02  0.00000000000E+00 0. -1.
        -14    1    6    6    0    0 -0.16435193161E+02 -0.38400389488E+02  0.20878193947E+03  0.21291924229E+03  0.00000000000E+00 0.  1.
         -5    1    5    5    0  503  0.14750255966E+03 -0.15717868450E+02  0.25867466002E+03  0.29822596505E+03  0.47000000000E+01 0.  1.
<mgrwt>
<rscale>  2 0.26040981E+03</rscale>
<asrwt>0</asrwt>
<pdfrwt beam="1">  1       21 0.26724560E+00 0.26210054E+03</pdfrwt>
<pdfrwt beam="2">  1       21 0.69219833E-02 0.26210054E+03</pdfrwt>
<totfact> 0.76464284E+03</totfact>
</mgrwt>
</event>
<event>
12    1  0.1473662E-001  0.1872744E+03  0.7546771E-02  0.1161110E+00
         21   -1    0    0  504  503  0.00000000000E+00  0.00000000000E+00  0.17621211006E+03  0.17621211006E+03  0.00000000000E+00 0. -1.
         21   -1    0    0  502  504 -0.00000000000E+00 -0.00000000000E+00 -0.37105097586E+03  0.37105097586E+03  0.00000000000E+00 0. -1.
          6    2    1    2  502    0 -0.56079250301E+02  0.41341103039E+02 -0.28404612715E+03  0.33982720883E+03  0.17305016729E+03 0.  0.
         24    2    3    3    0    0  0.31543780816E+02  0.92587902028E+01 -0.18541780594E+03  0.20397174842E+03  0.78383519243E+02 0.  0.
         -6    2    1    2    0  503  0.56079250301E+02 -0.41341103039E+02  0.89207261345E+02  0.20743587709E+03  0.17383250131E+03 0.  0.
        -24    2    5    5    0    0  0.16464102718E+02  0.59979971072E+01 -0.17109342637E+02  0.84408804446E+02  0.80777930247E+02 0.  0.
          4    1    4    4  501    0  0.18069718643E+02  0.15425468021E+02 -0.18750774802E+03  0.18900691883E+03  0.00000000000E+00 0. -1.
         -3    1    4    4    0  501  0.13474062173E+02 -0.61666778182E+01  0.20899420842E+01  0.14964829591E+02  0.00000000000E+00 0.  1.
          5    1    3    3  502    0 -0.87623031117E+02  0.32082312836E+02 -0.98628321209E+02  0.13585546041E+03  0.47000000000E+01 0. -1.
         13    1    6    6    0    0  0.54883385478E+01 -0.30519588920E+02 -0.30980038573E+02  0.43832977971E+02  0.00000000000E+00 0. -1.
        -14    1    6    6    0    0  0.10975764170E+02  0.36517586027E+02  0.13870695937E+02  0.40575826475E+02  0.00000000000E+00 0.  1.
         -5    1    5    5    0  503  0.39615147584E+02 -0.47339100146E+02  0.10631660398E+03  0.12302707264E+03  0.47000000000E+01 0.  1.
<mgrwt>
<rscale>  2 0.18709267E+03</rscale>
<asrwt>0</asrwt>
<pdfrwt beam="1">  1       21 0.27109555E-01 0.18727442E+03</pdfrwt>
<pdfrwt beam="2">  1       21 0.57084766E-01 0.18727442E+03</pdfrwt>
<totfact> 0.37481029E+04</totfact>
</mgrwt>
</event>
<event>
12    1  0.1473662E-001  0.1898858E+03  0.7546771E-02  0.1158844E+00
         21   -1    0    0  504  503  0.00000000000E+00  0.00000000000E+00  0.31966440678E+03  0.31966440678E+03  0.00000000000E+00 0.  1.
         21   -1    0    0  502  504 -0.00000000000E+00 -0.00000000000E+00 -0.11385738848E+03  0.11385738848E+03  0.00000000000E+00 0.  1.
          6    2    1    2  502    0 -0.74152910221E+02 -0.13051178958E+02  0.13045516675E+03  0.23038052065E+03  0.17432052776E+03 0.  0.
         24    2    3    3    0    0 -0.98362274516E+02 -0.52610256739E+02  0.11678330567E+03  0.18180044511E+03  0.83487036099E+02 0.  0.
         -6    2    1    2    0  503  0.74152910221E+02  0.13051178958E+02  0.75351851557E+02  0.20314127461E+03  0.17297250807E+03 0.  0.
        -24    2    5    5    0    0  0.13162953601E+02 -0.55631282303E+02  0.47210435316E+02  0.10695871589E+03  0.77092404188E+02 0.  0.
          2    1    4    4  501    0 -0.43413039238E+02 -0.42884009232E+02  0.10972558239E+03  0.12555251354E+03  0.00000000000E+00 0. -1.
         -1    1    4    4    0  501 -0.54949235279E+02 -0.97262475068E+01  0.70577232743E+01  0.56247931572E+02  0.00000000000E+00 0.  1.
          5    1    3    3  502    0  0.24209364296E+02  0.39559077780E+02  0.13671861082E+02  0.48580075544E+02  0.47000000000E+01 0. -1.
         13    1    6    6    0    0 -0.11629193653E+02  0.85422072430E+01 -0.99396047805E+01  0.17521506579E+02  0.00000000000E+00 0. -1.
        -14    1    6    6    0    0  0.24792147254E+02 -0.64173489546E+02  0.57150040097E+02  0.89437209309E+02  0.00000000000E+00 0.  1.
         -5    1    5    5    0  503  0.60989956620E+02  0.68682461261E+02  0.28141416241E+02  0.96182558717E+02  0.47000000000E+01 0.  1.
<mgrwt>
<rscale>  2 0.18957590E+03</rscale>
<asrwt>0</asrwt>
<pdfrwt beam="1">  1       21 0.49179139E-01 0.18988584E+03</pdfrwt>
<pdfrwt beam="2">  1       21 0.17516521E-01 0.18988584E+03</pdfrwt>
<totfact> 0.11656095E+05</totfact>
</mgrwt>
</event>
<event>
12    1  0.1473662E-001  0.2203775E+03  0.7546771E-02  0.1134082E+00
         21   -1    0    0  504  503  0.00000000000E+00  0.00000000000E+00  0.45268330280E+02  0.45268330280E+02  0.00000000000E+00 0.  1.
         21   -1    0    0  502  504 -0.00000000000E+00 -0.00000000000E+00 -0.13771036382E+04  0.13771036382E+04  0.00000000000E+00 0.  1.
          6    2    1    2  502    0  0.11182699444E+03 -0.75365156575E+02 -0.32786892985E+03  0.39504972958E+03  0.17430166426E+03 0.  0.
         24    2    3    3    0    0  0.12756329090E+03 -0.10249761041E+03 -0.30786901927E+03  0.35755456321E+03  0.79270292792E+02 0.  0.
         -6    2    1    2    0  503 -0.11182699444E+03  0.75365156575E+02 -0.10039663781E+04  0.10273222390E+04  0.17104768560E+03 0.  0.
        -24    2    5    5    0    0 -0.57060724542E+02  0.12087200153E+02 -0.25500014239E+03  0.27368044318E+03  0.80460460253E+02 0.  0.
          4    1    4    4  501    0  0.97642762619E+01 -0.36927945411E+02 -0.12268175674E+03  0.12849057428E+03  0.00000000000E+00 0. -1.
         -3    1    4    4    0  501  0.11779901464E+03 -0.65569665000E+02 -0.18518726253E+03  0.22906398893E+03  0.00000000000E+00 0.  1.
          5    1    3    3  502    0 -0.15736296462E+02  0.27132453836E+02 -0.19999910583E+02  0.37495166366E+02  0.47000000000E+01 0. -1.
         11    1    6    6    0    0 -0.37177490854E+02 -0.81590190750E+01 -0.23708632027E+03  0.24012217448E+03  0.00000000000E+00 0. -1.
        -12    1    6    6    0    0 -0.19883233689E+02  0.20246219228E+02 -0.17913822128E+02  0.33558268701E+02  0.00000000000E+00 0.  1.
         -5    1    5    5    0  503 -0.54766269901E+02  0.63277956422E+02 -0.74896623572E+03  0.75364179577E+03  0.47000000000E+01 0.  1.
<mgrwt>
<rscale>  2 0.21973357E+03</rscale>
<asrwt>0</asrwt>
<pdfrwt beam="1">  1       21 0.69643585E-02 0.22037753E+03</pdfrwt>
<pdfrwt beam="2">  1       21 0.21186210E+00 0.22037753E+03</pdfrwt>
<totfact> 0.16873829E+04</totfact>
</mgrwt>
</event>
<event>
12    1  0.1473662E-001  0.2698404E+03  0.7546771E-02  0.1101377E+00
         21   -1    0    0  504  503  0.00000000000E+00  0.00000000000E+00  0.15110527428E+03  0.15110527428E+03  0.00000000000E+00 0.  1.
         21   -1    0    0  502  504 -0.00000000000E+00 -0.00000000000E+00 -0.94583200965E+03  0.94583200965E+03  0.00000000000E+00 0.  1.
          6    2    1    2  502    0  0.27844550959E+02  0.20548645122E+03 -0.78151409354E+03  0.82677357297E+03  0.17259855709E+03 0.  0.
         24    2    3    3    0    0 -0.13171833105E+02  0.59319970760E+02 -0.46664073837E+03  0.47718194897E+03  0.79099163095E+02 0.  0.
         -6    2    1    2    0  503 -0.27844550959E+02 -0.20548645122E+03 -0.13212641837E+02  0.27016371095E+03  0.17266689364E+03 0.  0.
        -24    2    5    5    0    0  0.43839033271E+02 -0.86119129799E+02  0.21548186845E+02  0.12657576270E+03  0.78858949981E+02 0.  0.
          2    1    4    4  501    0 -0.44987381152E+02  0.35288881884E+02 -0.32697621591E+03  0.33193766797E+03  0.00000000000E+00 0. -1.
         -1    1    4    4    0  501  0.31815548047E+02  0.24031088876E+02 -0.13966452246E+03  0.14524428100E+03  0.00000000000E+00 0.  1.
          5    1    3    3  502    0  0.41016384064E+02  0.14616648046E+03 -0.31487335517E+03  0.34959162400E+03  0.47000000000E+01 0. -1.
         13    1    6    6    0    0  0.55912197537E+02 -0.58105642044E+02 -0.11668279330E+02  0.81477531954E+02  0.00000000000E+00 0. -1.
        -14    1    6    6    0    0 -0.12073164266E+02 -0.28013487755E+02  0.33216466175E+02  0.45098230750E+02  0.00000000000E+00 0.  1.
         -5    1    5    5    0  503 -0.71683584230E+02 -0.11936732143E+03 -0.34760828682E+02  0.14358794825E+03  0.47000000000E+01 0.  1.
<mgrwt>
<rscale>  2 0.26982950E+03</rscale>
<asrwt>0</asrwt>
<pdfrwt beam="1">  1       21 0.23246965E-01 0.26984043E+03</pdfrwt>
<pdfrwt beam="2">  1       21 0.14551262E+00 0.26984043E+03</pdfrwt>
<totfact> 0.53276637E+03</totfact>
</mgrwt>
</event>
<event>
12    1  0.1473662E-001  0.1794729E+03  0.7546771E-02  0.1169548E+00
         21   -1    0    0  504  503  0.00000000000E+00  0.00000000000E+00  0.53463524522E+03  0.53463524522E+03  0.00000000000E+00 0.  1.
         21   -1    0    0  502  504 -0.00000000000E+00 -0.00000000000E+00 -0.13465279325E+03  0.13465279325E+03  0.00000000000E+00 0.  1.
          6    2    1    2  502    0  0.15176977645E+02 -0.17055111861E+02 -0.52759110378E+02  0.18227113858E+03  0.17296828247E+03 0.  0.
         24    2    3    3    0    0 -0.55708101520E+00  0.19173583189E+02  0.21938096891E+02  0.97643473362E+02  0.93193514600E+02 0.  0.
         -6    2    1    2    0  503 -0.15176977645E+02  0.17055111861E+02  0.45274156234E+03  0.48701689989E+03  0.17801494604E+03 0.  0.
        -24    2    5    5    0    0 -0.15451133790E+02  0.43443313874E+02  0.45078356708E+03  0.46014058853E+03  0.79984234706E+02 0.  0.
          4    1    4    4  501    0 -0.25247987927E+02  0.33341235938E+02  0.44686001602E+02  0.61204065611E+02  0.00000000000E+00 0. -1.
         -3    1    4    4    0  501  0.24690906912E+02 -0.14167652749E+02 -0.22747904710E+02  0.36439407751E+02  0.00000000000E+00 0.  1.
          5    1    3    3  502    0  0.15734058660E+02 -0.36228695050E+02 -0.74697207269E+02  0.84627665221E+02  0.47000000000E+01 0. -1.
         11    1    6    6    0    0 -0.32010091817E+01  0.55207471185E+01 -0.11234608512E+01  0.64797587001E+01  0.00000000000E+00 0. -1.
        -12    1    6    6    0    0 -0.12250124608E+02  0.37922566755E+02  0.45190702793E+03  0.45366082983E+03  0.00000000000E+00 0.  1.
         -5    1    5    5    0  503  0.27415614524E+00 -0.26388202013E+02  0.19579952604E+01  0.26876311363E+02  0.47000000000E+01 0.  1.
<mgrwt>
<rscale>  2 0.17820853E+03</rscale>
<asrwt>0</asrwt>
<pdfrwt beam="1">  1       21 0.82251575E-01 0.17947295E+03</pdfrwt>
<pdfrwt beam="2">  1       21 0.20715815E-01 0.17947295E+03</pdfrwt>
<totfact> 0.28121140E+04</totfact>
</mgrwt>
</event>
<event>
12    1  0.1473662E-001  0.2267602E+03  0.7546771E-02  0.1131070E+00
         21   -1    0    0  504  503  0.00000000000E+00  0.00000000000E+00  0.41850220361E+02  0.41850220361E+02  0.00000000000E+00 0. -1.
         21   -1    0    0  502  504 -0.00000000000E+00 -0.00000000000E+00 -0.12947990742E+04  0.12947990742E+04  0.00000000000E+00 0. -1.
          6    2    1    2  502    0 -0.85780936075E+01  0.12792289364E+03 -0.85121916542E+03  0.88090537129E+03  0.18703570565E+03 0.  0.
         24    2    3    3    0    0  0.53236671864E+02  0.85700728002E+02 -0.70198901488E+03  0.71388589838E+03  0.81643988678E+02 0.  0.
         -6    2    1    2    0  503  0.85780936075E+01 -0.12792289364E+03 -0.40172968846E+03  0.45574392331E+03  0.17285233766E+03 0.  0.
        -24    2    5    5    0    0 -0.34317010693E+02 -0.87549093373E+02 -0.36794543349E+03  0.38767410911E+03  0.77877287311E+02 0.  0.
          4    1    4    4  501    0 -0.14717254025E+01  0.46554724067E+02 -0.47108549480E+03  0.47338256381E+03  0.00000000000E+00 0. -1.
         -3    1    4    4    0  501  0.54708397266E+02  0.39146003935E+02 -0.23090352008E+03  0.24050333457E+03  0.00000000000E+00 0.  1.
          5    1    3    3  502    0 -0.61814765471E+02  0.42222165633E+02 -0.14923015054E+03  0.16701947291E+03  0.47000000000E+01 0. -1.
         13    1    6    6    0    0 -0.54465783845E+02 -0.80079492513E+02 -0.25646441339E+03  0.27414091644E+03  0.00000000000E+00 0. -1.
        -14    1    6    6    0    0  0.20148773152E+02 -0.74696008605E+01 -0.11148102010E+03  0.11353319268E+03  0.00000000000E+00 0.  1.
         -5    1    5    5    0  503  0.42895104300E+02 -0.40373800262E+02 -0.33784254974E+02  0.68069814196E+02  0.47000000000E+01 0.  1.
<mgrwt>
<rscale>  2 0.22381609E+03</rscale>
<asrwt>0</asrwt>
<pdfrwt beam="1">  1       21 0.64384954E-02 0.22676024E+03</pdfrwt>
<pdfrwt beam="2">  1       21 0.19919986E+00 0.22676024E+03</pdfrwt>
<totfact> 0.23171826E+04</totfact>
</mgrwt>
</event>
<event>
12    1  0.1473662E-001  0.2059220E+03  0.7546771E-02  0.1145298E+00
         21   -1    0    0  504  503  0.00000000000E+00  0.00000000000E+00  0.50853528900E+02  0.50853528900E+02  0.00000000000E+00 0.  1.
         21   -1    0    0  502  504 -0.00000000000E+00 -0.00000000000E+00 -0.82826170698E+03  0.82826170698E+03  0.00000000000E+00 0.  1.
          6    2    1    2  502    0  0.96082217607E+02  0.46831903351E+02 -0.35784358396E+03  0.41174137698E+03  0.17336063919E+03 0.  0.
         24    2    3    3    0    0  0.45288066072E+02  0.67294693646E+02 -0.33264456779E+03  0.35127773474E+03  0.78511487830E+02 0.  0.
         -6    2    1    2    0  503 -0.96082217607E+02 -0.46831903351E+02 -0.41956459412E+03  0.46737385890E+03  0.17600811242E+03 0.  0.
        -24    2    5    5    0    0 -0.12524120997E+03 -0.31555794080E+02 -0.23516112494E+03  0.27999633679E+03  0.80100344051E+02 0.  0.
          4    1    4    4  501    0  0.48618136038E+02  0.69042308468E+02 -0.18253250263E+03  0.20111856709E+03  0.00000000000E+00 0. -1.
         -3    1    4    4    0  501 -0.33300699652E+01 -0.17476148215E+01 -0.15011206516E+03  0.15015916765E+03  0.00000000000E+00 0.  1.
          5    1    3    3  502    0  0.50794151535E+02 -0.20462790296E+02 -0.25199016173E+02  0.60463642240E+02  0.47000000000E+01 0. -1.
         11    1    6    6    0    0 -0.38316396877E+02  0.25523419079E+02 -0.93977474209E+02  0.10464873076E+03  0.00000000000E+00 0. -1.
        -12    1    6    6    0    0 -0.86924813089E+02 -0.57079213158E+02 -0.14118365074E+03  0.17534760603E+03  0.00000000000E+00 0.  1.
         -5    1    5    5    0  503  0.29158992359E+02 -0.15276109271E+02 -0.18440346917E+03  0.18737752211E+03  0.47000000000E+01 0.  1.
<mgrwt>
<rscale>  2 0.20535512E+03</rscale>
<asrwt>0</asrwt>
<pdfrwt beam="1">  1       21 0.78236201E-02 0.20592201E+03</pdfrwt>
<pdfrwt beam="2">  1       21 0.12742487E+00 0.20592201E+03</pdfrwt>
<totfact> 0.56315624E+04</totfact>
</mgrwt>
</event>
<event>
12    1  0.1473662E-001  0.2031020E+03  0.7546771E-02  0.1147569E+00
         21   -1    0    0  504  503  0.00000000000E+00  0.00000000000E+00  0.19338550593E+03  0.19338550593E+03  0.00000000000E+00 0. -1.
         21   -1    0    0  502  504 -0.00000000000E+00 -0.00000000000E+00 -0.21831530203E+03  0.21831530203E+03  0.00000000000E+00 0. -1.
          6    2    1    2  502    0  0.70264869675E+02  0.74277106353E+02 -0.49601342757E+02  0.20710582422E+03  0.17314239453E+03 0.  0.
         24    2    3    3    0    0  0.64289130365E+02  0.39793118358E+02  0.34974633331E+02  0.11545408872E+03  0.79936456478E+02 0.  0.
         -6    2    1    2    0  503 -0.70264869675E+02 -0.74277106353E+02  0.24671546659E+02  0.20459498374E+03  0.17548840907E+03 0.  0.
        -24    2    5    5    0    0 -0.75493696193E+02 -0.98565050980E+02  0.62646963487E+02  0.15897188472E+03  0.77026298480E+02 0.  0.
          4    1    4    4  501    0  0.48582202306E+02  0.63496362109E+02  0.34337359862E+02  0.87011911048E+02  0.00000000000E+00 0. -1.
         -3    1    4    4    0  501  0.15706928060E+02 -0.23703243751E+02  0.63727346918E+00  0.28442177674E+02  0.00000000000E+00 0.  1.
          5    1    3    3  502    0  0.59757393098E+01  0.34483987995E+02 -0.84575976088E+02  0.91651735497E+02  0.47000000000E+01 0. -1.
         11    1    6    6    0    0 -0.51270893373E+02 -0.10764950298E+03  0.44055412904E+02  0.12711411961E+03  0.00000000000E+00 0. -1.
        -12    1    6    6    0    0 -0.24222802821E+02  0.90844519976E+01  0.18591550583E+02  0.31857765108E+02  0.00000000000E+00 0.  1.
         -5    1    5    5    0  503  0.52288265181E+01  0.24287944627E+02 -0.37975416829E+02  0.45623099021E+02  0.47000000000E+01 0.  1.
<mgrwt>
<rscale>  2 0.20259420E+03</rscale>
<asrwt>0</asrwt>
<pdfrwt beam="1">  1       21 0.29751616E-01 0.20310200E+03</pdfrwt>
<pdfrwt beam="2">  1       21 0.33586969E-01 0.20310200E+03</pdfrwt>
<totfact> 0.92074501E+04</totfact>
</mgrwt>
</event>
<event>
12    1  0.1473662E-001  0.1887369E+03  0.7546771E-02  0.1159642E+00
         21   -1    0    0  504  503  0.00000000000E+00  0.00000000000E+00  0.46884026178E+03  0.46884026178E+03  0.00000000000E+00 0. -1.
         21   -1    0    0  502  504 -0.00000000000E+00 -0.00000000000E+00 -0.87759688036E+02  0.87759688036E+02  0.00000000000E+00 0. -1.
          6    2    1    2  502    0 -0.16070203376E+02  0.75070090811E+02  0.88361738845E+02  0.20839721748E+03  0.17241761335E+03 0.  0.
         24    2    3    3    0    0 -0.63280805619E+02  0.26543269829E+01  0.55231823504E+02  0.11570112746E+03  0.79527924382E+02 0.  0.
         -6    2    1    2    0  503  0.16070203376E+02 -0.75070090811E+02  0.29271883489E+03  0.34820273233E+03  0.17224127417E+03 0.  0.
        -24    2    5    5    0    0 -0.30490614704E+02 -0.10236014531E+03  0.22755770856E+03  0.26346360771E+03  0.78887799642E+02 0.  0.
          2    1    4    4  501    0 -0.47922680882E+02 -0.24666330345E+02  0.20087737559E+01  0.53935576085E+02  0.00000000000E+00 0. -1.
         -1    1    4    4    0  501 -0.15358124737E+02  0.27320657328E+02  0.53223049748E+02  0.61765551376E+02  0.00000000000E+00 0.  1.
          5    1    3    3  502    0  0.47210602242E+02  0.72415763828E+02  0.33129915341E+02  0.92696090022E+02  0.47000000000E+01 0. -1.
         11    1    6    6    0    0  0.68168519575E+01 -0.51584220389E+02  0.17118520423E+03  0.17891834844E+03  0.00000000000E+00 0. -1.
        -12    1    6    6    0    0 -0.37307466662E+02 -0.50775924923E+02  0.56372504330E+02  0.84545259269E+02  0.00000000000E+00 0.  1.
         -5    1    5    5    0  503  0.46560818081E+02  0.27290054500E+02  0.65161126337E+02  0.84739124615E+02  0.47000000000E+01 0.  1.
<mgrwt>
<rscale>  2 0.18869658E+03</rscale>
<asrwt>0</asrwt>
<pdfrwt beam="1">  1       21 0.72129270E-01 0.18873686E+03</pdfrwt>
<pdfrwt beam="2">  1       21 0.13501491E-01 0.18873686E+03</pdfrwt>
<totfact> 0.82466343E+04</totfact>
</mgrwt>
</event>
<event>
12    1  0.1473662E-001  0.2218030E+03  0.7546771E-02  0.1132884E+00
         21   -1    0    0  504  503  0.00000000000E+00  0.00000000000E+00  0.27927775113E+03  0.27927775113E+03  0.00000000000E+00 0.  1.
         21   -1    0    0  502  504 -0.00000000000E+00 -0.00000000000E+00 -0.18740938092E+03  0.18740938092E+03  0.00000000000E+00 0. -1.
          6    2    1    2  502    0  0.31106718541E+02 -0.12561678042E+03 -0.14981769894E+02  0.22048897007E+03  0.17788684333E+03 0.  0.
         24    2    3    3    0    0  0.79045293935E+02 -0.11137996653E+03 -0.42490884048E+02  0.16322087038E+03  0.78625198641E+02 0.  0.
         -6    2    1    2    0  503 -0.31106718541E+02  0.12561678042E+03  0.10685014010E+03  0.24619816198E+03  0.18013711184E+03 0.  0.
        -24    2    5    5    0    0  0.18656254324E+02  0.29381560660E+02  0.11359121982E+03  0.13754687047E+03  0.69316985108E+02 0.  0.
          4    1    4    4  501    0  0.40555017211E+02 -0.10501490019E+03 -0.50520217316E+02  0.12339015780E+03  0.00000000000E+00 0. -1.
         -3    1    4    4    0  501  0.38490276724E+02 -0.63650663381E+01  0.80293332684E+01  0.39830712579E+02  0.00000000000E+00 0.  1.
          5    1    3    3  502    0 -0.47938575394E+02 -0.14236813889E+02  0.27509114154E+02  0.57268099689E+02  0.47000000000E+01 0. -1.
         13    1    6    6    0    0  0.36721494373E+02  0.36603160426E+02  0.54006089663E+02  0.74865995104E+02  0.00000000000E+00 0. -1.
        -14    1    6    6    0    0 -0.18065240050E+02 -0.72215997667E+01  0.59585130153E+02  0.62680875366E+02  0.00000000000E+00 0.  1.
         -5    1    5    5    0  503 -0.49762972865E+02  0.96235219761E+02 -0.67410797148E+01  0.10865129151E+03  0.47000000000E+01 0.  1.
<mgrwt>
<rscale>  2 0.22134571E+03</rscale>
<asrwt>0</asrwt>
<pdfrwt beam="1">  1       21 0.42965808E-01 0.22180303E+03</pdfrwt>
<pdfrwt beam="2">  1       21 0.28832212E-01 0.22180303E+03</pdfrwt>
<totfact> 0.59182118E+04</totfact>
</mgrwt>
</event>
<event>
12    1  0.1473662E-001  0.2592691E+03  0.7546771E-02  0.1107717E+00
         21   -1    0    0  504  503  0.00000000000E+00  0.00000000000E+00  0.36035364342E+03  0.36035364342E+03  0.00000000000E+00 0. -1.
         21   -1    0    0  502  504 -0.00000000000E+00 -0.00000000000E+00 -0.26274708223E+03  0.26274708223E+03  0.00000000000E+00 0. -1.
          6    2    1    2  502    0  0.14895333231E+03  0.12191448514E+03 -0.11974234395E+03  0.28477982854E+03  0.17236903700E+03 0.  0.
         24    2    3    3    0    0  0.13470431318E+03  0.41960511862E+02 -0.31701141740E+02  0.16490899941E+03  0.79272183991E+02 0.  0.
         -6    2    1    2    0  503 -0.14895333231E+03 -0.12191448514E+03  0.21734890514E+03  0.33832089711E+03  0.17369584325E+03 0.  0.
        -24    2    5    5    0    0 -0.14394976899E+03 -0.54061935732E+02  0.20770920581E+03  0.26944406566E+03  0.76241468066E+02 0.  0.
          4    1    4    4  501    0  0.12616070528E+03  0.77037544413E+01 -0.27512192102E+02  0.12935529406E+03  0.00000000000E+00 0. -1.
         -3    1    4    4    0  501  0.85436079050E+01  0.34256757420E+02 -0.41889496384E+01  0.35553705349E+02  0.00000000000E+00 0.  1.
          5    1    3    3  502    0  0.14249019132E+02  0.79953973283E+02 -0.88041202207E+02  0.11987082913E+03  0.47000000000E+01 0. -1.
         11    1    6    6    0    0 -0.44591742296E+02  0.11862896129E+02  0.93822769396E+02  0.10455555386E+03  0.00000000000E+00 0. -1.
        -12    1    6    6    0    0 -0.99358026693E+02 -0.65924831861E+02  0.11388643642E+03  0.16488851180E+03  0.00000000000E+00 0.  1.
         -5    1    5    5    0  503 -0.50035633247E+01 -0.67852549413E+02  0.96396993273E+01  0.68876831452E+02  0.47000000000E+01 0.  1.
<mgrwt>
<rscale>  2 0.25904709E+03</rscale>
<asrwt>0</asrwt>
<pdfrwt beam="1">  1       21 0.55439022E-01 0.25926913E+03</pdfrwt>
<pdfrwt beam="2">  1       21 0.40422628E-01 0.25926913E+03</pdfrwt>
<totfact> 0.17436383E+04</totfact>
</mgrwt>
</event>
<event>
12    1  0.1473662E-001  0.1881118E+03  0.7546771E-02  0.1160462E+00
         21   -1    0    0  504  503  0.00000000000E+00  0.00000000000E+00  0.13435533687E+03  0.13435533687E+03  0.00000000000E+00 0.  1.
         21   -1    0    0  502  504 -0.00000000000E+00 -0.00000000000E+00 -0.26188797173E+03  0.26188797173E+03  0.00000000000E+00 0. -1.
          6    2    1    2  502    0  0.63194311761E+02  0.38408176153E+02 -0.57331915603E+02  0.19545935232E+03  0.17160623773E+03 0.  0.
         24    2    3    3    0    0  0.43383544425E+02  0.35836451886E+02  0.32318800463E+02  0.10348967710E+03  0.80617772192E+02 0.  0.
         -6    2    1    2    0  503 -0.63194311761E+02 -0.38408176153E+02 -0.70200719256E+02  0.20078395628E+03  0.17296631777E+03 0.  0.
        -24    2    5    5    0    0  0.26842333964E+01  0.16219685018E+02 -0.90133808101E+02  0.11278620654E+03  0.65774932403E+02 0.  0.
          2    1    4    4  501    0 -0.11332581599E+02  0.25645644668E+02  0.38350542780E+02  0.47506742971E+02  0.00000000000E+00 0. -1.
         -1    1    4    4    0  501  0.54716126024E+02  0.10190807218E+02 -0.60317423175E+01  0.55982934134E+02  0.00000000000E+00 0.  1.
          5    1    3    3  502    0  0.19810767336E+02  0.25717242669E+01 -0.89650716066E+02  0.91969675216E+02  0.47000000000E+01 0. -1.
         11    1    6    6    0    0 -0.26876410894E+02  0.24446855230E+02 -0.40263712803E+02  0.54232432749E+02  0.00000000000E+00 0. -1.
        -12    1    6    6    0    0  0.29560644290E+02 -0.82271702119E+01 -0.49870095298E+02  0.58553773795E+02  0.00000000000E+00 0.  1.
         -5    1    5    5    0  503 -0.65878545157E+02 -0.54627861171E+02  0.19933088845E+02  0.87997749739E+02  0.47000000000E+01 0.  1.
<mgrwt>
<rscale>  2 0.18779858E+03</rscale>
<asrwt>0</asrwt>
<pdfrwt beam="1">  1       21 0.20670052E-01 0.18811182E+03</pdfrwt>
<pdfrwt beam="2">  1       21 0.40290457E-01 0.18811182E+03</pdfrwt>
<totfact> 0.12903166E+05</totfact>
</mgrwt>
</event>
<event>
12    1  0.1473662E-001  0.1933504E+03  0.7546771E-02  0.1156664E+00
         21   -1    0    0  504  503  0.00000000000E+00  0.00000000000E+00  0.52542558538E+02  0.52542558538E+02  0.00000000000E+00 0. -1.
         21   -1    0    0  502  504 -0.00000000000E+00 -0.00000000000E+00 -0.86998088183E+03  0.86998088183E+03  0.00000000000E+00 0. -1.
          6    2    1    2  502    0  0.92264495857E+02  0.86141067717E+01 -0.61276107653E+03  0.64096148502E+03  0.16361096642E+03 0.  0.
         24    2    3    3    0    0  0.27904722764E+02 -0.51179479311E+02 -0.32134917135E+03  0.33655970806E+03  0.81296583639E+02 0.  0.
         -6    2    1    2    0  503 -0.92264495857E+02 -0.86141067717E+01 -0.20467724676E+03  0.28156195535E+03  0.16969802394E+03 0.  0.
        -24    2    5    5    0    0 -0.99374466687E+02  0.20816827102E+02 -0.21333184915E+03  0.24972292747E+03  0.80885336883E+02 0.  0.
          2    1    4    4  501    0  0.52293545813E+02 -0.51783334427E+02 -0.26755542015E+03  0.27749239901E+03  0.00000000000E+00 0. -1.
         -1    1    4    4    0  501 -0.24388823049E+02  0.60385511596E+00 -0.53793751196E+02  0.59067309050E+02  0.00000000000E+00 0.  1.
          5    1    3    3  502    0  0.64359773092E+02  0.59793586083E+02 -0.29141190518E+03  0.30440177695E+03  0.47000000000E+01 0. -1.
         11    1    6    6    0    0 -0.82225502027E+02  0.51669347834E+01 -0.81590267973E+02  0.11595129248E+03  0.00000000000E+00 0. -1.
        -12    1    6    6    0    0 -0.17148964660E+02  0.15649892318E+02 -0.13174158117E+03  0.13377163499E+03  0.00000000000E+00 0.  1.
         -5    1    5    5    0  503  0.71099708308E+01 -0.29430933873E+02  0.86546023895E+01  0.31839027881E+02  0.47000000000E+01 0.  1.
<mgrwt>
<rscale>  2 0.19200646E+03</rscale>
<asrwt>0</asrwt>
<pdfrwt beam="1">  1       21 0.80834705E-02 0.19335035E+03</pdfrwt>
<pdfrwt beam="2">  1       21 0.13384321E+00 0.19335035E+03</pdfrwt>
<totfact> 0.47305016E+04</totfact>
</mgrwt>
</event>
<event>
12    1  0.1473662E-001  0.2004584E+03  0.7546771E-02  0.1149700E+00
         21   -1    0    0  504  503  0.00000000000E+00  0.00000000000E+00  0.26184975075E+03  0.26184975075E+03  0.00000000000E+00 0. -1.
         21   -1    0    0  502  504 -0.00000000000E+00 -0.00000000000E+00 -0.53171537920E+03  0.53171537920E+03  0.00000000000E+00 0. -1.
          6    2    1    2  502    0  0.50486467832E+02 -0.83983670177E+02 -0.46998869855E+03  0.51031118175E+03  0.17299128638E+03 0.  0.
         24    2    3    3    0    0 -0.13856042410E+02  0.34750271745E+01 -0.13145575516E+03  0.15476142978E+03  0.80414046391E+02 0.  0.
         -6    2    1    2    0  503 -0.50486467832E+02  0.83983670177E+02  0.20012307011E+03  0.28325394820E+03  0.17487542907E+03 0.  0.
        -24    2    5    5    0    0  0.36732635506E+02  0.50322600235E+02  0.78233471196E+02  0.12956789178E+03  0.82375432982E+02 0.  0.
          4    1    4    4  501    0  0.28073327303E+02 -0.41001964708E+01 -0.18076827904E+02  0.33640675142E+02  0.00000000000E+00 0. -1.
         -3    1    4    4    0  501 -0.41929369712E+02  0.75752236454E+01 -0.11337892725E+03  0.12112075463E+03  0.00000000000E+00 0.  1.
          5    1    3    3  502    0  0.64342510242E+02 -0.87458697352E+02 -0.33853294340E+03  0.35554975198E+03  0.47000000000E+01 0. -1.
         11    1    6    6    0    0  0.42335047984E+02  0.23600390070E-01  0.64456602289E+02  0.77116213752E+02  0.00000000000E+00 0. -1.
        -12    1    6    6    0    0 -0.56024124776E+01  0.50298999845E+02  0.13776868907E+02  0.52451678027E+02  0.00000000000E+00 0.  1.
         -5    1    5    5    0  503 -0.87219103339E+02  0.33661069942E+02  0.12188959891E+03  0.15368605642E+03  0.47000000000E+01 0.  1.
<mgrwt>
<rscale>  2 0.20004671E+03</rscale>
<asrwt>0</asrwt>
<pdfrwt beam="1">  1       21 0.40284577E-01 0.20045836E+03</pdfrwt>
<pdfrwt beam="2">  1       21 0.81802366E-01 0.20045836E+03</pdfrwt>
<totfact> 0.77206847E+03</totfact>
</mgrwt>
</event>
<event>
12    1  0.1473662E-001  0.1950855E+03  0.7546771E-02  0.1154463E+00
         21   -1    0    0  504  503  0.00000000000E+00  0.00000000000E+00  0.45754288312E+03  0.45754288312E+03  0.00000000000E+00 0. -1.
         21   -1    0    0  502  504 -0.00000000000E+00 -0.00000000000E+00 -0.12706308158E+03  0.12706308158E+03  0.00000000000E+00 0.  1.
          6    2    1    2  502    0 -0.83629861452E+02 -0.14780445521E+02 -0.78217392407E+01  0.19524222063E+03  0.17563009370E+03 0.  0.
         24    2    3    3    0    0 -0.24035932517E+02  0.55322400712E+02 -0.20649662276E+02  0.10222345357E+03  0.79905768468E+02 0.  0.
         -6    2    1    2    0  503  0.83629861452E+02  0.14780445521E+02  0.33830154078E+03  0.38936374407E+03  0.17304270400E+03 0.  0.
        -24    2    5    5    0    0  0.54011008721E+02  0.42148358016E+02  0.92210709061E+02  0.13994628974E+03  0.79927942540E+02 0.  0.
          2    1    4    4  501    0  0.80047695470E+01  0.30734232068E+01  0.24591754338E+02  0.26043744875E+02  0.00000000000E+00 0. -1.
         -1    1    4    4    0  501 -0.32040702064E+02  0.52248977506E+02 -0.45241416614E+02  0.76179708692E+02  0.00000000000E+00 0.  1.
          5    1    3    3  502    0 -0.59593928934E+02 -0.70102846234E+02  0.12827923035E+02  0.93018767060E+02  0.47000000000E+01 0. -1.
         13    1    6    6    0    0 -0.32527295020E+01 -0.20155035894E+02  0.14351373107E+02  0.24955312684E+02  0.00000000000E+00 0. -1.
        -14    1    6    6    0    0  0.57263738223E+02  0.62303393910E+02  0.77859335954E+02  0.11499097705E+03  0.00000000000E+00 0.  1.
         -5    1    5    5    0  503  0.29618852731E+02 -0.27367912494E+02  0.24609083172E+03  0.24941745433E+03  0.47000000000E+01 0.  1.
<mgrwt>
<rscale>  2 0.19450135E+03</rscale>
<asrwt>0</asrwt>
<pdfrwt beam="1">  1       21 0.70391212E-01 0.19508548E+03</pdfrwt>
<pdfrwt beam="2">  1       21 0.19548167E-01 0.19508548E+03</pdfrwt>
<totfact> 0.44035688E+04</totfact>
</mgrwt>
</event>
<event>
12    1  0.1473662E-001  0.2950080E+03  0.7546771E-02  0.1088342E+00
         21   -1    0    0  504  503  0.00000000000E+00  0.00000000000E+00  0.26266968838E+03  0.26266968838E+03  0.00000000000E+00 0.  1.
         21   -1    0    0  502  504 -0.00000000000E+00 -0.00000000000E+00 -0.44708677746E+03  0.44708677746E+03  0.00000000000E+00 0. -1.
          6    2    1    2  502    0 -0.22853872573E+03 -0.65839012660E+02 -0.27718219520E+03  0.40479589138E+03  0.17454231464E+03 0.  0.
         24    2    3    3    0    0 -0.21644617291E+03 -0.70855382619E+02 -0.29559489312E+03  0.38171968619E+03  0.80399918990E+02 0.  0.
         -6    2    1    2    0  503  0.22853872573E+03  0.65839012660E+02  0.92765106120E+02  0.30496057447E+03  0.16682584428E+03 0.  0.
        -24    2    5    5    0    0  0.24194315832E+03  0.42944549327E+02  0.65820270244E+02  0.26685612007E+03  0.80617334791E+02 0.  0.
          2    1    4    4  501    0 -0.13979062004E+03 -0.47148979392E+02 -0.24761233194E+03  0.28822961443E+03  0.00000000000E+00 0. -1.
         -1    1    4    4    0  501 -0.76655552865E+02 -0.23706403227E+02 -0.47982561182E+02  0.93490071754E+02  0.00000000000E+00 0.  1.
          5    1    3    3  502    0 -0.12092552825E+02  0.50163699589E+01  0.18412697922E+02  0.23076205194E+02  0.47000000000E+01 0. -1.
         13    1    6    6    0    0  0.29543845171E+02  0.70667134787E+00 -0.18044844794E+02  0.34625923750E+02  0.00000000000E+00 0. -1.
        -14    1    6    6    0    0  0.21239931315E+03  0.42237877979E+02  0.83865115038E+02  0.23223019632E+03  0.00000000000E+00 0.  1.
         -5    1    5    5    0  503 -0.13404432590E+02  0.22894463332E+02  0.26944835877E+02  0.38104454395E+02  0.47000000000E+01 0.  1.
<mgrwt>
<rscale>  2 0.29387684E+03</rscale>
<asrwt>0</asrwt>
<pdfrwt beam="1">  1       21 0.40410721E-01 0.29500804E+03</pdfrwt>
<pdfrwt beam="2">  1       21 0.68782581E-01 0.29500804E+03</pdfrwt>
<totfact> 0.10728131E+04</totfact>
</mgrwt>
</event>
<event>
12    1  0.1473662E-001  0.2874045E+03  0.7546771E-02  0.1091812E+00
         21   -1    0    0  504  503  0.00000000000E+00  0.00000000000E+00  0.14118578157E+03  0.14118578157E+03  0.00000000000E+00 0.  1.
         21   -1    0    0  502  504 -0.00000000000E+00 -0.00000000000E+00 -0.59593803481E+03  0.59593803481E+03  0.00000000000E+00 0. -1.
          6    2    1    2  502    0  0.13835428435E+02  0.22902722773E+03 -0.28087856077E+03  0.40186333578E+03  0.17307941710E+03 0.  0.
         24    2    3    3    0    0 -0.18428799656E+02  0.47041223322E+02 -0.13509213723E+03  0.16641555494E+03  0.83016588922E+02 0.  0.
         -6    2    1    2    0  503 -0.13835428435E+02 -0.22902722773E+03 -0.17387369246E+03  0.33526048059E+03  0.17182153182E+03 0.  0.
        -24    2    5    5    0    0  0.92706370406E+01 -0.53970714428E+02 -0.11104675737E+03  0.14778251687E+03  0.80681517343E+02 0.  0.
          2    1    4    4  501    0 -0.32651910330E+02  0.28657391163E+02 -0.13638388341E+03  0.14313614837E+03  0.00000000000E+00 0. -1.
         -1    1    4    4    0  501  0.14223110674E+02  0.18383832159E+02  0.12917461779E+01  0.23279406571E+02  0.00000000000E+00 0.  1.
          5    1    3    3  502    0  0.32264228091E+02  0.18198600441E+03 -0.14578642354E+03  0.23544778084E+03  0.47000000000E+01 0. -1.
         11    1    6    6    0    0  0.25478858282E+02  0.92418640251E+01 -0.13139107930E+02  0.30120100053E+02  0.00000000000E+00 0. -1.
        -12    1    6    6    0    0 -0.16208221242E+02 -0.63212578453E+02 -0.97907649445E+02  0.11766241681E+03  0.00000000000E+00 0.  1.
         -5    1    5    5    0  503 -0.23106065476E+02 -0.17505651330E+03 -0.62826935084E+02  0.18747796373E+03  0.47000000000E+01 0.  1.
<mgrwt>
<rscale>  2 0.28721542E+03</rscale>
<asrwt>0</asrwt>
<pdfrwt beam="1">  1       21 0.21720890E-01 0.28740455E+03</pdfrwt>
<pdfrwt beam="2">  1       21 0.91682774E-01 0.28740455E+03</pdfrwt>
<totfact> 0.18937379E+04</totfact>
</mgrwt>
</event>
<event>
12    1  0.1473662E-001  0.2051308E+03  0.7546771E-02  0.1146221E+00
         21   -1    0    0  504  503  0.00000000000E+00  0.00000000000E+00  0.43258373906E+03  0.43258373906E+03  0.00000000000E+00 0.  1.
         21   -1    0    0  502  504 -0.00000000000E+00 -0.00000000000E+00 -0.11470982878E+03  0.11470982878E+03  0.00000000000E+00 0. -1.
          6    2    1    2  502    0 -0.11810120561E+02 -0.10424168755E+03  0.48352127913E+02  0.21075235204E+03  0.17627483441E+03 0.  0.
         24    2    3    3    0    0  0.52321664419E+02 -0.58346304583E+02  0.65168571828E+02  0.12998011171E+03  0.80660020207E+02 0.  0.
         -6    2    1    2    0  503  0.11810120561E+02  0.10424168755E+03  0.26952178237E+03  0.33654121580E+03  0.17208192930E+03 0.  0.
        -24    2    5    5    0    0  0.34749527870E+02 -0.72528181423E+01  0.10940390629E+03  0.14002896314E+03  0.79867156880E+02 0.  0.
          2    1    4    4  501    0  0.33951118795E+02 -0.75348394971E+02  0.32454194153E+02  0.88788140031E+02  0.00000000000E+00 0. -1.
         -1    1    4    4    0  501  0.18370545624E+02  0.17002090387E+02  0.32714377675E+02  0.41191971678E+02  0.00000000000E+00 0.  1.
          5    1    3    3  502    0 -0.64131784980E+02 -0.45895382963E+02 -0.16816443915E+02  0.80772240331E+02  0.47000000000E+01 0. -1.
         11    1    6    6    0    0  0.20738579550E+02 -0.30455322853E+02  0.11735935919E+02  0.38669724123E+02  0.00000000000E+00 0. -1.
        -12    1    6    6    0    0  0.14010948319E+02  0.23202504710E+02  0.97667970372E+02  0.10135923902E+03  0.00000000000E+00 0.  1.
         -5    1    5    5    0  503 -0.22939407309E+02  0.11149450569E+03  0.16011787608E+03  0.19651225266E+03  0.47000000000E+01 0.  1.
<mgrwt>
<rscale>  2 0.20422688E+03</rscale>
<asrwt>0</asrwt>
<pdfrwt beam="1">  1       21 0.66551344E-01 0.20513075E+03</pdfrwt>
<pdfrwt beam="2">  1       21 0.17647666E-01 0.20513075E+03</pdfrwt>
<totfact> 0.59931222E+04</totfact>
</mgrwt>
</event>
<event>
12    1  0.1473662E-001  0.1753131E+03  0.7546771E-02  0.1172800E+00
         21   -1    0    0  504  503  0.00000000000E+00  0.00000000000E+00  0.30734529302E+02  0.30734529302E+02  0.00000000000E+00 0.  1.
         21   -1    0    0  502  504 -0.00000000000E+00 -0.00000000000E+00 -0.21363456349E+04  0.21363456349E+04  0.00000000000E+00 0.  1.
          6    2    1    2  502    0  0.14540850603E+02 -0.25564065835E+02 -0.18439243121E+04  0.18520965534E+04  0.17128869375E+03 0.  0.
         24    2    3    3    0    0  0.62505660464E+02 -0.56230435039E+02 -0.96343132341E+03  0.96975249222E+03  0.71771594844E+02 0.  0.
         -6    2    1    2    0  503 -0.14540850603E+02  0.25564065835E+02 -0.26168679353E+03  0.31498361083E+03  0.17282864167E+03 0.  0.
        -24    2    5    5    0    0 -0.23884412323E+02  0.61243913300E+02 -0.25753839981E+03  0.27757167648E+03  0.79992037981E+02 0.  0.
          4    1    4    4  501    0  0.95018656585E+01 -0.52036815647E+02 -0.34397899788E+03  0.34802250878E+03  0.00000000000E+00 0. -1.
         -3    1    4    4    0  501  0.53003794806E+02 -0.41936193927E+01 -0.61945232553E+03  0.62172998344E+03  0.00000000000E+00 0.  1.
          5    1    3    3  502    0 -0.47964809861E+02  0.30666369204E+02 -0.88049298868E+03  0.88234406118E+03  0.47000000000E+01 0. -1.
         11    1    6    6    0    0 -0.11619293211E+02 -0.17925833671E+02 -0.34465713387E+02  0.40549092306E+02  0.00000000000E+00 0. -1.
        -12    1    6    6    0    0 -0.12265119112E+02  0.79169746970E+02 -0.22307268642E+03  0.23702258418E+03  0.00000000000E+00 0.  1.
         -5    1    5    5    0  503  0.93435617197E+01 -0.35679847465E+02 -0.41483937221E+01  0.37411934342E+02  0.47000000000E+01 0.  1.
<mgrwt>
<rscale>  2 0.17493242E+03</rscale>
<asrwt>0</asrwt>
<pdfrwt beam="1">  1       21 0.47283870E-02 0.17531314E+03</pdfrwt>
<pdfrwt beam="2">  1       21 0.32866870E+00 0.17531314E+03</pdfrwt>
<totfact> 0.70426433E+03</totfact>
</mgrwt>
</event>
<event>
12    1  0.1473662E-001  0.2094366E+03  0.7546771E-02  0.1142324E+00
         21   -1    0    0  504  503  0.00000000000E+00  0.00000000000E+00  0.38493196447E+03  0.38493196447E+03  0.00000000000E+00 0.  1.
         21   -1    0    0  502  504 -0.00000000000E+00 -0.00000000000E+00 -0.11813470869E+03  0.11813470869E+03  0.00000000000E+00 0.  1.
          6    2    1    2  502    0  0.11020721733E+03 -0.29895015725E+02  0.81973394209E+02  0.22490740149E+03  0.17556867366E+03 0.  0.
         24    2    3    3    0    0  0.20227406547E+02 -0.44255131195E+02 -0.10086670316E+02  0.95293649342E+02  0.81310971426E+02 0.  0.
         -6    2    1    2    0  503 -0.11020721733E+03  0.29895015725E+02  0.18482386157E+03  0.27815927167E+03  0.17370485857E+03 0.  0.
        -24    2    5    5    0    0 -0.12876074315E+03  0.38039438319E+02  0.89818980819E+02  0.18090402859E+03  0.81440103154E+02 0.  0.
          4    1    4    4  501    0  0.20037767122E+02 -0.67851541372E+02 -0.36889057721E+01  0.70844560861E+02  0.00000000000E+00 0. -1.
         -3    1    4    4    0  501  0.18963942465E+00  0.23596410178E+02 -0.63977645444E+01  0.24449088481E+02  0.00000000000E+00 0.  1.
          5    1    3    3  502    0  0.89979810784E+02  0.14360115470E+02  0.92060064526E+02  0.12961375215E+03  0.47000000000E+01 0. -1.
         11    1    6    6    0    0  0.37162070392E+01 -0.14104575203E+02  0.67508880746E+01  0.16072452402E+02  0.00000000000E+00 0. -1.
        -12    1    6    6    0    0 -0.13247695019E+03  0.52144013523E+02  0.83068092745E+02  0.16483157619E+03  0.00000000000E+00 0.  1.
         -5    1    5    5    0  503  0.18553525815E+02 -0.81444225950E+01  0.95004880750E+02  0.97255243077E+02  0.47000000000E+01 0.  1.
<mgrwt>
<rscale>  2 0.20904555E+03</rscale>
<asrwt>0</asrwt>
<pdfrwt beam="1">  1       21 0.59220302E-01 0.20943663E+03</pdfrwt>
<pdfrwt beam="2">  1       21 0.18174571E-01 0.20943663E+03</pdfrwt>
<totfact> 0.72952464E+04</totfact>
</mgrwt>
</event>
<event>
12    1  0.1473662E-001  0.1811530E+03  0.7546771E-02  0.1168759E+00
         21   -1    0    0  504  503  0.00000000000E+00  0.00000000000E+00  0.36193305175E+03  0.36193305175E+03  0.00000000000E+00 0. -1.
         21   -1    0    0  502  504 -0.00000000000E+00 -0.00000000000E+00 -0.87790441266E+02  0.87790441266E+02  0.00000000000E+00 0.  1.
          6    2    1    2  502    0 -0.52388696921E+02  0.14557628288E+02  0.10676894790E+03  0.20308539122E+03  0.16397429002E+03 0.  0.
         24    2    3    3    0    0 -0.23480661201E+02 -0.51798002322E+02  0.44448058878E+02  0.10745732290E+03  0.79605727255E+02 0.  0.
         -6    2    1    2    0  503  0.52388696921E+02 -0.14557628288E+02  0.16737366258E+03  0.24663810179E+03  0.17280020319E+03 0.  0.
        -24    2    5    5    0    0  0.30945327099E+02 -0.63274734856E+02  0.12862568643E+03  0.18063302442E+03  0.10546287007E+03 0.  0.
          4    1    4    4  501    0  0.22961273754E+02 -0.45501169412E+02  0.22988140107E+02  0.55910921078E+02  0.00000000000E+00 0. -1.
         -3    1    4    4    0  501 -0.46441934955E+02 -0.62968329098E+01  0.21459918771E+02  0.51546401822E+02  0.00000000000E+00 0.  1.
          5    1    3    3  502    0 -0.28908035720E+02  0.66355630611E+02  0.62320889021E+02  0.95628068323E+02  0.47000000000E+01 0. -1.
         11    1    6    6    0    0 -0.28140274098E+02 -0.31812091949E+02  0.98420257673E+02  0.10719342956E+03  0.00000000000E+00 0. -1.
        -12    1    6    6    0    0  0.59085601197E+02 -0.31462642908E+02  0.30205428753E+02  0.73439594864E+02  0.00000000000E+00 0.  1.
         -5    1    5    5    0  503  0.21443369823E+02  0.48717106568E+02  0.38747976155E+02  0.66005077364E+02  0.47000000000E+01 0.  1.
<mgrwt>
<rscale>  2 0.17901582E+03</rscale>
<asrwt>0</asrwt>
<pdfrwt beam="1">  1       21 0.55682007E-01 0.18115300E+03</pdfrwt>
<pdfrwt beam="2">  1       21 0.13506222E-01 0.18115300E+03</pdfrwt>
<totfact> 0.14473575E+05</totfact>
</mgrwt>
</event>
<event>
12    1  0.1473662E-001  0.2056656E+03  0.7546771E-02  0.1145105E+00
         21   -1    0    0  504  503  0.00000000000E+00  0.00000000000E+00  0.51405979474E+02  0.51405979474E+02  0.00000000000E+00 0. -1.
         21   -1    0    0  502  504 -0.00000000000E+00 -0.00000000000E+00 -0.10834266028E+04  0.10834266028E+04  0.00000000000E+00 0.  1.
          6    2    1    2  502    0 -0.54045303284E+02 -0.97859854355E+02 -0.79464097996E+03  0.82075068711E+03  0.17227872023E+03 0.  0.
         24    2    3    3    0    0 -0.50254615444E+02 -0.41753833050E+02 -0.21703607961E+03  0.24039582510E+03  0.80103582469E+02 0.  0.
         -6    2    1    2    0  503  0.54045303284E+02  0.97859854355E+02 -0.23737964338E+03  0.31408189519E+03  0.17262935988E+03 0.  0.
        -24    2    5    5    0    0  0.20768604432E+02  0.10011046890E+03 -0.24653051296E+03  0.27917870957E+03  0.81914694308E+02 0.  0.
          4    1    4    4  501    0 -0.30497574218E+02 -0.11828749726E+02 -0.16421636203E+02  0.36601796252E+02  0.00000000000E+00 0. -1.
         -3    1    4    4    0  501 -0.19757041226E+02 -0.29925083324E+02 -0.20061444340E+03  0.20379402884E+03  0.00000000000E+00 0.  1.
          5    1    3    3  502    0 -0.37906878399E+01 -0.56106021305E+02 -0.57760490036E+03  0.58035486201E+03  0.47000000000E+01 0. -1.
         11    1    6    6    0    0 -0.19716815124E+02  0.26881863125E+02 -0.23003814564E+02  0.40503862139E+02  0.00000000000E+00 0. -1.
        -12    1    6    6    0    0  0.40485419555E+02  0.73228605770E+02 -0.22352669840E+03  0.23867484743E+03  0.00000000000E+00 0.  1.
         -5    1    5    5    0  503  0.33276698852E+02 -0.22506145400E+01  0.91508695803E+01  0.34903185619E+02  0.47000000000E+01 0.  1.
<mgrwt>
<rscale>  2 0.20559201E+03</rscale>
<asrwt>0</asrwt>
<pdfrwt beam="1">  1       21 0.79086123E-02 0.20566561E+03</pdfrwt>
<pdfrwt beam="2">  1       21 0.16668101E+00 0.20566561E+03</pdfrwt>
<totfact> 0.27338816E+04</totfact>
</mgrwt>
</event>
<event>
12    1  0.1473662E-001  0.2075642E+03  0.7546771E-02  0.1143668E+00
         21   -1    0    0  504  503  0.00000000000E+00  0.00000000000E+00  0.83171173424E+02  0.83171173424E+02  0.00000000000E+00 0. -1.
         21   -1    0    0  502  504 -0.00000000000E+00 -0.00000000000E+00 -0.19462514497E+04  0.19462514497E+04  0.00000000000E+00 0. -1.
          6    2    1    2  502    0 -0.10344770892E+03  0.51429854810E+02 -0.18009176483E+04  0.18127498299E+04  0.17149668011E+03 0.  0.
         24    2    3    3    0    0  0.14841030395E+02  0.10648793980E+02 -0.65249497635E+03  0.65752169473E+03  0.79065996999E+02 0.  0.
         -6    2    1    2    0  503  0.10344770892E+03 -0.51429854810E+02 -0.62162627972E+02  0.21667279325E+03  0.17244259501E+03 0.  0.
        -24    2    5    5    0    0  0.97290542050E+02  0.26236628108E+02 -0.44582938700E+02  0.13666573889E+03  0.80845998887E+02 0.  0.
          4    1    4    4  501    0 -0.81122689194E+01 -0.13341668535E+02 -0.54008774956E+03  0.54031341484E+03  0.00000000000E+00 0. -1.
         -3    1    4    4    0  501  0.22953299315E+02  0.23990462515E+02 -0.11240722679E+03  0.11720827989E+03  0.00000000000E+00 0.  1.
          5    1    3    3  502    0 -0.11828873931E+03  0.40781060830E+02 -0.11484226720E+04  0.11552281352E+04  0.47000000000E+01 0. -1.
         13    1    6    6    0    0  0.99892872741E+02 -0.26432525145E+01 -0.30851925626E+02  0.10458209275E+03  0.00000000000E+00 0. -1.
        -14    1    6    6    0    0 -0.26023306904E+01  0.28879880623E+02 -0.13731013074E+02  0.32083646143E+02  0.00000000000E+00 0.  1.
         -5    1    5    5    0  503  0.61571668647E+01 -0.77666482919E+02 -0.17579689272E+02  0.80007054362E+02  0.47000000000E+01 0.  1.
<mgrwt>
<rscale>  2 0.20736765E+03</rscale>
<asrwt>0</asrwt>
<pdfrwt beam="1">  1       21 0.12795565E-01 0.20756422E+03</pdfrwt>
<pdfrwt beam="2">  1       21 0.29942330E+00 0.20756422E+03</pdfrwt>
<totfact> 0.17660915E+03</totfact>
</mgrwt>
</event>
<event>
12    1  0.1473662E-001  0.2125952E+03  0.7546771E-02  0.1139649E+00
         21   -1    0    0  504  503  0.00000000000E+00  0.00000000000E+00  0.48906296619E+02  0.48906296619E+02  0.00000000000E+00 0.  1.
         21   -1    0    0  502  504 -0.00000000000E+00 -0.00000000000E+00 -0.95213345655E+03  0.95213345655E+03  0.00000000000E+00 0. -1.
          6    2    1    2  502    0  0.89412368491E+02  0.83161125973E+02 -0.36110002146E+03  0.41871807001E+03  0.17326641955E+03 0.  0.
         24    2    3    3    0    0  0.12640111819E+03  0.81738331931E+02 -0.32352523539E+03  0.36576387759E+03  0.80350722625E+02 0.  0.
         -6    2    1    2    0  503 -0.89412368491E+02 -0.83161125973E+02 -0.54212713847E+03  0.58232168316E+03  0.17402977877E+03 0.  0.
        -24    2    5    5    0    0 -0.75914036589E+02 -0.18397962637E+02 -0.47532962163E+03  0.48819161068E+03  0.79318179211E+02 0.  0.
          4    1    4    4  501    0  0.39841820415E+02  0.67560207672E+02 -0.19478617041E+03  0.20998429583E+03  0.00000000000E+00 0. -1.
         -3    1    4    4    0  501  0.86559297773E+02  0.14178124259E+02 -0.12873906499E+03  0.15577958176E+03  0.00000000000E+00 0.  1.
          5    1    3    3  502    0 -0.36988749698E+02  0.14227940423E+01 -0.37574786068E+02  0.52954192422E+02  0.47000000000E+01 0. -1.
         13    1    6    6    0    0 -0.97076673506E+01 -0.64903119691E+01 -0.30260382309E+03  0.30282905525E+03  0.00000000000E+00 0. -1.
        -14    1    6    6    0    0 -0.66206369238E+02 -0.11907650668E+02 -0.17272579854E+03  0.18536255542E+03  0.00000000000E+00 0.  1.
         -5    1    5    5    0  503 -0.13498331902E+02 -0.64763163336E+02 -0.66797516834E+02  0.94130072478E+02  0.47000000000E+01 0.  1.
<mgrwt>
<rscale>  2 0.21243890E+03</rscale>
<asrwt>0</asrwt>
<pdfrwt beam="1">  1       21 0.75240462E-02 0.21259517E+03</pdfrwt>
<pdfrwt beam="2">  1       21 0.14648206E+00 0.21259517E+03</pdfrwt>
<totfact> 0.41982765E+04</totfact>
</mgrwt>
</event>
<event>
12    1  0.1473662E-001  0.2987842E+03  0.7546771E-02  0.1085854E+00
         21   -1    0    0  504  503  0.00000000000E+00  0.00000000000E+00  0.41362011548E+02  0.41362011548E+02  0.00000000000E+00 0.  1.
         21   -1    0    0  502  504 -0.00000000000E+00 -0.00000000000E+00 -0.24983603113E+04  0.24983603113E+04  0.00000000000E+00 0.  1.
          6    2    1    2  502    0 -0.48556012934E+02 -0.23890677417E+03 -0.16972332763E+04  0.17233318811E+04  0.17273634566E+03 0.  0.
         24    2    3    3    0    0 -0.68777957617E+02 -0.21356608923E+03 -0.16414344052E+04  0.16586273111E+04  0.79979801927E+02 0.  0.
         -6    2    1    2    0  503  0.48556012934E+02  0.23890677417E+03 -0.75976502339E+03  0.81639044169E+03  0.17267405528E+03 0.  0.
        -24    2    5    5    0    0  0.91216361761E+02  0.12070434496E+03 -0.47586154064E+03  0.50588279741E+03  0.81137138916E+02 0.  0.
          2    1    4    4  501    0 -0.54537766999E+02 -0.14794159291E+03 -0.13685003146E+04  0.13775536991E+04  0.00000000000E+00 0. -1.
         -1    1    4    4    0  501 -0.14240190618E+02 -0.65624496322E+02 -0.27293409064E+03  0.28107361203E+03  0.00000000000E+00 0.  1.
          5    1    3    3  502    0  0.20221944683E+02 -0.25340684937E+02 -0.55798871098E+02  0.64704569975E+02  0.47000000000E+01 0. -1.
         11    1    6    6    0    0 -0.36856099126E+01 -0.71570459078E+00 -0.94308165909E+02  0.94382869794E+02  0.00000000000E+00 0. -1.
        -12    1    6    6    0    0  0.94901971674E+02  0.12142004955E+03 -0.38155337473E+03  0.41149992762E+03  0.00000000000E+00 0.  1.
         -5    1    5    5    0  503 -0.42660348827E+02  0.11820242921E+03 -0.28390348275E+03  0.31050764427E+03  0.47000000000E+01 0.  1.
<mgrwt>
<rscale>  2 0.29877516E+03</rscale>
<asrwt>0</asrwt>
<pdfrwt beam="1">  1       21 0.63633869E-02 0.29878417E+03</pdfrwt>
<pdfrwt beam="2">  1       21 0.38436309E+00 0.29878417E+03</pdfrwt>
<totfact> 0.17165914E+03</totfact>
</mgrwt>
</event>
<event>
12    1  0.1473662E-001  0.1848533E+03  0.7546771E-02  0.1163509E+00
         21   -1    0    0  504  503  0.00000000000E+00  0.00000000000E+00  0.37374715644E+02  0.37374715644E+02  0.00000000000E+00 0.  1.
         21   -1    0    0  502  504 -0.00000000000E+00 -0.00000000000E+00 -0.16386220962E+04  0.16386220962E+04  0.00000000000E+00 0.  1.
          6    2    1    2  502    0 -0.49253845680E+02  0.38006011606E+02 -0.13587257595E+04  0.13710583180E+04  0.17261177154E+03 0.  0.
         24    2    3    3    0    0 -0.20137951312E+02  0.88867764643E+02 -0.10209751318E+04  0.10282285793E+04  0.80998610568E+02 0.  0.
         -6    2    1    2    0  503  0.49253845680E+02 -0.38006011606E+02 -0.24252162114E+03  0.30493849390E+03  0.17406995751E+03 0.  0.
        -24    2    5    5    0    0  0.14829252330E+02  0.45194429903E+02 -0.13192164656E+03  0.16224367804E+03  0.81591954356E+02 0.  0.
          4    1    4    4  501    0 -0.43388179286E+02  0.70182318605E+02 -0.53361792666E+03  0.53995942773E+03  0.00000000000E+00 0. -1.
         -3    1    4    4    0  501  0.23250227975E+02  0.18685446038E+02 -0.48735720511E+03  0.48826915156E+03  0.00000000000E+00 0.  1.
          5    1    3    3  502    0 -0.29115894369E+02 -0.50861753037E+02 -0.33775062770E+03  0.34282973870E+03  0.47000000000E+01 0. -1.
         11    1    6    6    0    0  0.26611312873E+02  0.15308916079E+02 -0.12586304458E+03  0.12955319709E+03  0.00000000000E+00 0. -1.
        -12    1    6    6    0    0 -0.11782060543E+02  0.29885513823E+02 -0.60586019745E+01  0.32690480954E+02  0.00000000000E+00 0.  1.
         -5    1    5    5    0  503  0.34424593350E+02 -0.83200441509E+02 -0.11059997458E+03  0.14269481586E+03  0.47000000000E+01 0.  1.
<mgrwt>
<rscale>  2 0.18450924E+03</rscale>
<asrwt>0</asrwt>
<pdfrwt beam="1">  1       21 0.57499560E-02 0.18485332E+03</pdfrwt>
<pdfrwt beam="2">  1       21 0.25209572E+00 0.18485332E+03</pdfrwt>
<totfact> 0.13807064E+04</totfact>
</mgrwt>
</event>
<event>
12    1  0.1473662E-001  0.3024988E+03  0.7546771E-02  0.1084077E+00
         21   -1    0    0  504  503  0.00000000000E+00  0.00000000000E+00  0.33240880412E+03  0.33240880412E+03  0.00000000000E+00 0. -1.
         21   -1    0    0  502  504 -0.00000000000E+00 -0.00000000000E+00 -0.41915184727E+03  0.41915184727E+03  0.00000000000E+00 0. -1.
          6    2    1    2  502    0 -0.23981714436E+03 -0.64505822568E+02 -0.26400078156E+03  0.40149961389E+03  0.17272018821E+03 0.  0.
         24    2    3    3    0    0 -0.36215577733E+02 -0.75381579878E+00 -0.43061800688E+02  0.94328587313E+02  0.75706191274E+02 0.  0.
         -6    2    1    2    0  503  0.23981714436E+03  0.64505822568E+02  0.17725773840E+03  0.35006103750E+03  0.17160757640E+03 0.  0.
        -24    2    5    5    0    0  0.16892801880E+03  0.10770106422E+03  0.14681219574E+03  0.26151659616E+03  0.81859113610E+02 0.  0.
          2    1    4    4  501    0 -0.37223226880E+02  0.15313882407E+02  0.77830176288E+01  0.40995840974E+02  0.00000000000E+00 0. -1.
         -1    1    4    4    0  501  0.10076491469E+01 -0.16067698206E+02 -0.50844818317E+02  0.53332746340E+02  0.00000000000E+00 0.  1.
          5    1    3    3  502    0 -0.20360156663E+03 -0.63752006769E+02 -0.22093898087E+03  0.30717102658E+03  0.47000000000E+01 0. -1.
         13    1    6    6    0    0  0.11671062582E+03  0.36819181489E+02  0.11491750355E+03  0.16787809543E+03  0.00000000000E+00 0. -1.
        -14    1    6    6    0    0  0.52217392988E+02  0.70881882728E+02  0.31894692191E+02  0.93638500733E+02  0.00000000000E+00 0.  1.
         -5    1    5    5    0  503  0.70889125558E+02 -0.43195241649E+02  0.30445542663E+02  0.88544441336E+02  0.47000000000E+01 0.  1.
<mgrwt>
<rscale>  2 0.30234021E+03</rscale>
<asrwt>0</asrwt>
<pdfrwt beam="1">  1       21 0.51139816E-01 0.30249881E+03</pdfrwt>
<pdfrwt beam="2">  1       21 0.64484899E-01 0.30249881E+03</pdfrwt>
<totfact> 0.75570669E+03</totfact>
</mgrwt>
</event>
<event>
12    1  0.1473662E-001  0.3558842E+03  0.7546771E-02  0.1060318E+00
         21   -1    0    0  504  503  0.00000000000E+00  0.00000000000E+00  0.20261523843E+04  0.20261523843E+04  0.00000000000E+00 0.  1.
         21   -1    0    0  502  504 -0.00000000000E+00 -0.00000000000E+00 -0.70155746123E+02  0.70155746123E+02  0.00000000000E+00 0. -1.
          6    2    1    2  502    0  0.12954457385E+03 -0.28147862095E+03  0.62946106509E+03  0.72310081745E+03  0.17504727664E+03 0.  0.
         24    2    3    3    0    0  0.14107289518E+03 -0.22249542693E+03  0.58962867114E+03  0.65084689729E+03  0.80832772583E+02 0.  0.
         -6    2    1    2    0  503 -0.12954457385E+03  0.28147862095E+03  0.13265355731E+04  0.13732073130E+04  0.17317530738E+03 0.  0.
        -24    2    5    5    0    0  0.40130201452E+01  0.86123571743E+02  0.42255553071E+03  0.43875387209E+03  0.80736669507E+02 0.  0.
          4    1    4    4  501    0  0.10091697822E+03 -0.92358122391E+02  0.25103552376E+03  0.28589000237E+03  0.00000000000E+00 0. -1.
         -3    1    4    4    0  501  0.40155916966E+02 -0.13013730454E+03  0.33859314738E+03  0.36495689492E+03  0.00000000000E+00 0.  1.
          5    1    3    3  502    0 -0.11528321332E+02 -0.58983194024E+02  0.39832393954E+02  0.72253920157E+02  0.47000000000E+01 0. -1.
         11    1    6    6    0    0  0.36786965135E+02  0.74781672029E+02  0.29016280065E+03  0.30189407108E+03  0.00000000000E+00 0. -1.
        -12    1    6    6    0    0 -0.32773944990E+02  0.11341899714E+02  0.13239273006E+03  0.13685980101E+03  0.00000000000E+00 0.  1.
         -5    1    5    5    0  503 -0.13355759400E+03  0.19535504921E+03  0.90398004236E+03  0.93445344086E+03  0.47000000000E+01 0.  1.
<mgrwt>
<rscale>  2 0.35565472E+03</rscale>
<asrwt>0</asrwt>
<pdfrwt beam="1">  1       21 0.31171571E+00 0.35588419E+03</pdfrwt>
<pdfrwt beam="2">  1       21 0.10793193E-01 0.35588419E+03</pdfrwt>
<totfact> 0.17789001E+03</totfact>
</mgrwt>
</event>
<event>
12    1  0.1473662E-001  0.2333049E+03  0.7546771E-02  0.1124371E+00
         21   -1    0    0  504  503  0.00000000000E+00  0.00000000000E+00  0.80747775419E+02  0.80747775419E+02  0.00000000000E+00 0.  1.
         21   -1    0    0  502  504 -0.00000000000E+00 -0.00000000000E+00 -0.73210418039E+03  0.73210418039E+03  0.00000000000E+00 0. -1.
          6    2    1    2  502    0  0.15658339915E+03  0.44670605872E+01 -0.21055189459E+03  0.31411374033E+03  0.17261815092E+03 0.  0.
         24    2    3    3    0    0  0.17209294088E+03 -0.79208524596E+01 -0.12837881671E+03  0.22944668060E+03  0.80535324268E+02 0.  0.
         -6    2    1    2    0  503 -0.15658339915E+03 -0.44670605872E+01 -0.44080451038E+03  0.49873821548E+03  0.17289556295E+03 0.  0.
        -24    2    5    5    0    0 -0.14217243660E+03 -0.30156462075E+02 -0.21967076825E+03  0.27560183767E+03  0.81109263176E+02 0.  0.
          4    1    4    4  501    0  0.32252759748E+02  0.27203669805E+02 -0.49692424854E+02  0.65189088428E+02  0.00000000000E+00 0. -1.
         -3    1    4    4    0  501  0.13984018113E+03 -0.35124522265E+02 -0.78686391856E+02  0.16425759218E+03  0.00000000000E+00 0.  1.
          5    1    3    3  502    0 -0.15509541729E+02  0.12387913047E+02 -0.82173077877E+02  0.84667059722E+02  0.47000000000E+01 0. -1.
         11    1    6    6    0    0 -0.46304678246E+02 -0.24306001774E+02 -0.14439016054E+03  0.15356895328E+03  0.00000000000E+00 0. -1.
        -12    1    6    6    0    0 -0.95867758354E+02 -0.58504603003E+01 -0.75280607708E+02  0.12203288440E+03  0.00000000000E+00 0.  1.
         -5    1    5    5    0  503 -0.14410962554E+02  0.25689401488E+02 -0.22113374213E+03  0.22313637781E+03  0.47000000000E+01 0.  1.
<mgrwt>
<rscale>  2 0.23325354E+03</rscale>
<asrwt>0</asrwt>
<pdfrwt beam="1">  1       21 0.12422735E-01 0.23330493E+03</pdfrwt>
<pdfrwt beam="2">  1       21 0.11263141E+00 0.23330493E+03</pdfrwt>
<totfact> 0.33275421E+04</totfact>
</mgrwt>
</event>
<event>
12    1  0.1473662E-001  0.2308921E+03  0.7546771E-02  0.1126278E+00
         21   -1    0    0  504  503  0.00000000000E+00  0.00000000000E+00  0.12492152172E+04  0.12492152172E+04  0.00000000000E+00 0. -1.
         21   -1    0    0  502  504 -0.00000000000E+00 -0.00000000000E+00 -0.59631041044E+02  0.59631041044E+02  0.00000000000E+00 0. -1.
          6    2    1    2  502    0 -0.99042599746E+01  0.15287935661E+03  0.24159586809E+03  0.33314497201E+03  0.17072438858E+03 0.  0.
         24    2    3    3    0    0 -0.48626379316E+02  0.29505370899E+02  0.12194707584E+03  0.15691084830E+03  0.80714517460E+02 0.  0.
         -6    2    1    2    0  503  0.99042599746E+01 -0.15287935661E+03  0.94798830810E+03  0.97570128627E+03  0.17274540713E+03 0.  0.
        -24    2    5    5    0    0  0.29326912961E+02 -0.12867165014E+03  0.91760853675E+03  0.93201750199E+03  0.96097533404E+02 0.  0.
          2    1    4    4  501    0  0.11053802249E+02  0.20847301893E+01 -0.62503216566E+01  0.12868533907E+02  0.00000000000E+00 0. -1.
         -1    1    4    4    0  501 -0.59680181564E+02  0.27420640709E+02  0.12819739750E+03  0.14404231439E+03  0.00000000000E+00 0.  1.
          5    1    3    3  502    0  0.38722119341E+02  0.12337398571E+03  0.11964879225E+03  0.17623412372E+03  0.47000000000E+01 0. -1.
         13    1    6    6    0    0  0.20787330771E+02 -0.71604989386E+02  0.22548625086E+03  0.23749407772E+03  0.00000000000E+00 0. -1.
        -14    1    6    6    0    0  0.85395821907E+01 -0.57066660756E+02  0.69212228589E+03  0.69452342427E+03  0.00000000000E+00 0.  1.
         -5    1    5    5    0  503 -0.19422652987E+02 -0.24207706468E+02  0.30379771352E+02  0.43683784279E+02  0.47000000000E+01 0.  1.
<mgrwt>
<rscale>  2 0.23051415E+03</rscale>
<asrwt>0</asrwt>
<pdfrwt beam="1">  1       21 0.19218694E+00 0.23089211E+03</pdfrwt>
<pdfrwt beam="2">  1       21 0.91740073E-02 0.23089211E+03</pdfrwt>
<totfact> 0.13853017E+04</totfact>
</mgrwt>
</event>
<event>
12    1  0.1473662E-001  0.2282109E+03  0.7546771E-02  0.1129596E+00
         21   -1    0    0  504  503  0.00000000000E+00  0.00000000000E+00  0.31074882465E+03  0.31074882465E+03  0.00000000000E+00 0. -1.
         21   -1    0    0  502  504 -0.00000000000E+00 -0.00000000000E+00 -0.25663178992E+03  0.25663178992E+03  0.00000000000E+00 0. -1.
          6    2    1    2  502    0  0.13302102482E+02  0.13536595584E+03 -0.14659855181E+03  0.26346130129E+03  0.17152210923E+03 0.  0.
         24    2    3    3    0    0  0.52662047273E+02  0.83832775672E+02 -0.28955957895E+02  0.12904871328E+03  0.77549322382E+02 0.  0.
         -6    2    1    2    0  503 -0.13302102482E+02 -0.13536595584E+03  0.20071558655E+03  0.30391931328E+03  0.18324659443E+03 0.  0.
        -24    2    5    5    0    0 -0.44741751344E+02 -0.10875157313E+03  0.56479407573E+02  0.15384285872E+03  0.81541233308E+02 0.  0.
          4    1    4    4  501    0 -0.58009998971E+01  0.50820695028E+02  0.89797379343E+01  0.51932940763E+02  0.00000000000E+00 0. -1.
         -3    1    4    4    0  501  0.58463047171E+02  0.33012080644E+02 -0.37935695829E+02  0.77115772517E+02  0.00000000000E+00 0.  1.
          5    1    3    3  502    0 -0.39359944792E+02  0.51533180168E+02 -0.11764259391E+03  0.13441258801E+03  0.47000000000E+01 0. -1.
         13    1    6    6    0    0 -0.32267339538E+02 -0.10145718440E+03  0.12076234716E+02  0.10714745406E+03  0.00000000000E+00 0. -1.
        -14    1    6    6    0    0 -0.12474411806E+02 -0.72943887289E+01  0.44403172857E+02  0.46695404662E+02  0.00000000000E+00 0.  1.
         -5    1    5    5    0  503  0.31439648862E+02 -0.26614382714E+02  0.14423617897E+03  0.15007645456E+03  0.47000000000E+01 0.  1.
<mgrwt>
<rscale>  2 0.22584874E+03</rscale>
<asrwt>0</asrwt>
<pdfrwt beam="1">  1       21 0.47807511E-01 0.22821087E+03</pdfrwt>
<pdfrwt beam="2">  1       21 0.39481814E-01 0.22821087E+03</pdfrwt>
<totfact> 0.25370190E+04</totfact>
</mgrwt>
</event>
<event>
12    1  0.1473662E-001  0.1994185E+03  0.7546771E-02  0.1150585E+00
         21   -1    0    0  504  503  0.00000000000E+00  0.00000000000E+00  0.48084974399E+03  0.48084974399E+03  0.00000000000E+00 0.  1.
         21   -1    0    0  502  504 -0.00000000000E+00 -0.00000000000E+00 -0.89454801675E+02  0.89454801675E+02  0.00000000000E+00 0.  1.
          6    2    1    2  502    0  0.30521483699E+02 -0.94670133586E+02  0.11420760348E+03  0.22980671171E+03  0.17284025253E+03 0.  0.
         24    2    3    3    0    0  0.22211290458E+01 -0.86431086756E+02  0.14598228868E+03  0.18621184292E+03  0.76738228179E+02 0.  0.
         -6    2    1    2    0  503 -0.30521483699E+02  0.94670133586E+02  0.27718733883E+03  0.34049783395E+03  0.17091506357E+03 0.  0.
        -24    2    5    5    0    0 -0.56628595671E+02  0.11670231526E+03  0.26066420867E+03  0.30226038954E+03  0.81174412018E+02 0.  0.
          2    1    4    4  501    0 -0.21939263733E+02 -0.69092415359E+01  0.65966496532E+01  0.23928742098E+02  0.00000000000E+00 0. -1.
         -1    1    4    4    0  501  0.24160392778E+02 -0.79521845220E+02  0.13938563902E+03  0.16228310082E+03  0.00000000000E+00 0.  1.
          5    1    3    3  502    0  0.28300354653E+02 -0.82390468303E+01 -0.31774685193E+02  0.43594868795E+02  0.47000000000E+01 0. -1.
         11    1    6    6    0    0 -0.37628622802E+02  0.34237376911E+01  0.73995489574E+02  0.83084100230E+02  0.00000000000E+00 0. -1.
        -12    1    6    6    0    0 -0.18999972869E+02  0.11327857757E+03  0.18666871910E+03  0.21917628931E+03  0.00000000000E+00 0.  1.
         -5    1    5    5    0  503  0.26107111972E+02 -0.22032181676E+02  0.16523130162E+02  0.38237444414E+02  0.47000000000E+01 0.  1.
<mgrwt>
<rscale>  2 0.19900065E+03</rscale>
<asrwt>0</asrwt>
<pdfrwt beam="1">  1       21 0.73976882E-01 0.19941852E+03</pdfrwt>
<pdfrwt beam="2">  1       21 0.13762277E-01 0.19941852E+03</pdfrwt>
<totfact> 0.74960058E+04</totfact>
</mgrwt>
</event>
<event>
12    1  0.1473662E-001  0.1888465E+03  0.7546771E-02  0.1159794E+00
         21   -1    0    0  504  503  0.00000000000E+00  0.00000000000E+00  0.11009426184E+03  0.11009426184E+03  0.00000000000E+00 0.  1.
         21   -1    0    0  502  504 -0.00000000000E+00 -0.00000000000E+00 -0.58275689180E+03  0.58275689180E+03  0.00000000000E+00 0. -1.
          6    2    1    2  502    0 -0.21890014332E+02 -0.68460356992E+02 -0.46860171058E+03  0.50522329442E+03  0.17463396250E+03 0.  0.
         24    2    3    3    0    0  0.16899549405E+02 -0.10105222351E+03 -0.39612659856E+03  0.41667053116E+03  0.78745811347E+02 0.  0.
         -6    2    1    2    0  503  0.21890014332E+02  0.68460356992E+02 -0.40609193776E+01  0.18762785922E+03  0.17326779644E+03 0.  0.
        -24    2    5    5    0    0 -0.16654996189E+02  0.45947141033E+02  0.58456373494E+02  0.11066641019E+03  0.80258196316E+02 0.  0.
          4    1    4    4  501    0  0.44261159933E+02 -0.60511104983E+02 -0.29440789815E+03  0.30380364481E+03  0.00000000000E+00 0. -1.
         -3    1    4    4    0  501 -0.27361610528E+02 -0.40541118528E+02 -0.10171870041E+03  0.11286688636E+03  0.00000000000E+00 0.  1.
          5    1    3    3  502    0 -0.38789563737E+02  0.32591866520E+02 -0.72475112023E+02  0.88552763259E+02  0.47000000000E+01 0. -1.
         13    1    6    6    0    0 -0.35915853022E+00  0.17944990168E+02 -0.19344817294E+02  0.26388892040E+02  0.00000000000E+00 0. -1.
        -14    1    6    6    0    0 -0.16295837659E+02  0.28002150865E+02  0.77801190788E+02  0.84277518154E+02  0.00000000000E+00 0.  1.
         -5    1    5    5    0  503  0.38545010521E+02  0.22513215959E+02 -0.62517292872E+02  0.76961449031E+02  0.47000000000E+01 0.  1.
<mgrwt>
<rscale>  2 0.18853008E+03</rscale>
<asrwt>0</asrwt>
<pdfrwt beam="1">  1       21 0.16937579E-01 0.18884654E+03</pdfrwt>
<pdfrwt beam="2">  1       21 0.89654904E-01 0.18884654E+03</pdfrwt>
<totfact> 0.33361025E+04</totfact>
</mgrwt>
</event>
<event>
12    1  0.1473662E-001  0.2065687E+03  0.7546771E-02  0.1144661E+00
         21   -1    0    0  504  503  0.00000000000E+00  0.00000000000E+00  0.72016640344E+03  0.72016640344E+03  0.00000000000E+00 0. -1.
         21   -1    0    0  502  504 -0.00000000000E+00 -0.00000000000E+00 -0.97279958254E+02  0.97279958254E+02  0.00000000000E+00 0.  1.
          6    2    1    2  502    0  0.20283582894E+02 -0.11182408684E+03  0.53464656552E+02  0.21171390280E+03  0.17043549222E+03 0.  0.
         24    2    3    3    0    0  0.23815099212E+02 -0.14294025032E+03  0.20981172582E+02  0.16634922526E+03  0.78947964061E+02 0.  0.
         -6    2    1    2    0  503 -0.20283582894E+02  0.11182408684E+03  0.56942178863E+03  0.60573245889E+03  0.17249518328E+03 0.  0.
        -24    2    5    5    0    0 -0.15029775546E+02  0.14771197720E+03  0.49177348907E+03  0.51990186067E+03  0.80075325874E+02 0.  0.
          2    1    4    4  501    0  0.14348865483E+02 -0.16540850813E+02 -0.23402864277E+02  0.32049707372E+02  0.00000000000E+00 0. -1.
         -1    1    4    4    0  501  0.94662337282E+01 -0.12639939951E+03  0.44384036859E+02  0.13429951789E+03  0.00000000000E+00 0.  1.
          5    1    3    3  502    0 -0.35315163178E+01  0.31116163485E+02  0.32483483970E+02  0.45364677540E+02  0.47000000000E+01 0. -1.
         11    1    6    6    0    0 -0.45563795421E+02  0.98446959546E+02  0.35892897748E+03  0.37496383048E+03  0.00000000000E+00 0. -1.
        -12    1    6    6    0    0  0.30534019875E+02  0.49265017654E+02  0.13284451160E+03  0.14493803019E+03  0.00000000000E+00 0.  1.
         -5    1    5    5    0  503 -0.52538073481E+01 -0.35887890364E+02  0.77648299556E+02  0.85830598218E+02  0.47000000000E+01 0.  1.
<mgrwt>
<rscale>  2 0.20613818E+03</rscale>
<asrwt>0</asrwt>
<pdfrwt beam="1">  1       21 0.11079483E+00 0.20656873E+03</pdfrwt>
<pdfrwt beam="2">  1       21 0.14966148E-01 0.20656873E+03</pdfrwt>
<totfact> 0.25070816E+04</totfact>
</mgrwt>
</event>
<event>
12    1  0.1473662E-001  0.2484586E+03  0.7546771E-02  0.1114406E+00
         21   -1    0    0  504  503  0.00000000000E+00  0.00000000000E+00  0.53378058831E+03  0.53378058831E+03  0.00000000000E+00 0.  1.
         21   -1    0    0  502  504 -0.00000000000E+00 -0.00000000000E+00 -0.13168136689E+03  0.13168136689E+03  0.00000000000E+00 0. -1.
          6    2    1    2  502    0  0.61678419095E+02 -0.16635187247E+03  0.83932203370E+02  0.26225233760E+03  0.17393821017E+03 0.  0.
         24    2    3    3    0    0  0.10008092862E+03 -0.76360163848E+02  0.41078055062E+02  0.15533260889E+03  0.81201883487E+02 0.  0.
         -6    2    1    2    0  503 -0.61678419095E+02  0.16635187247E+03  0.31816701805E+03  0.40320961759E+03  0.17283104897E+03 0.  0.
        -24    2    5    5    0    0  0.25189745990E+02  0.97583795399E+02  0.15683847000E+03  0.20744415347E+03  0.90981595432E+02 0.  0.
          2    1    4    4  501    0 -0.97830152975E+01  0.65568340086E+01  0.63379791024E+01  0.13374208000E+02  0.00000000000E+00 0. -1.
         -1    1    4    4    0  501  0.10986394392E+03 -0.82916997857E+02  0.34740075959E+02  0.14195840089E+03  0.00000000000E+00 0.  1.
          5    1    3    3  502    0 -0.38402509526E+02 -0.89991708626E+02  0.42854148308E+02  0.10691972871E+03  0.47000000000E+01 0. -1.
         11    1    6    6    0    0  0.43758818739E+01  0.73786197655E+02  0.35395937349E+02  0.81953789951E+02  0.00000000000E+00 0. -1.
        -12    1    6    6    0    0  0.20813864116E+02  0.23797597744E+02  0.12144253266E+03  0.12549036352E+03  0.00000000000E+00 0.  1.
         -5    1    5    5    0  503 -0.86868165085E+02  0.68768077076E+02  0.16132854805E+03  0.19576546413E+03  0.47000000000E+01 0.  1.
<mgrwt>
<rscale>  2 0.24826491E+03</rscale>
<asrwt>0</asrwt>
<pdfrwt beam="1">  1       21 0.82120089E-01 0.24845860E+03</pdfrwt>
<pdfrwt beam="2">  1       21 0.20258672E-01 0.24845860E+03</pdfrwt>
<totfact> 0.28378379E+04</totfact>
</mgrwt>
</event>
<event>
12    1  0.1473662E-001  0.2085224E+03  0.7546771E-02  0.1143177E+00
         21   -1    0    0  504  503  0.00000000000E+00  0.00000000000E+00  0.17642670838E+04  0.17642670838E+04  0.00000000000E+00 0.  1.
         21   -1    0    0  502  504 -0.00000000000E+00 -0.00000000000E+00 -0.62095547168E+02  0.62095547168E+02  0.00000000000E+00 0.  1.
          6    2    1    2  502    0  0.45479539002E+02  0.10269773399E+03  0.13775710424E+03  0.24811229939E+03  0.17311117903E+03 0.  0.
         24    2    3    3    0    0  0.28807834481E+02  0.13015725057E+03  0.14706926886E+03  0.21433690610E+03  0.80871121360E+02 0.  0.
         -6    2    1    2    0  503 -0.45479539002E+02 -0.10269773399E+03  0.15644144324E+04  0.15782503316E+04  0.17568830302E+03 0.  0.
        -24    2    5    5    0    0 -0.58522396754E+02 -0.13763106701E+03  0.13596293503E+04  0.13700449673E+04  0.77872077904E+02 0.  0.
          2    1    4    4  501    0  0.45701386448E+01 -0.15141317238E+01  0.46854220839E+02  0.47100921144E+02  0.00000000000E+00 0. -1.
         -1    1    4    4    0  501  0.24237695836E+02  0.13167138229E+03  0.10021504802E+03  0.16723598496E+03  0.00000000000E+00 0.  1.
          5    1    3    3  502    0  0.16671704522E+02 -0.27459516578E+02 -0.93121646168E+01  0.33775393294E+02  0.47000000000E+01 0. -1.
         13    1    6    6    0    0  0.48387201196E+00 -0.96572947349E+02  0.75010787349E+03  0.75629914066E+03  0.00000000000E+00 0. -1.
        -14    1    6    6    0    0 -0.59006268766E+02 -0.41058119664E+02  0.60952147684E+03  0.61374582660E+03  0.00000000000E+00 0.  1.
         -5    1    5    5    0  503  0.13042857752E+02  0.34933333022E+02  0.20478508204E+03  0.20820536429E+03  0.47000000000E+01 0.  1.
<mgrwt>
<rscale>  2 0.20797862E+03</rscale>
<asrwt>0</asrwt>
<pdfrwt beam="1">  1       21 0.27142567E+00 0.20852240E+03</pdfrwt>
<pdfrwt beam="2">  1       21 0.95531624E-02 0.20852240E+03</pdfrwt>
<totfact> 0.43130192E+03</totfact>
</mgrwt>
</event>
<event>
12    1  0.1473662E-001  0.2178138E+03  0.7546771E-02  0.1136930E+00
         21   -1    0    0  504  503  0.00000000000E+00  0.00000000000E+00  0.18745390979E+03  0.18745390979E+03  0.00000000000E+00 0.  1.
         21   -1    0    0  502  504 -0.00000000000E+00 -0.00000000000E+00 -0.34200987275E+03  0.34200987275E+03  0.00000000000E+00 0. -1.
          6    2    1    2  502    0  0.12065887498E+03 -0.41862508178E+02 -0.21944431291E+03  0.30919030258E+03  0.17644206709E+03 0.  0.
         24    2    3    3    0    0  0.54632133190E+02 -0.78352338915E-01 -0.20789091571E+03  0.23006371225E+03  0.82012210930E+02 0.  0.
         -6    2    1    2    0  503 -0.12065887498E+03  0.41862508178E+02  0.64888349945E+02  0.22027347997E+03  0.16732864165E+03 0.  0.
        -24    2    5    5    0    0 -0.76507676106E+02 -0.20940838528E+01 -0.18461117417E+02  0.11610662317E+03  0.85335370147E+02 0.  0.
          4    1    4    4  501    0  0.33258120035E+02  0.34152376006E+02 -0.16240182437E+03  0.16925377365E+03  0.00000000000E+00 0. -1.
         -3    1    4    4    0  501  0.21374013155E+02 -0.34230728345E+02 -0.45489091339E+02  0.60809938598E+02  0.00000000000E+00 0.  1.
          5    1    3    3  502    0  0.66026741789E+02 -0.41784155839E+02 -0.11553397196E+02  0.79126590330E+02  0.47000000000E+01 0. -1.
         11    1    6    6    0    0 -0.64927463366E+02 -0.10773108177E+02 -0.49172938920E+02  0.82156030095E+02  0.00000000000E+00 0. -1.
        -12    1    6    6    0    0 -0.11580212740E+02  0.86790243243E+01  0.30711821503E+02  0.33950593078E+02  0.00000000000E+00 0.  1.
         -5    1    5    5    0  503 -0.44151198874E+02  0.43956592031E+02  0.83349467362E+02  0.10416685680E+03  0.47000000000E+01 0.  1.
<mgrwt>
<rscale>  2 0.21596163E+03</rscale>
<asrwt>0</asrwt>
<pdfrwt beam="1">  1       21 0.28839063E-01 0.21781377E+03</pdfrwt>
<pdfrwt beam="2">  1       21 0.52616904E-01 0.21781377E+03</pdfrwt>
<totfact> 0.38904386E+04</totfact>
</mgrwt>
</event>
<event>
12    1  0.1473662E-001  0.2545466E+03  0.7546771E-02  0.1110552E+00
         21   -1    0    0  504  503  0.00000000000E+00  0.00000000000E+00  0.19189592094E+04  0.19189592094E+04  0.00000000000E+00 0. -1.
         21   -1    0    0  502  504 -0.00000000000E+00 -0.00000000000E+00 -0.33712143540E+02  0.33712143540E+02  0.00000000000E+00 0. -1.
          6    2    1    2  502    0  0.57940549092E+02  0.17724507726E+03  0.96832216511E+03  0.10012201460E+04  0.17326580935E+03 0.  0.
         24    2    3    3    0    0  0.98213311926E+02  0.88789326670E+02  0.52408505476E+03  0.54645095680E+03  0.80088103976E+02 0.  0.
         -6    2    1    2    0  503 -0.57940549092E+02 -0.17724507726E+03  0.91692490071E+03  0.95145120689E+03  0.17243897735E+03 0.  0.
        -24    2    5    5    0    0 -0.30926596138E+02 -0.25335507505E+02  0.46653475995E+03  0.47534235386E+03  0.81837209414E+02 0.  0.
          2    1    4    4  501    0  0.13129997669E+02  0.11676956102E+02  0.11127992777E+02  0.20798566437E+02  0.00000000000E+00 0. -1.
         -1    1    4    4    0  501  0.85083314257E+02  0.77112370568E+02  0.51295706198E+03  0.52565239037E+03  0.00000000000E+00 0.  1.
          5    1    3    3  502    0 -0.40272762834E+02  0.88455750591E+02  0.44423711035E+03  0.45476918921E+03  0.47000000000E+01 0. -1.
         11    1    6    6    0    0  0.53975377473E+01 -0.28055695140E+02  0.38478853279E+03  0.38584772957E+03  0.00000000000E+00 0. -1.
        -12    1    6    6    0    0 -0.36324133885E+02  0.27201876345E+01  0.81746227158E+02  0.89494624295E+02  0.00000000000E+00 0.  1.
         -5    1    5    5    0  503 -0.27013952954E+02 -0.15190956976E+03  0.45039014076E+03  0.47610885303E+03  0.47000000000E+01 0.  1.
<mgrwt>
<rscale>  2 0.25440595E+03</rscale>
<asrwt>0</asrwt>
<pdfrwt beam="1">  1       21 0.29522441E+00 0.25454659E+03</pdfrwt>
<pdfrwt beam="2">  1       21 0.51864851E-02 0.25454659E+03</pdfrwt>
<totfact> 0.86689378E+03</totfact>
</mgrwt>
</event>
<event>
12    1  0.1473662E-001  0.1872912E+03  0.7546771E-02  0.1161110E+00
         21   -1    0    0  504  503  0.00000000000E+00  0.00000000000E+00  0.58240682689E+03  0.58240682689E+03  0.00000000000E+00 0. -1.
         21   -1    0    0  502  504 -0.00000000000E+00 -0.00000000000E+00 -0.12010796511E+03  0.12010796511E+03  0.00000000000E+00 0. -1.
          6    2    1    2  502    0 -0.20166056257E+02  0.68787313429E+02 -0.17146157438E+02  0.18807439052E+03  0.17303069479E+03 0.  0.
         24    2    3    3    0    0  0.45017141916E+02  0.65670339460E+02  0.11489785315E+02  0.11665540097E+03  0.84482725203E+02 0.  0.
         -6    2    1    2    0  503  0.20166056257E+02 -0.68787313429E+02  0.47944501922E+03  0.51444040148E+03  0.17217153046E+03 0.  0.
        -24    2    5    5    0    0  0.17459492773E+02 -0.10304507469E+03  0.25394887734E+03  0.28629238002E+03  0.80933140604E+02 0.  0.
          2    1    4    4  501    0 -0.11599905863E+02  0.42211987406E+02  0.29488710972E+02  0.52782513881E+02  0.00000000000E+00 0. -1.
         -1    1    4    4    0  501  0.56617047779E+02  0.23458352054E+02 -0.17998925657E+02  0.63872887089E+02  0.00000000000E+00 0.  1.
          5    1    3    3  502    0 -0.65183198172E+02  0.31169739686E+01 -0.28635942753E+02  0.71418989548E+02  0.47000000000E+01 0. -1.
         11    1    6    6    0    0  0.37420969257E+02 -0.22861120321E+02  0.13109630908E+03  0.13823603733E+03  0.00000000000E+00 0. -1.
        -12    1    6    6    0    0 -0.19961476484E+02 -0.80183954370E+02  0.12285256826E+03  0.14805634269E+03  0.00000000000E+00 0.  1.
         -5    1    5    5    0  503  0.27065634840E+01  0.34257761263E+02  0.22549614188E+03  0.22814802146E+03  0.47000000000E+01 0.  1.
<mgrwt>
<rscale>  2 0.18709250E+03</rscale>
<asrwt>0</asrwt>
<pdfrwt beam="1">  1       21 0.89601049E-01 0.18729118E+03</pdfrwt>
<pdfrwt beam="2">  1       21 0.18478149E-01 0.18729118E+03</pdfrwt>
<totfact> 0.28474388E+04</totfact>
</mgrwt>
</event>
<event>
12    1  0.1473662E-001  0.1924187E+03  0.7546771E-02  0.1156634E+00
         21   -1    0    0  504  503  0.00000000000E+00  0.00000000000E+00  0.23433092615E+04  0.23433092615E+04  0.00000000000E+00 0. -1.
         21   -1    0    0  502  504 -0.00000000000E+00 -0.00000000000E+00 -0.16037424760E+02  0.16037424760E+02  0.00000000000E+00 0. -1.
          6    2    1    2  502    0 -0.32649444101E+02  0.71139791213E+02  0.99118877758E+03  0.10096930889E+04  0.17577851054E+03 0.  0.
         24    2    3    3    0    0  0.34242192631E+02 -0.92855672260E+01  0.49931366926E+03  0.50679554309E+03  0.79175960166E+02 0.  0.
         -6    2    1    2    0  503  0.32649444101E+02 -0.71139791213E+02  0.13360830591E+04  0.13496535974E+04  0.17412649410E+03 0.  0.
        -24    2    5    5    0    0 -0.44389193234E+02 -0.32818778942E+02  0.55062904031E+03  0.55948680657E+03  0.82375202385E+02 0.  0.
          4    1    4    4  501    0  0.49916234905E+02 -0.28149705824E+02  0.41657615709E+03  0.42049938300E+03  0.00000000000E+00 0. -1.
         -3    1    4    4    0  501 -0.15674042274E+02  0.18864138598E+02  0.82737512172E+02  0.86296160092E+02  0.00000000000E+00 0.  1.
          5    1    3    3  502    0 -0.66891636733E+02  0.80425358439E+02  0.49187510832E+03  0.50289754576E+03  0.47000000000E+01 0. -1.
         11    1    6    6    0    0 -0.20979190405E+01  0.19782955040E+02  0.27483186942E+03  0.27555094451E+03  0.00000000000E+00 0. -1.
        -12    1    6    6    0    0 -0.42291274193E+02 -0.52601733982E+02  0.27579717089E+03  0.28393586206E+03  0.00000000000E+00 0.  1.
         -5    1    5    5    0  503  0.77038637335E+02 -0.38321012271E+02  0.78545401882E+03  0.79016679082E+03  0.47000000000E+01 0.  1.
<mgrwt>
<rscale>  2 0.19204056E+03</rscale>
<asrwt>0</asrwt>
<pdfrwt beam="1">  1       21 0.36050885E+00 0.19241866E+03</pdfrwt>
<pdfrwt beam="2">  1       21 0.24672980E-02 0.19241866E+03</pdfrwt>
<totfact> 0.13232229E+04</totfact>
</mgrwt>
</event>
<event>
12    1  0.1473662E-001  0.2385130E+03  0.7546771E-02  0.1120918E+00
         21   -1    0    0  504  503  0.00000000000E+00  0.00000000000E+00  0.23256922850E+03  0.23256922850E+03  0.00000000000E+00 0.  1.
         21   -1    0    0  502  504 -0.00000000000E+00 -0.00000000000E+00 -0.29160876381E+03  0.29160876381E+03  0.00000000000E+00 0. -1.
          6    2    1    2  502    0  0.10277825304E+03  0.12796573185E+03  0.76549480218E+02  0.25049604100E+03  0.17306023752E+03 0.  0.
         24    2    3    3    0    0  0.40838458511E+02  0.38109034605E+02  0.10290631149E+03  0.13812372795E+03  0.73269209538E+02 0.  0.
         -6    2    1    2    0  503 -0.10277825304E+03 -0.12796573185E+03 -0.13558901553E+03  0.27368195130E+03  0.17198497467E+03 0.  0.
        -24    2    5    5    0    0 -0.94155216547E+02 -0.45779755864E+02 -0.23420097490E+02  0.13428020246E+03  0.80756925125E+02 0.  0.
          2    1    4    4  501    0 -0.82488739758E+01  0.33796277833E+02  0.16159963779E+02  0.38358528994E+02  0.00000000000E+00 0. -1.
         -1    1    4    4    0  501  0.49087332487E+02  0.43127567727E+01  0.86746347714E+02  0.99765198959E+02  0.00000000000E+00 0.  1.
          5    1    3    3  502    0  0.61939794524E+02  0.89856697246E+02 -0.26356831276E+02  0.11237231305E+03  0.47000000000E+01 0. -1.
         13    1    6    6    0    0 -0.52836595757E+02 -0.28448296664E+01 -0.46438806601E+02  0.70401432269E+02  0.00000000000E+00 0. -1.
        -14    1    6    6    0    0 -0.41318620790E+02 -0.42934926198E+02  0.23018709111E+02  0.63878770188E+02  0.00000000000E+00 0.  1.
         -5    1    5    5    0  503 -0.86230364884E+01 -0.82185975987E+02 -0.11216891804E+03  0.13940174885E+03  0.47000000000E+01 0.  1.
<mgrwt>
<rscale>  2 0.23831799E+03</rscale>
<asrwt>0</asrwt>
<pdfrwt beam="1">  1       21 0.35779881E-01 0.23851298E+03</pdfrwt>
<pdfrwt beam="2">  1       21 0.44862887E-01 0.23851298E+03</pdfrwt>
<totfact> 0.35110485E+04</totfact>
</mgrwt>
</event>
<event>
12    1  0.1473662E-001  0.1816108E+03  0.7546771E-02  0.1166810E+00
         21   -1    0    0  504  503  0.00000000000E+00  0.00000000000E+00  0.60257609633E+02  0.60257609633E+02  0.00000000000E+00 0. -1.
         21   -1    0    0  502  504 -0.00000000000E+00 -0.00000000000E+00 -0.57045509769E+03  0.57045509769E+03  0.00000000000E+00 0. -1.
          6    2    1    2  502    0 -0.35314331332E+02 -0.42697062092E+02 -0.32901716911E+03  0.37581214298E+03  0.17295180869E+03 0.  0.
         24    2    3    3    0    0 -0.54860780512E+02 -0.35349805378E+02 -0.33732216491E+03  0.35285329257E+03  0.80373435657E+02 0.  0.
         -6    2    1    2    0  503  0.35314331332E+02  0.42697062092E+02 -0.18118031894E+03  0.25490056434E+03  0.17052228189E+03 0.  0.
        -24    2    5    5    0    0  0.62232212169E+02  0.38362189132E+02 -0.19550831951E+03  0.22374378286E+03  0.80580838805E+02 0.  0.
          4    1    4    4  501    0 -0.59793705436E+02 -0.22515908543E+02 -0.33202863400E+03  0.33812019630E+03  0.00000000000E+00 0. -1.
         -3    1    4    4    0  501  0.49329249245E+01 -0.12833896836E+02 -0.52935309083E+01  0.14733096272E+02  0.00000000000E+00 0.  1.
          5    1    3    3  502    0  0.19546449179E+02 -0.73472567140E+01  0.83049957978E+01  0.22958850405E+02  0.47000000000E+01 0. -1.
         13    1    6    6    0    0  0.55219483825E+02 -0.12744851875E+02 -0.91134777998E+02  0.10731808051E+03  0.00000000000E+00 0. -1.
        -14    1    6    6    0    0  0.70127283440E+01  0.51107041008E+02 -0.10437354151E+03  0.11642570235E+03  0.00000000000E+00 0.  1.
         -5    1    5    5    0  503 -0.26917880837E+02  0.43348729600E+01  0.14328000570E+02  0.31156781487E+02  0.47000000000E+01 0.  1.
<mgrwt>
<rscale>  2 0.18102994E+03</rscale>
<asrwt>0</asrwt>
<pdfrwt beam="1">  1       21 0.92704013E-02 0.18161076E+03</pdfrwt>
<pdfrwt beam="2">  1       21 0.87762324E-01 0.18161076E+03</pdfrwt>
<totfact> 0.10370631E+05</totfact>
</mgrwt>
</event>
<event>
12    1  0.1473662E-001  0.2512054E+03  0.7546771E-02  0.1112709E+00
         21   -1    0    0  504  503  0.00000000000E+00  0.00000000000E+00  0.88467496751E+03  0.88467496751E+03  0.00000000000E+00 0. -1.
         21   -1    0    0  502  504 -0.00000000000E+00 -0.00000000000E+00 -0.86809947818E+02  0.86809947818E+02  0.00000000000E+00 0. -1.
          6    2    1    2  502    0  0.95408978219E+02  0.15093452314E+03  0.19118793786E+03  0.31485621037E+03  0.17520702674E+03 0.  0.
         24    2    3    3    0    0  0.12275738858E+03  0.12079673673E+03  0.19659766657E+03  0.27353337305E+03  0.80676115546E+02 0.  0.
         -6    2    1    2    0  503 -0.95408978219E+02 -0.15093452314E+03  0.60667708183E+03  0.65662870496E+03  0.17669202348E+03 0.  0.
        -24    2    5    5    0    0 -0.30412217088E+02 -0.33318138155E+02  0.40436539777E+03  0.41370834665E+03  0.74888049085E+02 0.  0.
          2    1    4    4  501    0  0.42992367531E+02  0.23334198279E+02  0.12516670954E+02  0.50492529418E+02  0.00000000000E+00 0. -1.
         -1    1    4    4    0  501  0.79765021045E+02  0.97462538449E+02  0.18408099561E+03  0.22304084363E+03  0.00000000000E+00 0.  1.
          5    1    3    3  502    0 -0.27348410357E+02  0.30137786415E+02 -0.54097287043E+01  0.41322837314E+02  0.47000000000E+01 0. -1.
         13    1    6    6    0    0 -0.43458176481E+02 -0.35877454686E+02  0.17270509661E+03  0.18166687990E+03  0.00000000000E+00 0. -1.
        -14    1    6    6    0    0  0.13045959392E+02  0.25593165319E+01  0.23166030115E+03  0.23204146674E+03  0.00000000000E+00 0.  1.
         -5    1    5    5    0  503 -0.64996761131E+02 -0.11761638499E+03  0.20231168406E+03  0.24292035831E+03  0.47000000000E+01 0.  1.
<mgrwt>
<rscale>  2 0.25094447E+03</rscale>
<asrwt>0</asrwt>
<pdfrwt beam="1">  1       21 0.13610383E+00 0.25120544E+03</pdfrwt>
<pdfrwt beam="2">  1       21 0.13355377E-01 0.25120544E+03</pdfrwt>
<totfact> 0.17982639E+04</totfact>
</mgrwt>
</event>
<event>
12    1  0.1473662E-001  0.2013395E+03  0.7546771E-02  0.1150625E+00
         21   -1    0    0  504  503  0.00000000000E+00  0.00000000000E+00  0.10577055772E+04  0.10577055772E+04  0.00000000000E+00 0. -1.
         21   -1    0    0  502  504 -0.00000000000E+00 -0.00000000000E+00 -0.40884090522E+02  0.40884090522E+02  0.00000000000E+00 0. -1.
          6    2    1    2  502    0 -0.81379440630E+02 -0.11710809524E+02  0.31902271258E+03  0.37232474506E+03  0.17346604343E+03 0.  0.
         24    2    3    3    0    0 -0.93931982028E+02 -0.45516900802E+02  0.30993356332E+03  0.33483980492E+03  0.71860112596E+02 0.  0.
         -6    2    1    2    0  503  0.81379440630E+02  0.11710809524E+02  0.69779877413E+03  0.72626492269E+03  0.18378751955E+03 0.  0.
        -24    2    5    5    0    0  0.76012208410E+02  0.74535522708E+02  0.43094432977E+03  0.45202208096E+03  0.85308536163E+02 0.  0.
          2    1    4    4  501    0 -0.21589299559E+02 -0.37012425688E+02  0.55097689066E+02  0.69798086301E+02  0.00000000000E+00 0. -1.
         -1    1    4    4    0  501 -0.72342682469E+02 -0.85044751135E+01  0.25483587425E+03  0.26504171862E+03  0.00000000000E+00 0.  1.
          5    1    3    3  502    0  0.12552541398E+02  0.33806091278E+02  0.90891492665E+01  0.37484940141E+02  0.47000000000E+01 0. -1.
         13    1    6    6    0    0 -0.10026036789E+02  0.34304904195E+02  0.18406514127E+03  0.18750286423E+03  0.00000000000E+00 0. -1.
        -14    1    6    6    0    0  0.86038245199E+02  0.40230618513E+02  0.24687918851E+03  0.26451921673E+03  0.00000000000E+00 0.  1.
         -5    1    5    5    0  503  0.53672322203E+01 -0.62824713184E+02  0.26685444435E+03  0.27424284173E+03  0.47000000000E+01 0.  1.
<mgrwt>
<rscale>  2 0.19895361E+03</rscale>
<asrwt>0</asrwt>
<pdfrwt beam="1">  1       21 0.16272391E+00 0.20133954E+03</pdfrwt>
<pdfrwt beam="2">  1       21 0.62898609E-02 0.20133954E+03</pdfrwt>
<totfact> 0.43501302E+04</totfact>
</mgrwt>
</event>
<event>
12    1  0.1473662E-001  0.2697410E+03  0.7546771E-02  0.1102054E+00
         21   -1    0    0  504  503  0.00000000000E+00  0.00000000000E+00  0.23401035701E+03  0.23401035701E+03  0.00000000000E+00 0. -1.
         21   -1    0    0  502  504 -0.00000000000E+00 -0.00000000000E+00 -0.43573148772E+03  0.43573148772E+03  0.00000000000E+00 0.  1.
          6    2    1    2  502    0  0.82936592296E+02 -0.18306086199E+03 -0.28303937629E+03  0.38800996284E+03  0.17335133458E+03 0.  0.
         24    2    3    3    0    0  0.52318937298E+02 -0.74861431369E+02 -0.54413722401E+02  0.13318387077E+03  0.80222098833E+02 0.  0.
         -6    2    1    2    0  503 -0.82936592296E+02  0.18306086199E+03  0.81318245577E+02  0.28173188190E+03  0.17991786649E+03 0.  0.
        -24    2    5    5    0    0  0.11624823368E+02  0.44786020343E+02  0.66691080403E+02  0.11351227209E+03  0.79349931146E+02 0.  0.
          2    1    4    4  501    0  0.11081027421E+02 -0.65686761882E+02 -0.30585399932E+01  0.66685039717E+02  0.00000000000E+00 0. -1.
         -1    1    4    4    0  501  0.41237909877E+02 -0.91746694872E+01 -0.51355182408E+02  0.66498831052E+02  0.00000000000E+00 0.  1.
          5    1    3    3  502    0  0.30617654998E+02 -0.10819943062E+03 -0.22862565389E+03  0.25482609207E+03  0.47000000000E+01 0. -1.
         13    1    6    6    0    0  0.11476639962E+02  0.63944667113E+02  0.68327884246E+02  0.94283261942E+02  0.00000000000E+00 0. -1.
        -14    1    6    6    0    0  0.14818340593E+00 -0.19158646770E+02 -0.16368038427E+01  0.19229010146E+02  0.00000000000E+00 0.  1.
         -5    1    5    5    0  503 -0.94561415664E+02  0.13827484164E+03  0.14627165174E+02  0.16821960981E+03  0.47000000000E+01 0.  1.
<mgrwt>
<rscale>  2 0.26865069E+03</rscale>
<asrwt>0</asrwt>
<pdfrwt beam="1">  1       21 0.36001593E-01 0.26974098E+03</pdfrwt>
<pdfrwt beam="2">  1       21 0.67035613E-01 0.26974098E+03</pdfrwt>
<totfact> 0.14520652E+04</totfact>
</mgrwt>
</event>
<event>
12    1  0.1473662E-001  0.1789861E+03  0.7546771E-02  0.1170269E+00
         21   -1    0    0  504  503  0.00000000000E+00  0.00000000000E+00  0.75842204798E+02  0.75842204798E+02  0.00000000000E+00 0. -1.
         21   -1    0    0  502  504 -0.00000000000E+00 -0.00000000000E+00 -0.48510342067E+03  0.48510342067E+03  0.00000000000E+00 0. -1.
          6    2    1    2  502    0  0.98593500115E+01  0.57353115130E+00 -0.96065333309E+02  0.20313683149E+03  0.17871342514E+03 0.  0.
         24    2    3    3    0    0  0.69628568795E+02 -0.30776273304E+02 -0.70628025968E+02  0.13085739902E+03  0.79624269137E+02 0.  0.
         -6    2    1    2    0  503 -0.98593500115E+01 -0.57353115130E+00 -0.31319588256E+03  0.35780879397E+03  0.17273661011E+03 0.  0.
        -24    2    5    5    0    0  0.35814701126E+02  0.29788011053E+02 -0.27687292280E+03  0.29185889179E+03  0.79705576463E+02 0.  0.
          4    1    4    4  501    0  0.72242525861E+02  0.83102825336E+00 -0.67695613495E+02  0.99006915098E+02  0.00000000000E+00 0. -1.
         -3    1    4    4    0  501 -0.26139570657E+01 -0.31607301557E+02 -0.29324124733E+01  0.31850483924E+02  0.00000000000E+00 0.  1.
          5    1    3    3  502    0 -0.59769218784E+02  0.31349804455E+02 -0.25437307341E+02  0.72279432470E+02  0.47000000000E+01 0. -1.
         11    1    6    6    0    0  0.37000439918E+02  0.32197591264E+01 -0.44470879891E+02  0.57940129110E+02  0.00000000000E+00 0. -1.
        -12    1    6    6    0    0 -0.11857387921E+01  0.26568251926E+02 -0.23240204290E+03  0.23391876268E+03  0.00000000000E+00 0.  1.
         -5    1    5    5    0  503 -0.45674051137E+02 -0.30361542204E+02 -0.36322959766E+02  0.65949902187E+02  0.47000000000E+01 0.  1.
<mgrwt>
<rscale>  2 0.17747523E+03</rscale>
<asrwt>0</asrwt>
<pdfrwt beam="1">  1       21 0.11668031E-01 0.17898610E+03</pdfrwt>
<pdfrwt beam="2">  1       21 0.74631297E-01 0.17898610E+03</pdfrwt>
<totfact> 0.99714371E+04</totfact>
</mgrwt>
</event>
<event>
12    1  0.1473662E-001  0.1798521E+03  0.7546771E-02  0.1172427E+00
         21   -1    0    0  504  503  0.00000000000E+00  0.00000000000E+00  0.80234315043E+03  0.80234315043E+03  0.00000000000E+00 0. -1.
         21   -1    0    0  502  504 -0.00000000000E+00 -0.00000000000E+00 -0.58388174680E+02  0.58388174680E+02  0.00000000000E+00 0. -1.
          6    2    1    2  502    0 -0.50144577988E+02  0.84736735832E+01  0.64724684541E+03  0.67177024264E+03  0.17251231307E+03 0.  0.
         24    2    3    3    0    0  0.15276844177E+02 -0.41591572577E+02  0.26083432789E+03  0.27664593936E+03  0.80840511376E+02 0.  0.
         -6    2    1    2    0  503  0.50144577988E+02 -0.84736735832E+01  0.96708130347E+02  0.18896108247E+03  0.15416726750E+03 0.  0.
        -24    2    5    5    0    0  0.21758270537E+02 -0.60123495268E+02  0.70495617861E+02  0.12428749945E+03  0.79934306532E+02 0.  0.
          4    1    4    4  501    0  0.12963204037E+02 -0.32643950060E+02  0.31663995084E+02  0.47289329865E+02  0.00000000000E+00 0. -1.
         -3    1    4    4    0  501  0.23136401403E+01 -0.89476225175E+01  0.22917033281E+03  0.22935660949E+03  0.00000000000E+00 0.  1.
          5    1    3    3  502    0 -0.65421422166E+02  0.50065246160E+02  0.38641251752E+03  0.39512430328E+03  0.47000000000E+01 0. -1.
         13    1    6    6    0    0 -0.85651554247E+01 -0.61412600001E+02  0.19603052285E+02  0.65031907439E+02  0.00000000000E+00 0. -1.
        -14    1    6    6    0    0  0.30323425961E+02  0.12891047325E+01  0.50892565577E+02  0.59255592006E+02  0.00000000000E+00 0.  1.
         -5    1    5    5    0  503  0.28386307452E+02  0.51649821685E+02  0.26212512485E+02  0.64673583028E+02  0.47000000000E+01 0.  1.
<mgrwt>
<rscale>  2 0.17530411E+03</rscale>
<asrwt>0</asrwt>
<pdfrwt beam="1">  1       21 0.12343740E+00 0.17985211E+03</pdfrwt>
<pdfrwt beam="2">  1       21 0.89827967E-02 0.17985211E+03</pdfrwt>
<totfact> 0.48574118E+04</totfact>
</mgrwt>
</event>
<event>
12    1  0.1473662E-001  0.2446442E+03  0.7546771E-02  0.1116998E+00
         21   -1    0    0  504  503  0.00000000000E+00  0.00000000000E+00  0.10565173681E+04  0.10565173681E+04  0.00000000000E+00 0.  1.
         21   -1    0    0  502  504 -0.00000000000E+00 -0.00000000000E+00 -0.67794741175E+02  0.67794741175E+02  0.00000000000E+00 0.  1.
          6    2    1    2  502    0 -0.17244506381E+03  0.21849110577E-01  0.26402615792E+03  0.35994526384E+03  0.17353236121E+03 0.  0.
         24    2    3    3    0    0 -0.91927032395E+02  0.34138032682E+02  0.23834791431E+03  0.26868448607E+03  0.75931813087E+02 0.  0.
         -6    2    1    2    0  503  0.17244506381E+03 -0.21849110577E-01  0.72469646897E+03  0.76436684540E+03  0.17127288662E+03 0.  0.
        -24    2    5    5    0    0  0.95314052351E+02 -0.37412427079E+02  0.59549191130E+03  0.60924381045E+03  0.77993242419E+02 0.  0.
          2    1    4    4  501    0 -0.73616453726E+02  0.10557866969E+02  0.22308450104E+03  0.23515430130E+03  0.00000000000E+00 0. -1.
         -1    1    4    4    0  501 -0.18310578669E+02  0.23580165713E+02  0.15263413269E+02  0.33530184772E+02  0.00000000000E+00 0.  1.
          5    1    3    3  502    0 -0.80518031418E+02 -0.34116183572E+02  0.25678243608E+02  0.91260777773E+02  0.47000000000E+01 0. -1.
         13    1    6    6    0    0  0.36379958597E+02  0.17519249552E+02  0.30942894280E+03  0.31205239326E+03  0.00000000000E+00 0. -1.
        -14    1    6    6    0    0  0.58934093754E+02 -0.54931676631E+02  0.28606296850E+03  0.29719141719E+03  0.00000000000E+00 0.  1.
         -5    1    5    5    0  503  0.77131011462E+02  0.37390577969E+02  0.12920455767E+03  0.15512303495E+03  0.47000000000E+01 0.  1.
<mgrwt>
<rscale>  2 0.24424384E+03</rscale>
<asrwt>0</asrwt>
<pdfrwt beam="1">  1       21 0.16254112E+00 0.24464419E+03</pdfrwt>
<pdfrwt beam="2">  1       21 0.10429961E-01 0.24464419E+03</pdfrwt>
<totfact> 0.17564474E+04</totfact>
</mgrwt>
</event>
<event>
12    1  0.1473662E-001  0.2168918E+03  0.7546771E-02  0.1136605E+00
         21   -1    0    0  504  503  0.00000000000E+00  0.00000000000E+00  0.12856243973E+03  0.12856243973E+03  0.00000000000E+00 0. -1.
         21   -1    0    0  502  504 -0.00000000000E+00 -0.00000000000E+00 -0.44731405066E+03  0.44731405066E+03  0.00000000000E+00 0.  1.
          6    2    1    2  502    0 -0.12990218654E+01  0.12930392458E+03 -0.28413176826E+03  0.35623906268E+03  0.17162230530E+03 0.  0.
         24    2    3    3    0    0  0.36262416205E+02  0.14477916024E+03 -0.25346293367E+03  0.30512143398E+03  0.81115119809E+02 0.  0.
         -6    2    1    2    0  503  0.12990218654E+01 -0.12930392458E+03 -0.34619842673E+02  0.21963742771E+03  0.17412889988E+03 0.  0.
        -24    2    5    5    0    0  0.46761596483E+02 -0.53709457172E+02  0.27355779587E+02  0.11172803540E+03  0.81630034439E+02 0.  0.
          2    1    4    4  501    0  0.51928560103E+02  0.73612989602E+02 -0.96193239631E+02  0.13178993491E+03  0.00000000000E+00 0. -1.
         -1    1    4    4    0  501 -0.15666143898E+02  0.71166170637E+02 -0.15726969404E+03  0.17333149907E+03  0.00000000000E+00 0.  1.
          5    1    3    3  502    0 -0.37561438071E+02 -0.15475235661E+02 -0.30668834594E+02  0.51117628702E+02  0.47000000000E+01 0. -1.
         11    1    6    6    0    0  0.25024864520E+02 -0.74245602371E+02  0.17940378190E+02  0.80377300808E+02  0.00000000000E+00 0. -1.
        -12    1    6    6    0    0  0.21736731963E+02  0.20536145199E+02  0.94154013962E+01  0.31350734593E+02  0.00000000000E+00 0.  1.
         -5    1    5    5    0  503 -0.45462574617E+02 -0.75594467407E+02 -0.61975622260E+02  0.10790939231E+03  0.47000000000E+01 0.  1.
<mgrwt>
<rscale>  2 0.21638828E+03</rscale>
<asrwt>0</asrwt>
<pdfrwt beam="1">  1       21 0.19778837E-01 0.21689183E+03</pdfrwt>
<pdfrwt beam="2">  1       21 0.68817546E-01 0.21689183E+03</pdfrwt>
<totfact> 0.44795336E+04</totfact>
</mgrwt>
</event>
<event>
12    1  0.1473662E-001  0.4209617E+03  0.7546771E-02  0.1036784E+00
         21   -1    0    0  504  503  0.00000000000E+00  0.00000000000E+00  0.85400636124E+03  0.85400636124E+03  0.00000000000E+00 0. -1.
         21   -1    0    0  502  504 -0.00000000000E+00 -0.00000000000E+00 -0.48965221119E+03  0.48965221119E+03  0.00000000000E+00 0.  1.
          6    2    1    2  502    0 -0.63120977240E+02 -0.37781851608E+03 -0.32800797085E+03  0.53336598132E+03  0.17366333013E+03 0.  0.
         24    2    3    3    0    0 -0.13075543788E+02 -0.23565681044E+03 -0.12024713291E+03  0.27665378500E+03  0.79830079727E+02 0.  0.
         -6    2    1    2    0  503  0.63120977240E+02  0.37781851608E+03  0.69236212090E+03  0.81029259111E+03  0.17457860089E+03 0.  0.
        -24    2    5    5    0    0  0.61837999513E+01  0.26672342377E+03  0.57460751620E+03  0.63861790276E+03  0.80494744401E+02 0.  0.
          4    1    4    4  501    0 -0.35389110560E+02 -0.12734654651E+03 -0.34171946955E+02  0.13651832848E+03  0.00000000000E+00 0. -1.
         -3    1    4    4    0  501  0.22313566772E+02 -0.10831026394E+03 -0.86075185958E+02  0.14013545652E+03  0.00000000000E+00 0.  1.
          5    1    3    3  502    0 -0.50045433452E+02 -0.14216170564E+03 -0.20776083794E+03  0.25671219632E+03  0.47000000000E+01 0. -1.
         13    1    6    6    0    0  0.42743634586E+02  0.14970583779E+03  0.30461560597E+03  0.34209578128E+03  0.00000000000E+00 0. -1.
        -14    1    6    6    0    0 -0.36559834635E+02  0.11701758598E+03  0.26999191023E+03  0.29652212148E+03  0.00000000000E+00 0.  1.
         -5    1    5    5    0  503  0.56937177289E+02  0.11109509231E+03  0.11775460469E+03  0.17167468835E+03  0.47000000000E+01 0.  1.
<mgrwt>
<rscale>  2 0.42086701E+03</rscale>
<asrwt>0</asrwt>
<pdfrwt beam="1">  1       21 0.13138559E+00 0.42096173E+03</pdfrwt>
<pdfrwt beam="2">  1       21 0.75331109E-01 0.42096173E+03</pdfrwt>
<totfact> 0.56217282E+02</totfact>
</mgrwt>
</event>
<event>
12    1  0.1473662E-001  0.2222734E+03  0.7546771E-02  0.1132333E+00
         21   -1    0    0  504  503  0.00000000000E+00  0.00000000000E+00  0.25244264398E+03  0.25244264398E+03  0.00000000000E+00 0. -1.
         21   -1    0    0  502  504 -0.00000000000E+00 -0.00000000000E+00 -0.25547805375E+03  0.25547805375E+03  0.00000000000E+00 0. -1.
          6    2    1    2  502    0 -0.17165649488E+02  0.13754612344E+03 -0.12500983802E+03  0.25501550935E+03  0.17375803524E+03 0.  0.
         24    2    3    3    0    0 -0.62335245858E+02  0.11847922746E+03 -0.46093592277E+02  0.16199022891E+03  0.78696917334E+02 0.  0.
         -6    2    1    2    0  503  0.17165649488E+02 -0.13754612344E+03  0.12197442825E+03  0.25290518838E+03  0.17282846284E+03 0.  0.
        -24    2    5    5    0    0  0.67338926223E+02 -0.13376125887E+03  0.10510559807E+03  0.19962920571E+03  0.79862554842E+02 0.  0.
          4    1    4    4  501    0  0.91407880298E+01  0.65922241406E+02 -0.21107359330E+02  0.69819886391E+02  0.00000000000E+00 0. -1.
         -3    1    4    4    0  501 -0.71476033887E+02  0.52556986057E+02 -0.24986232947E+02  0.92170342522E+02  0.00000000000E+00 0.  1.
          5    1    3    3  502    0  0.45169596370E+02  0.19066895977E+02 -0.78916245740E+02  0.93025280435E+02  0.47000000000E+01 0. -1.
         11    1    6    6    0    0  0.55092297805E+02 -0.14369489222E+03  0.96802933012E+02  0.18180811634E+03  0.00000000000E+00 0. -1.
        -12    1    6    6    0    0  0.12246628418E+02  0.99336333495E+01  0.83026650614E+01  0.17821089368E+02  0.00000000000E+00 0.  1.
         -5    1    5    5    0  503 -0.50173276735E+02 -0.37848645675E+01  0.16868830180E+02  0.53275982673E+02  0.47000000000E+01 0.  1.
<mgrwt>
<rscale>  2 0.22209167E+03</rscale>
<asrwt>0</asrwt>
<pdfrwt beam="1">  1       21 0.38837330E-01 0.22227337E+03</pdfrwt>
<pdfrwt beam="2">  1       21 0.39304316E-01 0.22227337E+03</pdfrwt>
<totfact> 0.39308233E+04</totfact>
</mgrwt>
</event>
<event>
12    1  0.1473662E-001  0.1784819E+03  0.7546771E-02  0.1169346E+00
         21   -1    0    0  504  503  0.00000000000E+00  0.00000000000E+00  0.13800929377E+03  0.13800929377E+03  0.00000000000E+00 0. -1.
         21   -1    0    0  502  504 -0.00000000000E+00 -0.00000000000E+00 -0.24319173881E+03  0.24319173881E+03  0.00000000000E+00 0. -1.
          6    2    1    2  502    0  0.45713555710E+02  0.66117569910E+01 -0.96213293964E+02  0.20276285374E+03  0.17240166013E+03 0.  0.
         24    2    3    3    0    0  0.10185921369E+02 -0.10406726106E+02  0.15872280470E+02  0.83863284505E+02  0.81049788762E+02 0.  0.
         -6    2    1    2    0  503 -0.45713555710E+02 -0.66117569910E+01 -0.89691510786E+01  0.17843817884E+03  0.17212290228E+03 0.  0.
        -24    2    5    5    0    0  0.30125011275E+02 -0.74117214643E+01  0.32159947337E+02  0.92033196791E+02  0.80457424639E+02 0.  0.
          2    1    4    4  501    0  0.50603500550E+01  0.30131829352E+02  0.27787816320E+02  0.41300084971E+02  0.00000000000E+00 0. -1.
         -1    1    4    4    0  501  0.51255713136E+01 -0.40538555458E+02 -0.11915535851E+02  0.42563199534E+02  0.00000000000E+00 0.  1.
          5    1    3    3  502    0  0.35527634342E+02  0.17018483097E+02 -0.11208557443E+03  0.11889956924E+03  0.47000000000E+01 0. -1.
         11    1    6    6    0    0 -0.24112662586E+01  0.12689934374E+02  0.48685946461E+02  0.50370328788E+02  0.00000000000E+00 0. -1.
        -12    1    6    6    0    0  0.32536277533E+02 -0.20101655839E+02 -0.16525999124E+02  0.41662868003E+02  0.00000000000E+00 0.  1.
         -5    1    5    5    0  503 -0.75838566985E+02  0.79996447330E+00 -0.41129098416E+02  0.86404982044E+02  0.47000000000E+01 0.  1.
<mgrwt>
<rscale>  2 0.17841452E+03</rscale>
<asrwt>0</asrwt>
<pdfrwt beam="1">  1       21 0.21232199E-01 0.17848187E+03</pdfrwt>
<pdfrwt beam="2">  1       21 0.37414113E-01 0.17848187E+03</pdfrwt>
<totfact> 0.14285217E+05</totfact>
</mgrwt>
</event>
<event>
12    1  0.1473662E-001  0.2395789E+03  0.7546771E-02  0.1120638E+00
         21   -1    0    0  504  503  0.00000000000E+00  0.00000000000E+00  0.98342081635E+03  0.98342081635E+03  0.00000000000E+00 0. -1.
         21   -1    0    0  502  504 -0.00000000000E+00 -0.00000000000E+00 -0.13260668979E+03  0.13260668979E+03  0.00000000000E+00 0.  1.
          6    2    1    2  502    0  0.14649334422E+03 -0.77334258815E+02  0.43014996046E+01  0.23626522109E+03  0.16840981062E+03 0.  0.
         24    2    3    3    0    0  0.10020366821E+03 -0.98839783142E+02 -0.43068936977E+02  0.16647073748E+03  0.77765643115E+02 0.  0.
         -6    2    1    2    0  503 -0.14649334422E+03  0.77334258815E+02  0.84651262696E+03  0.87976228504E+03  0.17308137710E+03 0.  0.
        -24    2    5    5    0    0 -0.14184152698E+03  0.21955210292E+02  0.75273059829E+03  0.77064932834E+03  0.81828990212E+02 0.  0.
          2    1    4    4  501    0  0.15016553811E+02 -0.64246501310E+02 -0.33600859426E+02  0.74041390945E+02  0.00000000000E+00 0. -1.
         -1    1    4    4    0  501  0.85187114400E+02 -0.34593281832E+02 -0.94680775514E+01  0.92429346531E+02  0.00000000000E+00 0.  1.
          5    1    3    3  502    0  0.46289676008E+02  0.21505524328E+02  0.47370436582E+02  0.69794483618E+02  0.47000000000E+01 0. -1.
         13    1    6    6    0    0 -0.12705152751E+03  0.46748434618E+02  0.64943429426E+03  0.66339461058E+03  0.00000000000E+00 0. -1.
        -14    1    6    6    0    0 -0.14789999471E+02 -0.24793224326E+02  0.10329630402E+03  0.10725471776E+03  0.00000000000E+00 0.  1.
         -5    1    5    5    0  503 -0.46518172363E+01  0.55379048523E+02  0.93782028671E+02  0.10911295670E+03  0.47000000000E+01 0.  1.
<mgrwt>
<rscale>  2 0.23873626E+03</rscale>
<asrwt>0</asrwt>
<pdfrwt beam="1">  1       21 0.15129551E+00 0.23957890E+03</pdfrwt>
<pdfrwt beam="2">  1       21 0.20401030E-01 0.23957890E+03</pdfrwt>
<totfact> 0.62736665E+03</totfact>
</mgrwt>
</event>
<event>
12    1  0.1473662E-001  0.1978396E+03  0.7546771E-02  0.1152286E+00
         21   -1    0    0  504  503  0.00000000000E+00  0.00000000000E+00  0.83059681906E+03  0.83059681906E+03  0.00000000000E+00 0. -1.
         21   -1    0    0  502  504 -0.00000000000E+00 -0.00000000000E+00 -0.79922057527E+02  0.79922057527E+02  0.00000000000E+00 0. -1.
          6    2    1    2  502    0 -0.77218667790E+02 -0.60468138949E+02  0.78414913896E+02  0.20975229459E+03  0.16801192780E+03 0.  0.
         24    2    3    3    0    0 -0.95672765897E+01 -0.87192646777E+02  0.64451576032E+02  0.13553656274E+03  0.80759295154E+02 0.  0.
         -6    2    1    2    0  503  0.77218667790E+02  0.60468138949E+02  0.67225984763E+03  0.70076658199E+03  0.17181787221E+03 0.  0.
        -24    2    5    5    0    0  0.10426795388E+03  0.44680727434E+02  0.33302475965E+03  0.36005638085E+03  0.76595908784E+02 0.  0.
          4    1    4    4  501    0  0.94571628690E+01 -0.35478501262E+02  0.71113273407E+02  0.80032865974E+02  0.00000000000E+00 0. -1.
         -3    1    4    4    0  501 -0.19024439459E+02 -0.51714145515E+02 -0.66616973756E+01  0.55503696769E+02  0.00000000000E+00 0.  1.
          5    1    3    3  502    0 -0.67651391200E+02  0.26724507828E+02  0.13963337865E+02  0.74215731852E+02  0.47000000000E+01 0. -1.
         13    1    6    6    0    0 -0.54678531684E+01  0.19493710546E+02  0.89542998754E+02  0.91803326710E+02  0.00000000000E+00 0. -1.
        -14    1    6    6    0    0  0.10973580704E+03  0.25187016888E+02  0.24348176089E+03  0.26825305414E+03  0.00000000000E+00 0.  1.
         -5    1    5    5    0  503 -0.27049286086E+02  0.15787411515E+02  0.33923508798E+03  0.34071020114E+03  0.47000000000E+01 0.  1.
<mgrwt>
<rscale>  2 0.19701033E+03</rscale>
<asrwt>0</asrwt>
<pdfrwt beam="1">  1       21 0.12778412E+00 0.19783958E+03</pdfrwt>
<pdfrwt beam="2">  1       21 0.12295702E-01 0.19783958E+03</pdfrwt>
<totfact> 0.25276767E+04</totfact>
</mgrwt>
</event>
<event>
12    1  0.1473662E-001  0.3442344E+03  0.7546771E-02  0.1065015E+00
         21   -1    0    0  504  503  0.00000000000E+00  0.00000000000E+00  0.25244661394E+03  0.25244661394E+03  0.00000000000E+00 0. -1.
         21   -1    0    0  502  504 -0.00000000000E+00 -0.00000000000E+00 -0.46932120506E+03  0.46932120506E+03  0.00000000000E+00 0. -1.
          6    2    1    2  502    0  0.28360780884E+03 -0.90193091522E+02 -0.10539516282E+03  0.35993227618E+03  0.17284362904E+03 0.  0.
         24    2    3    3    0    0  0.11090037273E+03 -0.16300111330E+02 -0.10236817291E+03  0.17199802258E+03  0.80867117209E+02 0.  0.
         -6    2    1    2    0  503 -0.28360780884E+03  0.90193091522E+02 -0.11147942830E+03  0.36183554282E+03  0.17300032982E+03 0.  0.
        -24    2    5    5    0    0 -0.18248136849E+03 -0.83406965551E+01 -0.54804871170E+02  0.20962003849E+03  0.86994077781E+02 0.  0.
          2    1    4    4  501    0  0.82410108182E+02 -0.42728923667E+02 -0.46181784387E+02  0.10368193699E+03  0.00000000000E+00 0. -1.
         -1    1    4    4    0  501  0.28490264546E+02  0.26428812337E+02 -0.56186388519E+02  0.68316085589E+02  0.00000000000E+00 0.  1.
          5    1    3    3  502    0  0.17270743611E+03 -0.73892980192E+02 -0.30269899129E+01  0.18793425361E+03  0.47000000000E+01 0. -1.
         13    1    6    6    0    0 -0.77034813182E+02 -0.59165659800E+01 -0.68506459369E+02  0.10325939749E+03  0.00000000000E+00 0. -1.
        -14    1    6    6    0    0 -0.10544655530E+03 -0.24241305751E+01  0.13701588199E+02  0.10636064100E+03  0.00000000000E+00 0.  1.
         -5    1    5    5    0  503 -0.10112644035E+03  0.98533788077E+02 -0.56674557131E+02  0.15221550433E+03  0.47000000000E+01 0.  1.
<mgrwt>
<rscale>  2 0.34421468E+03</rscale>
<asrwt>0</asrwt>
<pdfrwt beam="1">  1       21 0.38837940E-01 0.34423436E+03</pdfrwt>
<pdfrwt beam="2">  1       21 0.72203263E-01 0.34423436E+03</pdfrwt>
<totfact> 0.10222828E+04</totfact>
</mgrwt>
</event>
<event>
12    1  0.1473662E-001  0.1945246E+03  0.7546771E-02  0.1156074E+00
         21   -1    0    0  504  503  0.00000000000E+00  0.00000000000E+00  0.21526957526E+03  0.21526957526E+03  0.00000000000E+00 0.  1.
         21   -1    0    0  502  504 -0.00000000000E+00 -0.00000000000E+00 -0.19205078805E+03  0.19205078805E+03  0.00000000000E+00 0.  1.
          6    2    1    2  502    0 -0.82754742809E+02 -0.25938234647E+02 -0.58770072008E+02  0.19622325851E+03  0.16591716711E+03 0.  0.
         24    2    3    3    0    0 -0.59922084349E+02 -0.60573532647E+02  0.79745238919E+01  0.11749673667E+03  0.80511372151E+02 0.  0.
         -6    2    1    2    0  503  0.82754742809E+02  0.25938234647E+02  0.81988859217E+02  0.21109710479E+03  0.17412258654E+03 0.  0.
        -24    2    5    5    0    0 -0.65241160389E+01  0.39584257958E+02  0.62284691631E+01  0.93119754042E+02  0.83803443823E+02 0.  0.
          4    1    4    4  501    0  0.15949684218E+02 -0.32666831156E+02  0.12063210319E+01  0.36372647620E+02  0.00000000000E+00 0. -1.
         -3    1    4    4    0  501 -0.75871768567E+02 -0.27906701491E+02  0.67682028600E+01  0.81124089046E+02  0.00000000000E+00 0.  1.
          5    1    3    3  502    0 -0.22832658461E+02  0.34635298000E+02 -0.66744595900E+02  0.78726521845E+02  0.47000000000E+01 0. -1.
         13    1    6    6    0    0 -0.20207721026E+02  0.62741193132E+02  0.63646934750E+01  0.66221738332E+02  0.00000000000E+00 0. -1.
        -14    1    6    6    0    0  0.13683604987E+02 -0.23156935174E+02 -0.13622431197E+00  0.26898015710E+02  0.00000000000E+00 0.  1.
         -5    1    5    5    0  503  0.89278858848E+02 -0.13646023311E+02  0.75760390054E+02  0.11797735075E+03  0.47000000000E+01 0.  1.
<mgrwt>
<rscale>  2 0.19267099E+03</rscale>
<asrwt>0</asrwt>
<pdfrwt beam="1">  1       21 0.33118396E-01 0.19452459E+03</pdfrwt>
<pdfrwt beam="2">  1       21 0.29546275E-01 0.19452459E+03</pdfrwt>
<totfact> 0.96294290E+04</totfact>
</mgrwt>
</event>
<event>
12    1  0.1473662E-001  0.1749295E+03  0.7546771E-02  0.1173142E+00
         21   -1    0    0  504  503  0.00000000000E+00  0.00000000000E+00  0.10531872903E+03  0.10531872903E+03  0.00000000000E+00 0. -1.
         21   -1    0    0  502  504 -0.00000000000E+00 -0.00000000000E+00 -0.50687597732E+03  0.50687597732E+03  0.00000000000E+00 0. -1.
          6    2    1    2  502    0 -0.99295831206E+00 -0.74261777667E+01 -0.40221483102E+03  0.43860813641E+03  0.17476897022E+03 0.  0.
         24    2    3    3    0    0 -0.46713045861E+02 -0.25942456514E+02 -0.36324235071E+03  0.37556748916E+03  0.79062088643E+02 0.  0.
         -6    2    1    2    0  503  0.99295831206E+00  0.74261777667E+01  0.65758273265E+00  0.17358656994E+03  0.17342355886E+03 0.  0.
        -24    2    5    5    0    0 -0.31492353338E+01  0.34755286822E+02  0.61201186514E+02  0.10686583906E+03  0.80354680527E+02 0.  0.
          2    1    4    4  501    0 -0.34852225876E+02  0.56539414450E+01 -0.31334709160E+03  0.31533005648E+03  0.00000000000E+00 0. -1.
         -1    1    4    4    0  501 -0.11860819984E+02 -0.31596397959E+02 -0.49895259109E+02  0.60237432683E+02  0.00000000000E+00 0.  1.
          5    1    3    3  502    0  0.45720087549E+02  0.18516278748E+02 -0.38972480303E+02  0.63040647245E+02  0.47000000000E+01 0. -1.
         11    1    6    6    0    0 -0.28610164358E+02 -0.14508522788E+02  0.24537347909E+02  0.40387128896E+02  0.00000000000E+00 0. -1.
        -12    1    6    6    0    0  0.25460929024E+02  0.49263809611E+02  0.36663838605E+02  0.66478710167E+02  0.00000000000E+00 0.  1.
         -5    1    5    5    0  503  0.41421936459E+01 -0.27329109056E+02 -0.60543603781E+02  0.66720730877E+02  0.47000000000E+01 0.  1.
<mgrwt>
<rscale>  2 0.17459248E+03</rscale>
<asrwt>0</asrwt>
<pdfrwt beam="1">  1       21 0.16202881E-01 0.17492949E+03</pdfrwt>
<pdfrwt beam="2">  1       21 0.77980921E-01 0.17492949E+03</pdfrwt>
<totfact> 0.50073334E+04</totfact>
</mgrwt>
</event>
<event>
12    1  0.1473662E-001  0.1912750E+03  0.7546771E-02  0.1157704E+00
         21   -1    0    0  504  503  0.00000000000E+00  0.00000000000E+00  0.52156900866E+02  0.52156900866E+02  0.00000000000E+00 0. -1.
         21   -1    0    0  502  504 -0.00000000000E+00 -0.00000000000E+00 -0.12919340572E+04  0.12919340572E+04  0.00000000000E+00 0.  1.
          6    2    1    2  502    0  0.43140346298E+02  0.62432097394E+02 -0.10781537402E+04  0.10949893233E+04  0.17557697559E+03 0.  0.
         24    2    3    3    0    0 -0.30057142271E+00  0.65545923556E+02 -0.33292073836E+03  0.34846998243E+03  0.79364678476E+02 0.  0.
         -6    2    1    2    0  503 -0.43140346298E+02 -0.62432097394E+02 -0.16162341620E+03  0.24910163484E+03  0.17369697623E+03 0.  0.
        -24    2    5    5    0    0  0.41543547782E+02 -0.20467867936E+02 -0.99083717075E+02  0.13567473134E+03  0.80282312839E+02 0.  0.
          4    1    4    4  501    0  0.28871810624E+02  0.82928397461E+01 -0.49879011848E+02  0.58226011908E+02  0.00000000000E+00 0. -1.
         -3    1    4    4    0  501 -0.29172382047E+02  0.57253083810E+02 -0.28304172651E+03  0.29024397052E+03  0.00000000000E+00 0.  1.
          5    1    3    3  502    0  0.43440917720E+02 -0.31138261624E+01 -0.74523300182E+03  0.74651934084E+03  0.47000000000E+01 0. -1.
         11    1    6    6    0    0 -0.24065965034E+02 -0.88511227143E+01 -0.22009361362E+02  0.33792381299E+02  0.00000000000E+00 0. -1.
        -12    1    6    6    0    0  0.65609512816E+02 -0.11616745222E+02 -0.77074355712E+02  0.10188235004E+03  0.00000000000E+00 0.  1.
         -5    1    5    5    0  503 -0.84683894080E+02 -0.41964229457E+02 -0.62539699129E+02  0.11342690350E+03  0.47000000000E+01 0.  1.
<mgrwt>
<rscale>  2 0.19084249E+03</rscale>
<asrwt>0</asrwt>
<pdfrwt beam="1">  1       21 0.80241391E-02 0.19127501E+03</pdfrwt>
<pdfrwt beam="2">  1       21 0.19875907E+00 0.19127501E+03</pdfrwt>
<totfact> 0.16343341E+04</totfact>
</mgrwt>
</event>
<event>
12    1  0.1473662E-001  0.1979958E+03  0.7546771E-02  0.1151677E+00
         21   -1    0    0  504  503  0.00000000000E+00  0.00000000000E+00  0.71046985657E+03  0.71046985657E+03  0.00000000000E+00 0. -1.
         21   -1    0    0  502  504 -0.00000000000E+00 -0.00000000000E+00 -0.78556527669E+02  0.78556527669E+02  0.00000000000E+00 0.  1.
          6    2    1    2  502    0 -0.87785231377E+02  0.35798891096E+02  0.98718220815E+02  0.22025635434E+03  0.17256815191E+03 0.  0.
         24    2    3    3    0    0 -0.12304937899E+03  0.48478780910E+01  0.59348363682E+02  0.15882671195E+03  0.80864359068E+02 0.  0.
         -6    2    1    2    0  503  0.87785231377E+02 -0.35798891096E+02  0.53319510808E+03  0.56877002990E+03  0.17382323256E+03 0.  0.
        -24    2    5    5    0    0  0.12677368150E+03 -0.15296401730E+02  0.44888548472E+03  0.47353004930E+03  0.80168466163E+02 0.  0.
          2    1    4    4  501    0 -0.27988651151E+02 -0.96404955824E+01  0.55130979496E+02  0.62575783244E+02  0.00000000000E+00 0. -1.
         -1    1    4    4    0  501 -0.95060727835E+02  0.14488373673E+02  0.42173841858E+01  0.96250928710E+02  0.00000000000E+00 0.  1.
          5    1    3    3  502    0  0.35264147609E+02  0.30951013005E+02  0.39369857133E+02  0.61429642383E+02  0.47000000000E+01 0. -1.
         13    1    6    6    0    0  0.25491038347E+02  0.21809092820E+02  0.19213286339E+03  0.19503965433E+03  0.00000000000E+00 0. -1.
        -14    1    6    6    0    0  0.10128264316E+03 -0.37105494549E+02  0.25675262133E+03  0.27849039497E+03  0.00000000000E+00 0.  1.
         -5    1    5    5    0  503 -0.38988450126E+02 -0.20502489366E+02  0.84309623364E+02  0.95239980603E+02  0.47000000000E+01 0.  1.
<mgrwt>
<rscale>  2 0.19771996E+03</rscale>
<asrwt>0</asrwt>
<pdfrwt beam="1">  1       21 0.10930305E+00 0.19799577E+03</pdfrwt>
<pdfrwt beam="2">  1       21 0.12085620E-01 0.19799577E+03</pdfrwt>
<totfact> 0.38314035E+04</totfact>
</mgrwt>
</event>
<event>
12    1  0.1473662E-001  0.1941831E+03  0.7546771E-02  0.1155983E+00
         21   -1    0    0  504  503  0.00000000000E+00  0.00000000000E+00  0.82667129621E+03  0.82667129621E+03  0.00000000000E+00 0. -1.
         21   -1    0    0  502  504 -0.00000000000E+00 -0.00000000000E+00 -0.50926489580E+02  0.50926489580E+02  0.00000000000E+00 0. -1.
          6    2    1    2  502    0  0.26670488357E+02 -0.73598955162E+02  0.23467262799E+03  0.30459531380E+03  0.17770464741E+03 0.  0.
         24    2    3    3    0    0  0.51233865974E+02  0.13927900740E+02  0.79638555985E+02  0.12481221252E+03  0.80105513873E+02 0.  0.
         -6    2    1    2    0  503 -0.26670488357E+02  0.73598955162E+02  0.54107217864E+03  0.57300247199E+03  0.17159431593E+03 0.  0.
        -24    2    5    5    0    0 -0.58805956843E+02  0.30233310600E+02  0.48177196258E+03  0.49267891948E+03  0.79095512783E+02 0.  0.
          2    1    4    4  501    0 -0.53839363082E+01  0.35089858468E+02  0.26034841513E+02  0.44023833433E+02  0.00000000000E+00 0. -1.
         -1    1    4    4    0  501  0.56617802282E+02 -0.21161957728E+02  0.53603714472E+02  0.80788379086E+02  0.00000000000E+00 0.  1.
          5    1    3    3  502    0 -0.24563377617E+02 -0.87526855902E+02  0.15503407200E+03  0.17978310128E+03  0.47000000000E+01 0. -1.
         11    1    6    6    0    0 -0.40548483949E+01  0.40972588786E+02  0.12594300889E+03  0.13250221249E+03  0.00000000000E+00 0. -1.
        -12    1    6    6    0    0 -0.54751108448E+02 -0.10739278186E+02  0.35582895369E+03  0.36017670698E+03  0.00000000000E+00 0.  1.
         -5    1    5    5    0  503  0.32135468486E+02  0.43365644563E+02  0.59300216067E+02  0.80323552516E+02  0.47000000000E+01 0.  1.
<mgrwt>
<rscale>  2 0.19277387E+03</rscale>
<asrwt>0</asrwt>
<pdfrwt beam="1">  1       21 0.12718019E+00 0.19418307E+03</pdfrwt>
<pdfrwt beam="2">  1       21 0.78348452E-02 0.19418307E+03</pdfrwt>
<totfact> 0.56798037E+04</totfact>
</mgrwt>
</event>
<event>
12    1  0.1473662E-001  0.2005234E+03  0.7546771E-02  0.1152620E+00
         21   -1    0    0  504  503  0.00000000000E+00  0.00000000000E+00  0.67905349500E+02  0.67905349500E+02  0.00000000000E+00 0.  1.
         21   -1    0    0  502  504 -0.00000000000E+00 -0.00000000000E+00 -0.56154436701E+03  0.56154436701E+03  0.00000000000E+00 0.  1.
          6    2    1    2  502    0 -0.42458795202E+02  0.47924475276E+02 -0.30467982180E+03  0.36474573009E+03  0.19002670651E+03 0.  0.
         24    2    3    3    0    0 -0.37829083242E+02 -0.48746474452E+02 -0.18362251084E+03  0.20968551826E+03  0.80271612495E+02 0.  0.
         -6    2    1    2    0  503  0.42458795202E+02 -0.47924475276E+02 -0.18895919571E+03  0.26470398642E+03  0.17396297929E+03 0.  0.
        -24    2    5    5    0    0  0.30815324784E+02 -0.60496733440E+02 -0.36039068778E+02  0.11075501013E+03  0.79739693961E+02 0.  0.
          4    1    4    4  501    0 -0.14576179852E+02 -0.63619479986E+02 -0.84383758312E+02  0.10667952906E+03  0.00000000000E+00 0. -1.
         -3    1    4    4    0  501 -0.23252903390E+02  0.14873005534E+02 -0.99238752523E+02  0.10300598920E+03  0.00000000000E+00 0.  1.
          5    1    3    3  502    0 -0.46297119604E+01  0.96670949727E+02 -0.12105731096E+03  0.15506021183E+03  0.47000000000E+01 0. -1.
         11    1    6    6    0    0 -0.74453175178E+01  0.48929293965E+01 -0.33807225506E+02  0.34961436003E+02  0.00000000000E+00 0. -1.
        -12    1    6    6    0    0  0.38260642302E+02 -0.65389662836E+02 -0.22318432726E+01  0.75793574131E+02  0.00000000000E+00 0.  1.
         -5    1    5    5    0  503  0.11643470418E+02  0.12572258164E+02 -0.15292012693E+03  0.15394897629E+03  0.47000000000E+01 0.  1.
<mgrwt>
<rscale>  2 0.19662316E+03</rscale>
<asrwt>0</asrwt>
<pdfrwt beam="1">  1       21 0.10446977E-01 0.20052345E+03</pdfrwt>
<pdfrwt beam="2">  1       21 0.86391438E-01 0.20052345E+03</pdfrwt>
<totfact> 0.86407367E+04</totfact>
</mgrwt>
</event>
<event>
12    1  0.1473662E-001  0.1797087E+03  0.7546771E-02  0.1169902E+00
         21   -1    0    0  504  503  0.00000000000E+00  0.00000000000E+00  0.11360055776E+03  0.11360055776E+03  0.00000000000E+00 0. -1.
         21   -1    0    0  502  504 -0.00000000000E+00 -0.00000000000E+00 -0.30146044425E+03  0.30146044425E+03  0.00000000000E+00 0. -1.
          6    2    1    2  502    0 -0.95643405535E+01 -0.17175399017E+02 -0.15612026234E+03  0.23257091962E+03  0.17125777472E+03 0.  0.
         24    2    3    3    0    0  0.24022169768E+02  0.19261268090E+02 -0.16173194427E+03  0.18247835172E+03  0.78696035207E+02 0.  0.
         -6    2    1    2    0  503  0.95643405535E+01  0.17175399017E+02 -0.31739624149E+02  0.18249008239E+03  0.17863021997E+03 0.  0.
        -24    2    5    5    0    0 -0.15566569377E+02  0.67157554363E+02  0.15722469525E+02  0.10897464984E+03  0.82920582902E+02 0.  0.
          2    1    4    4  501    0  0.41299834679E+01  0.48430465417E+02 -0.82852318095E+02  0.96057656424E+02  0.00000000000E+00 0. -1.
         -1    1    4    4    0  501  0.19892186300E+02 -0.29169197327E+02 -0.78879626179E+02  0.86420695292E+02  0.00000000000E+00 0.  1.
          5    1    3    3  502    0 -0.33586510321E+02 -0.36436667107E+02  0.56116819376E+01  0.50092567908E+02  0.47000000000E+01 0. -1.
         11    1    6    6    0    0 -0.20190123317E+02  0.89241962754E+01 -0.28254358159E+02  0.35855140687E+02  0.00000000000E+00 0. -1.
        -12    1    6    6    0    0  0.46235539395E+01  0.58233358088E+02  0.43976827684E+02  0.73119509150E+02  0.00000000000E+00 0.  1.
         -5    1    5    5    0  503  0.25130909931E+02 -0.49982155346E+02 -0.47462093674E+02  0.73515432550E+02  0.47000000000E+01 0.  1.
<mgrwt>
<rscale>  2 0.17784846E+03</rscale>
<asrwt>0</asrwt>
<pdfrwt beam="1">  1       21 0.17477009E-01 0.17970873E+03</pdfrwt>
<pdfrwt beam="2">  1       21 0.46378530E-01 0.17970873E+03</pdfrwt>
<totfact> 0.13260996E+05</totfact>
</mgrwt>
</event>
<event>
12    1  0.1473662E-001  0.2213459E+03  0.7546771E-02  0.1133518E+00
         21   -1    0    0  504  503  0.00000000000E+00  0.00000000000E+00  0.30205371328E+02  0.30205371328E+02  0.00000000000E+00 0. -1.
         21   -1    0    0  502  504 -0.00000000000E+00 -0.00000000000E+00 -0.20045912555E+04  0.20045912555E+04  0.00000000000E+00 0.  1.
          6    2    1    2  502    0  0.13492028123E+03 -0.27168942846E+02 -0.14519238252E+04  0.14686990194E+04  0.17335622758E+03 0.  0.
         24    2    3    3    0    0  0.14679271434E+03  0.59220773305E+01 -0.89335855213E+03  0.90900872596E+03  0.81389122273E+02 0.  0.
         -6    2    1    2    0  503 -0.13492028123E+03  0.27168942846E+02 -0.52246205900E+03  0.56609760746E+03  0.16899190613E+03 0.  0.
        -24    2    5    5    0    0 -0.12313466108E+03  0.12133974728E+02 -0.52562577628E+03  0.54617148853E+03  0.81923501439E+02 0.  0.
          4    1    4    4  501    0  0.92089896001E+02  0.40712372088E+02 -0.61598631365E+03  0.62416118495E+03  0.00000000000E+00 0. -1.
         -3    1    4    4    0  501  0.54702818336E+02 -0.34790294757E+02 -0.27737223848E+03  0.28484754102E+03  0.00000000000E+00 0.  1.
          5    1    3    3  502    0 -0.11872433111E+02 -0.33091020177E+02 -0.55856527308E+03  0.55969029344E+03  0.47000000000E+01 0. -1.
         13    1    6    6    0    0 -0.71684064789E+02  0.27035327961E+02 -0.16911769801E+03  0.18566181590E+03  0.00000000000E+00 0. -1.
        -14    1    6    6    0    0 -0.51450596290E+02 -0.14901353232E+02 -0.35650807827E+03  0.36050967263E+03  0.00000000000E+00 0.  1.
         -5    1    5    5    0  503 -0.11785620148E+02  0.15034968118E+02  0.31637172857E+01  0.19926118930E+02  0.47000000000E+01 0.  1.
<mgrwt>
<rscale>  2 0.22049067E+03</rscale>
<asrwt>0</asrwt>
<pdfrwt beam="1">  1       21 0.46469793E-02 0.22134592E+03</pdfrwt>
<pdfrwt beam="2">  1       21 0.30839872E+00 0.22134592E+03</pdfrwt>
<totfact> 0.90224410E+03</totfact>
</mgrwt>
</event>
<event>
12    1  0.1473662E-001  0.2642834E+03  0.7546771E-02  0.1104861E+00
         21   -1    0    0  504  503  0.00000000000E+00  0.00000000000E+00  0.57569619462E+03  0.57569619462E+03  0.00000000000E+00 0. -1.
         21   -1    0    0  502  504 -0.00000000000E+00 -0.00000000000E+00 -0.49099966816E+03  0.49099966816E+03  0.00000000000E+00 0.  1.
          6    2    1    2  502    0  0.33620062471E+02 -0.19447073932E+03 -0.42091463269E+03  0.49700585521E+03  0.17577404543E+03 0.  0.
         24    2    3    3    0    0 -0.13742929890E+02 -0.92704552096E+02 -0.33077821956E+03  0.35297018991E+03  0.79941993494E+02 0.  0.
         -6    2    1    2    0  503 -0.33620062471E+02  0.19447073932E+03  0.50561115914E+03  0.56969000757E+03  0.17307479141E+03 0.  0.
        -24    2    5    5    0    0 -0.37491663321E+02  0.15325500028E+03  0.49710062377E+03  0.52716653582E+03  0.76829723458E+02 0.  0.
          2    1    4    4  501    0 -0.44252524312E+01  0.12051519718E+02 -0.13126314101E+02  0.18360885285E+02  0.00000000000E+00 0. -1.
         -1    1    4    4    0  501 -0.93176774586E+01 -0.10475607181E+03 -0.31765190546E+03  0.33460930462E+03  0.00000000000E+00 0.  1.
          5    1    3    3  502    0  0.47362992361E+02 -0.10176618722E+03 -0.90136413123E+02  0.14403566530E+03  0.47000000000E+01 0. -1.
         13    1    6    6    0    0  0.19423462597E+02  0.65879311883E+02  0.24249498678E+03  0.25203407160E+03  0.00000000000E+00 0. -1.
        -14    1    6    6    0    0 -0.56915125917E+02  0.87375688402E+02  0.25460563698E+03  0.27513246422E+03  0.00000000000E+00 0.  1.
         -5    1    5    5    0  503  0.38716008497E+01  0.41215739036E+02  0.85105353765E+01  0.42523471752E+02  0.47000000000E+01 0.  1.
<mgrwt>
<rscale>  2 0.26383534E+03</rscale>
<asrwt>0</asrwt>
<pdfrwt beam="1">  1       21 0.88568645E-01 0.26428336E+03</pdfrwt>
<pdfrwt beam="2">  1       21 0.75538411E-01 0.26428336E+03</pdfrwt>
<totfact> 0.16095352E+03</totfact>
</mgrwt>
</event>
<event>
12    1  0.1473662E-001  0.1817131E+03  0.7546771E-02  0.1166927E+00
         21   -1    0    0  504  503  0.00000000000E+00  0.00000000000E+00  0.88201368840E+03  0.88201368840E+03  0.00000000000E+00 0.  1.
         21   -1    0    0  502  504 -0.00000000000E+00 -0.00000000000E+00 -0.40621756154E+02  0.40621756154E+02  0.00000000000E+00 0.  1.
          6    2    1    2  502    0 -0.33965401206E+02 -0.29827978450E+02  0.27546245896E+03  0.32824850537E+03  0.17269672320E+03 0.  0.
         24    2    3    3    0    0  0.39317120723E+02 -0.45312227146E+01  0.87600886921E+02  0.12496467886E+03  0.79849155363E+02 0.  0.
         -6    2    1    2    0  503  0.33965401206E+02  0.29827978450E+02  0.56592947328E+03  0.59438693918E+03  0.17600087489E+03 0.  0.
        -24    2    5    5    0    0  0.68815822307E+02 -0.28106295924E+02  0.41003258292E+03  0.42439616760E+03  0.80372922975E+02 0.  0.
          2    1    4    4  501    0  0.54691510664E+02 -0.57390813141E+01  0.24848765774E+02  0.60345335806E+02  0.00000000000E+00 0. -1.
         -1    1    4    4    0  501 -0.15374389941E+02  0.12078585995E+01  0.62752121147E+02  0.64619343055E+02  0.00000000000E+00 0.  1.
          5    1    3    3  502    0 -0.73282521929E+02 -0.25296755735E+02  0.18786157204E+03  0.20328382651E+03  0.47000000000E+01 0. -1.
         11    1    6    6    0    0  0.20796160173E+02  0.28475788597E+02  0.13389937910E+03  0.13846441614E+03  0.00000000000E+00 0. -1.
        -12    1    6    6    0    0  0.48019662134E+02 -0.56582084521E+02  0.27613320382E+03  0.28593175146E+03  0.00000000000E+00 0.  1.
         -5    1    5    5    0  503 -0.34850421101E+02  0.57934274374E+02  0.15589689036E+03  0.16999077158E+03  0.47000000000E+01 0.  1.
<mgrwt>
<rscale>  2 0.18090821E+03</rscale>
<asrwt>0</asrwt>
<pdfrwt beam="1">  1       21 0.13569440E+00 0.18171314E+03</pdfrwt>
<pdfrwt beam="2">  1       21 0.62495016E-02 0.18171314E+03</pdfrwt>
<totfact> 0.71683865E+04</totfact>
</mgrwt>
</event>
<event>
12    1  0.1473662E-001  0.1734454E+03  0.7546771E-02  0.1175300E+00
         21   -1    0    0  504  503  0.00000000000E+00  0.00000000000E+00  0.30753074306E+02  0.30753074306E+02  0.00000000000E+00 0.  1.
         21   -1    0    0  502  504 -0.00000000000E+00 -0.00000000000E+00 -0.96253285453E+03  0.96253285453E+03  0.00000000000E+00 0.  1.
          6    2    1    2  502    0  0.29136039362E+01 -0.20716796240E+02 -0.51064097513E+03  0.53929352135E+03  0.17217904040E+03 0.  0.
         24    2    3    3    0    0 -0.46757584847E+02 -0.54190602615E+02 -0.37401350424E+03  0.39003911267E+03  0.84389068638E+02 0.  0.
         -6    2    1    2    0  503 -0.29136039362E+01  0.20716796240E+02 -0.42113880509E+03  0.45399240749E+03  0.16826627163E+03 0.  0.
        -24    2    5    5    0    0 -0.52306435807E+02  0.47106577248E+02 -0.21436896241E+03  0.23972171368E+03  0.80978115056E+02 0.  0.
          2    1    4    4  501    0 -0.25067352073E+02  0.18300787041E+02 -0.16153358850E+03  0.16448827059E+03  0.00000000000E+00 0. -1.
         -1    1    4    4    0  501 -0.21690232774E+02 -0.72491389657E+02 -0.21247991574E+03  0.22555084208E+03  0.00000000000E+00 0.  1.
          5    1    3    3  502    0  0.49671188783E+02  0.33473806375E+02 -0.13662747089E+03  0.14925440868E+03  0.47000000000E+01 0. -1.
         11    1    6    6    0    0 -0.68780988231E+01 -0.66393824398E+01  0.39479429716E+01  0.10342915271E+02  0.00000000000E+00 0. -1.
        -12    1    6    6    0    0 -0.45428336984E+02  0.53745959688E+02 -0.21831690539E+03  0.22937879841E+03  0.00000000000E+00 0.  1.
         -5    1    5    5    0  503  0.49392831871E+02 -0.26389781008E+02 -0.20676984268E+03  0.21427069381E+03  0.47000000000E+01 0.  1.
<mgrwt>
<rscale>  2 0.17246622E+03</rscale>
<asrwt>0</asrwt>
<pdfrwt beam="1">  1       21 0.47312416E-02 0.17344537E+03</pdfrwt>
<pdfrwt beam="2">  1       21 0.14808200E+00 0.17344537E+03</pdfrwt>
<totfact> 0.92184942E+04</totfact>
</mgrwt>
</event>
<event>
12    1  0.1473662E-001  0.1765084E+03  0.7546771E-02  0.1171457E+00
         21   -1    0    0  504  503  0.00000000000E+00  0.00000000000E+00  0.12793945850E+04  0.12793945850E+04  0.00000000000E+00 0.  1.
         21   -1    0    0  502  504 -0.00000000000E+00 -0.00000000000E+00 -0.26027387448E+02  0.26027387448E+02  0.00000000000E+00 0.  1.
          6    2    1    2  502    0  0.14899356280E+02 -0.19294490065E+02  0.80005324325E+03  0.81929262070E+03  0.17481687026E+03 0.  0.
         24    2    3    3    0    0  0.88740149819E+01  0.29738224198E+02  0.71957607241E+03  0.72474540058E+03  0.80641562188E+02 0.  0.
         -6    2    1    2    0  503 -0.14899356280E+02  0.19294490065E+02  0.45331395432E+03  0.48612935177E+03  0.17387908818E+03 0.  0.
        -24    2    5    5    0    0  0.17047594536E+02  0.73953320477E+02  0.31399008763E+03  0.33302342361E+03  0.80963642788E+02 0.  0.
          2    1    4    4  501    0 -0.33964592111E+02  0.24406060396E+02  0.41955468505E+03  0.42163418154E+03  0.00000000000E+00 0. -1.
         -1    1    4    4    0  501  0.42838607093E+02  0.53321638017E+01  0.30002138737E+03  0.30311121904E+03  0.00000000000E+00 0.  1.
          5    1    3    3  502    0  0.60253412983E+01 -0.49032714263E+02  0.80477170840E+02  0.94547220119E+02  0.47000000000E+01 0. -1.
         13    1    6    6    0    0  0.31781926024E+02  0.14570862656E+02  0.44062266951E+02  0.56248415348E+02  0.00000000000E+00 0. -1.
        -14    1    6    6    0    0 -0.14734331488E+02  0.59382457822E+02  0.26992782068E+03  0.27677500826E+03  0.00000000000E+00 0.  1.
         -5    1    5    5    0  503 -0.31946950816E+02 -0.54658830412E+02  0.13932386669E+03  0.15310592816E+03  0.47000000000E+01 0.  1.
<mgrwt>
<rscale>  2 0.17627573E+03</rscale>
<asrwt>0</asrwt>
<pdfrwt beam="1">  1       21 0.19682989E+00 0.17650837E+03</pdfrwt>
<pdfrwt beam="2">  1       21 0.40042144E-02 0.17650837E+03</pdfrwt>
<totfact> 0.55627042E+04</totfact>
</mgrwt>
</event>
<event>
12    1  0.1473662E-001  0.2954996E+03  0.7546771E-02  0.1087919E+00
         21   -1    0    0  504  503  0.00000000000E+00  0.00000000000E+00  0.84008970655E+02  0.84008970655E+02  0.00000000000E+00 0. -1.
         21   -1    0    0  502  504 -0.00000000000E+00 -0.00000000000E+00 -0.15845087920E+04  0.15845087920E+04  0.00000000000E+00 0.  1.
          6    2    1    2  502    0 -0.21928783311E+03  0.86734239430E+02 -0.12419078276E+04  0.12758476101E+04  0.17274863233E+03 0.  0.
         24    2    3    3    0    0 -0.19487378176E+03  0.10947278419E+03 -0.85160143525E+03  0.88408970373E+03  0.80184277842E+02 0.  0.
         -6    2    1    2    0  503  0.21928783311E+03 -0.86734239430E+02 -0.25859199378E+03  0.39267015256E+03  0.17807315190E+03 0.  0.
        -24    2    5    5    0    0  0.12313658261E+03 -0.11371245023E+03 -0.11605027907E+03  0.21856352643E+03  0.78798531069E+02 0.  0.
          2    1    4    4  501    0 -0.60879074879E+02  0.41805354034E+02 -0.15768004804E+03  0.17411762384E+03  0.00000000000E+00 0. -1.
         -1    1    4    4    0  501 -0.13399470688E+03  0.67667430155E+02 -0.69392138722E+03  0.70997207988E+03  0.00000000000E+00 0.  1.
          5    1    3    3  502    0 -0.24414051351E+02 -0.22738544759E+02 -0.39030639234E+03  0.39175790639E+03  0.47000000000E+01 0. -1.
         11    1    6    6    0    0  0.10407125696E+02 -0.45420296553E+02 -0.62432265367E+01  0.47013715890E+02  0.00000000000E+00 0. -1.
        -12    1    6    6    0    0  0.11272945691E+03 -0.68292153679E+02 -0.10980705253E+03  0.17154981054E+03  0.00000000000E+00 0.  1.
         -5    1    5    5    0  503  0.96151250500E+02  0.26978210802E+02 -0.14254171472E+03  0.17410662614E+03  0.47000000000E+01 0.  1.
<mgrwt>
<rscale>  2 0.29470196E+03</rscale>
<asrwt>0</asrwt>
<pdfrwt beam="1">  1       21 0.12924457E-01 0.29549963E+03</pdfrwt>
<pdfrwt beam="2">  1       21 0.24377058E+00 0.29549963E+03</pdfrwt>
<totfact> 0.34016313E+03</totfact>
</mgrwt>
</event>
<event>
12    1  0.1473662E-001  0.1762880E+03  0.7546771E-02  0.1171627E+00
         21   -1    0    0  504  503  0.00000000000E+00  0.00000000000E+00  0.90530068869E+02  0.90530068869E+02  0.00000000000E+00 0. -1.
         21   -1    0    0  502  504 -0.00000000000E+00 -0.00000000000E+00 -0.37585935495E+03  0.37585935495E+03  0.00000000000E+00 0. -1.
          6    2    1    2  502    0 -0.23218945039E+01  0.27312871647E+02 -0.21307132125E+03  0.27654445579E+03  0.17414380246E+03 0.  0.
         24    2    3    3    0    0 -0.40195695393E+01 -0.41214842368E+02 -0.59525912519E+02  0.10832670336E+03  0.80476830388E+02 0.  0.
         -6    2    1    2    0  503  0.23218945039E+01 -0.27312871647E+02 -0.72257964831E+02  0.18984496803E+03  0.17340275158E+03 0.  0.
        -24    2    5    5    0    0 -0.56401087202E+02  0.18309281267E+01 -0.77850360075E+02  0.12388198955E+03  0.78112955621E+02 0.  0.
          4    1    4    4  501    0 -0.28968269071E+02 -0.22676003895E+02 -0.66930411046E+02  0.76374352295E+02  0.00000000000E+00 0. -1.
         -3    1    4    4    0  501  0.24948699532E+02 -0.18538838473E+02  0.74044985269E+01  0.31952351067E+02  0.00000000000E+00 0.  1.
          5    1    3    3  502    0  0.16976750354E+01  0.68527714014E+02 -0.15354540873E+03  0.16821775243E+03  0.47000000000E+01 0. -1.
         11    1    6    6    0    0  0.10555275500E+02 -0.10854018941E+02  0.55989689572E+01  0.16142243383E+02  0.00000000000E+00 0. -1.
        -12    1    6    6    0    0 -0.66956362701E+02  0.12684947068E+02 -0.83449329033E+02  0.10773974617E+03  0.00000000000E+00 0.  1.
         -5    1    5    5    0  503  0.58722981705E+02 -0.29143799773E+02  0.55923952440E+01  0.65962978482E+02  0.47000000000E+01 0.  1.
<mgrwt>
<rscale>  2 0.17610468E+03</rscale>
<asrwt>0</asrwt>
<pdfrwt beam="1">  1       21 0.13927703E-01 0.17628797E+03</pdfrwt>
<pdfrwt beam="2">  1       21 0.57824516E-01 0.17628797E+03</pdfrwt>
<totfact> 0.12659877E+05</totfact>
</mgrwt>
</event>
<event>
12    1  0.1473662E-001  0.2175004E+03  0.7546771E-02  0.1136223E+00
         21   -1    0    0  504  503  0.00000000000E+00  0.00000000000E+00  0.45159178172E+02  0.45159178172E+02  0.00000000000E+00 0. -1.
         21   -1    0    0  502  504 -0.00000000000E+00 -0.00000000000E+00 -0.16747196909E+04  0.16747196909E+04  0.00000000000E+00 0. -1.
          6    2    1    2  502    0 -0.28773502703E+02  0.12592679375E+03 -0.13430655191E+04  0.13601764668E+04  0.17195801921E+03 0.  0.
         24    2    3    3    0    0 -0.67159210794E+02  0.30181388538E+02 -0.58944205540E+03  0.59951158641E+03  0.80937814130E+02 0.  0.
         -6    2    1    2    0  503  0.28773502703E+02 -0.12592679375E+03 -0.28649499356E+03  0.35970240221E+03  0.17498847100E+03 0.  0.
        -24    2    5    5    0    0 -0.23263225480E+02 -0.52053280534E+02 -0.57798681398E+02  0.11375685899E+03  0.79681953554E+02 0.  0.
          4    1    4    4  501    0 -0.22243074878E+02 -0.34818266953E+01 -0.31310171304E+02  0.38564288198E+02  0.00000000000E+00 0. -1.
         -3    1    4    4    0  501 -0.44916135916E+02  0.33663215233E+02 -0.55813188410E+03  0.56094729822E+03  0.00000000000E+00 0.  1.
          5    1    3    3  502    0  0.38385708091E+02  0.95745405212E+02 -0.75362346374E+03  0.76066488042E+03  0.47000000000E+01 0. -1.
         13    1    6    6    0    0 -0.51596379274E+02 -0.33834994994E+02 -0.49401316551E+02  0.79041023004E+02  0.00000000000E+00 0. -1.
        -14    1    6    6    0    0  0.28333153794E+02 -0.18218285540E+02 -0.83973648467E+01  0.34715835987E+02  0.00000000000E+00 0.  1.
         -5    1    5    5    0  503  0.52036728183E+02 -0.73873513216E+02 -0.22869631216E+03  0.24594554322E+03  0.47000000000E+01 0.  1.
<mgrwt>
<rscale>  2 0.21689022E+03</rscale>
<asrwt>0</asrwt>
<pdfrwt beam="1">  1       21 0.69475662E-02 0.21750043E+03</pdfrwt>
<pdfrwt beam="2">  1       21 0.25764917E+00 0.21750043E+03</pdfrwt>
<totfact> 0.89773258E+03</totfact>
</mgrwt>
</event>
<event>
12    1  0.1473662E-001  0.1831946E+03  0.7546771E-02  0.1164984E+00
         21   -1    0    0  504  503  0.00000000000E+00  0.00000000000E+00  0.49862808387E+03  0.49862808387E+03  0.00000000000E+00 0.  1.
         21   -1    0    0  502  504 -0.00000000000E+00 -0.00000000000E+00 -0.82840881529E+02  0.82840881529E+02  0.00000000000E+00 0.  1.
          6    2    1    2  502    0 -0.58123408515E+02  0.44106297306E+01  0.80972052953E+02  0.20029164180E+03  0.17367349868E+03 0.  0.
         24    2    3    3    0    0  0.21567923865E+02 -0.91979723494E+01  0.85300177071E+02  0.11919463097E+03  0.79884052281E+02 0.  0.
         -6    2    1    2    0  503  0.58123408515E+02 -0.44106297306E+01  0.33481514939E+03  0.38117732360E+03  0.17261860703E+03 0.  0.
        -24    2    5    5    0    0  0.41058507449E+02 -0.39223122783E+02  0.32696996818E+03  0.34134320017E+03  0.79884703261E+02 0.  0.
          2    1    4    4  501    0 -0.27331367440E+02 -0.50484353700E+01  0.54713275492E+02  0.61368011707E+02  0.00000000000E+00 0. -1.
         -1    1    4    4    0  501  0.48899291306E+02 -0.41495369794E+01  0.30586901579E+02  0.57826619264E+02  0.00000000000E+00 0.  1.
          5    1    3    3  502    0 -0.79691332380E+02  0.13608602080E+02 -0.43281241182E+01  0.81097010829E+02  0.47000000000E+01 0. -1.
         11    1    6    6    0    0  0.11952628076E+02 -0.26428138266E+02  0.26790666470E+02  0.39484827719E+02  0.00000000000E+00 0. -1.
        -12    1    6    6    0    0  0.29105879373E+02 -0.12794984517E+02  0.30017930171E+03  0.30185837245E+03  0.00000000000E+00 0.  1.
         -5    1    5    5    0  503  0.17064901066E+02  0.34812493052E+02  0.78451812034E+01  0.39834123425E+02  0.47000000000E+01 0.  1.
<mgrwt>
<rscale>  2 0.18294417E+03</rscale>
<asrwt>0</asrwt>
<pdfrwt beam="1">  1       21 0.76712011E-01 0.18319462E+03</pdfrwt>
<pdfrwt beam="2">  1       21 0.12744751E-01 0.18319462E+03</pdfrwt>
<totfact> 0.79943639E+04</totfact>
</mgrwt>
</event>
<event>
12    1  0.1473662E-001  0.2232138E+03  0.7546771E-02  0.1131693E+00
         21   -1    0    0  504  503  0.00000000000E+00  0.00000000000E+00  0.42000629682E+03  0.42000629682E+03  0.00000000000E+00 0.  1.
         21   -1    0    0  502  504 -0.00000000000E+00 -0.00000000000E+00 -0.25192703154E+03  0.25192703154E+03  0.00000000000E+00 0.  1.
          6    2    1    2  502    0  0.13822433846E+03 -0.18998014186E+02 -0.16074291587E+03  0.27506854097E+03  0.17423410958E+03 0.  0.
         24    2    3    3    0    0  0.99523104929E+02  0.27964851299E+02 -0.35656217271E+02  0.13588496300E+03  0.80662730028E+02 0.  0.
         -6    2    1    2    0  503 -0.13822433846E+03  0.18998014186E+02  0.32882218115E+03  0.39686478739E+03  0.17294721844E+03 0.  0.
        -24    2    5    5    0    0 -0.22335795241E+02 -0.11248027131E+02  0.21738863944E+03  0.23320507432E+03  0.80631137062E+02 0.  0.
          4    1    4    4  501    0  0.92774697574E+02  0.24436019732E+02  0.34925366984E+01  0.96002403006E+02  0.00000000000E+00 0. -1.
         -3    1    4    4    0  501  0.67484073552E+01  0.35288315673E+01 -0.39148753970E+02  0.39882559991E+02  0.00000000000E+00 0.  1.
          5    1    3    3  502    0  0.38701233536E+02 -0.46962865485E+02 -0.12508669860E+03  0.13918357797E+03  0.47000000000E+01 0. -1.
         11    1    6    6    0    0 -0.87870986453E+01  0.17234363209E+02  0.71664299162E+01  0.20629932030E+02  0.00000000000E+00 0. -1.
        -12    1    6    6    0    0 -0.13548696595E+02 -0.28482390340E+02  0.21022220953E+03  0.21257514229E+03  0.00000000000E+00 0.  1.
         -5    1    5    5    0  503 -0.11588854322E+03  0.30246041317E+02  0.11143354171E+03  0.16365971307E+03  0.47000000000E+01 0.  1.
<mgrwt>
<rscale>  2 0.22296265E+03</rscale>
<asrwt>0</asrwt>
<pdfrwt beam="1">  1       21 0.64616353E-01 0.22321384E+03</pdfrwt>
<pdfrwt beam="2">  1       21 0.38758005E-01 0.22321384E+03</pdfrwt>
<totfact> 0.13903797E+04</totfact>
</mgrwt>
</event>
<event>
12    1  0.1473662E-001  0.1833129E+03  0.7546771E-02  0.1165048E+00
         21   -1    0    0  504  503  0.00000000000E+00  0.00000000000E+00  0.83481879482E+03  0.83481879482E+03  0.00000000000E+00 0.  1.
         21   -1    0    0  502  504 -0.00000000000E+00 -0.00000000000E+00 -0.46176342420E+02  0.46176342420E+02  0.00000000000E+00 0.  1.
          6    2    1    2  502    0 -0.52134676545E+02 -0.36040001923E+01  0.23317762822E+03  0.29660653569E+03  0.17570605395E+03 0.  0.
         24    2    3    3    0    0  0.59329867761E+01 -0.17642448154E+02  0.19022772697E+01  0.57693770221E+02  0.54575600359E+02 0.  0.
         -6    2    1    2    0  503  0.52134676545E+02  0.36040001923E+01  0.55546482418E+03  0.58438860156E+03  0.17389034881E+03 0.  0.
        -24    2    5    5    0    0 -0.25311617627E+02 -0.27971953316E+02  0.18253207404E+03  0.20216367374E+03  0.78288471466E+02 0.  0.
          4    1    4    4  501    0  0.14494943713E+02 -0.18365339526E+02 -0.22109848714E+02  0.32190596442E+02  0.00000000000E+00 0. -1.
         -3    1    4    4    0  501 -0.85619569369E+01  0.72289137252E+00  0.24012125984E+02  0.25503173779E+02  0.00000000000E+00 0.  1.
          5    1    3    3  502    0 -0.58067663321E+02  0.14038447962E+02  0.23127535095E+03  0.23891276547E+03  0.47000000000E+01 0. -1.
         11    1    6    6    0    0 -0.35191072039E+01 -0.37765963548E+01  0.16519051050E+03  0.16527114556E+03  0.00000000000E+00 0. -1.
        -12    1    6    6    0    0 -0.21792510423E+02 -0.24195356961E+02  0.17341563543E+02  0.36892528175E+02  0.00000000000E+00 0.  1.
         -5    1    5    5    0  503  0.77446294172E+02  0.31575953508E+02  0.37293275014E+03  0.38222492782E+03  0.47000000000E+01 0.  1.
<mgrwt>
<rscale>  2 0.18287647E+03</rscale>
<asrwt>0</asrwt>
<pdfrwt beam="1">  1       21 0.12843365E+00 0.18331293E+03</pdfrwt>
<pdfrwt beam="2">  1       21 0.71040533E-02 0.18331293E+03</pdfrwt>
<totfact> 0.66019647E+04</totfact>
</mgrwt>
</event>
<event>
12    1  0.1473662E-001  0.3131724E+03  0.7546771E-02  0.1078854E+00
         21   -1    0    0  504  503  0.00000000000E+00  0.00000000000E+00  0.51676914732E+03  0.51676914732E+03  0.00000000000E+00 0. -1.
         21   -1    0    0  502  504 -0.00000000000E+00 -0.00000000000E+00 -0.24408479350E+03  0.24408479350E+03  0.00000000000E+00 0. -1.
          6    2    1    2  502    0 -0.24095449109E+03  0.10052433630E+03 -0.43266567661E+02  0.31599222940E+03  0.17266987056E+03 0.  0.
         24    2    3    3    0    0 -0.24867977489E+03  0.87857212124E+02 -0.70864095355E+02  0.28430864407E+03  0.79051659802E+02 0.  0.
         -6    2    1    2    0  503  0.24095449109E+03 -0.10052433630E+03  0.31595092147E+03  0.44486171142E+03  0.17295302410E+03 0.  0.
        -24    2    5    5    0    0  0.11222962826E+03 -0.10235810021E+01  0.86280016482E+02  0.16336338955E+03  0.81528023557E+02 0.  0.
          2    1    4    4  501    0 -0.24024938324E+03  0.73364699494E+02 -0.81924442226E+02  0.26422293525E+03  0.00000000000E+00 0. -1.
         -1    1    4    4    0  501 -0.84303916568E+01  0.14492512630E+02  0.11060346871E+02  0.20085708818E+02  0.00000000000E+00 0.  1.
          5    1    3    3  502    0  0.77252838045E+01  0.12667124172E+02  0.27597527694E+02  0.31683585332E+02  0.47000000000E+01 0. -1.
         13    1    6    6    0    0  0.58857190622E+02 -0.14991995371E+02  0.89428491609E+02  0.10810357961E+03  0.00000000000E+00 0. -1.
        -14    1    6    6    0    0  0.53372437635E+02  0.13968414369E+02 -0.31484751279E+01  0.55259809942E+02  0.00000000000E+00 0.  1.
         -5    1    5    5    0  503  0.12872486283E+03 -0.99500755293E+02  0.22967090499E+03  0.28149832187E+03  0.47000000000E+01 0.  1.
<mgrwt>
<rscale>  2 0.31313333E+03</rscale>
<asrwt>0</asrwt>
<pdfrwt beam="1">  1       21 0.79502945E-01 0.31317241E+03</pdfrwt>
<pdfrwt beam="2">  1       21 0.37551507E-01 0.31317241E+03</pdfrwt>
<totfact> 0.89135852E+03</totfact>
</mgrwt>
</event>
<event>
12    1  0.1473662E-001  0.2250205E+03  0.7546771E-02  0.1130933E+00
         21   -1    0    0  504  503  0.00000000000E+00  0.00000000000E+00  0.21918826139E+02  0.21918826139E+02  0.00000000000E+00 0.  1.
         21   -1    0    0  502  504 -0.00000000000E+00 -0.00000000000E+00 -0.32348628947E+04  0.32348628947E+04  0.00000000000E+00 0. -1.
          6    2    1    2  502    0 -0.38814638355E+02 -0.13433497167E+03 -0.24861339293E+04  0.24959353494E+04  0.17111076218E+03 0.  0.
         24    2    3    3    0    0  0.63394310153E+01 -0.49386160050E+02 -0.18561026015E+04  0.18585839905E+04  0.82087766254E+02 0.  0.
         -6    2    1    2    0  503  0.38814638355E+02  0.13433497167E+03 -0.72681013924E+03  0.76084637148E+03  0.17630020339E+03 0.  0.
        -24    2    5    5    0    0 -0.15508665098E+02  0.14780854714E+03 -0.56536738227E+03  0.58991243010E+03  0.79173941127E+02 0.  0.
          2    1    4    4  501    0  0.14721200193E+02 -0.68209012644E+02 -0.16447071895E+04  0.16461867823E+04  0.00000000000E+00 0. -1.
         -1    1    4    4    0  501 -0.83817691775E+01  0.18822852594E+02 -0.21139541198E+03  0.21239720818E+03  0.00000000000E+00 0.  1.
          5    1    3    3  502    0 -0.45154069370E+02 -0.84948811618E+02 -0.63003132786E+03  0.63735135888E+03  0.47000000000E+01 0. -1.
         13    1    6    6    0    0  0.14465188346E+02 -0.12530320754E+01 -0.29307242907E+02  0.32706669810E+02  0.00000000000E+00 0. -1.
        -14    1    6    6    0    0 -0.29973853444E+02  0.14906157922E+03 -0.53606013936E+03  0.55720576029E+03  0.00000000000E+00 0.  1.
         -5    1    5    5    0  503  0.54323303452E+02 -0.13473575472E+02 -0.16144275698E+03  0.17093394138E+03  0.47000000000E+01 0.  1.
<mgrwt>
<rscale>  2 0.22400303E+03</rscale>
<asrwt>0</asrwt>
<pdfrwt beam="1">  1       21 0.33721270E-02 0.22502049E+03</pdfrwt>
<pdfrwt beam="2">  1       21 0.49767124E+00 0.22502049E+03</pdfrwt>
<totfact> 0.97648145E+02</totfact>
</mgrwt>
</event>
<event>
12    1  0.1473662E-001  0.2546096E+03  0.7546771E-02  0.1110708E+00
         21   -1    0    0  504  503  0.00000000000E+00  0.00000000000E+00  0.15985941581E+03  0.15985941581E+03  0.00000000000E+00 0.  1.
         21   -1    0    0  502  504 -0.00000000000E+00 -0.00000000000E+00 -0.48722991431E+03  0.48722991431E+03  0.00000000000E+00 0.  1.
          6    2    1    2  502    0  0.48139817111E+02  0.17984104542E+03 -0.29899142339E+03  0.39271098400E+03  0.17368305064E+03 0.  0.
         24    2    3    3    0    0  0.82698754073E+02  0.18593992173E+03 -0.25355436301E+03  0.33510774735E+03  0.81207443694E+02 0.  0.
         -6    2    1    2    0  503 -0.48139817111E+02 -0.17984104542E+03 -0.28379075110E+02  0.25437834612E+03  0.17100505099E+03 0.  0.
        -24    2    5    5    0    0 -0.86794084877E+02 -0.86093848080E+02 -0.42292175576E+02  0.15191687146E+03  0.79653900546E+02 0.  0.
          4    1    4    4  501    0  0.87486852759E+02  0.10035256438E+03 -0.16200669596E+03  0.20969205068E+03  0.00000000000E+00 0. -1.
         -3    1    4    4    0  501 -0.47880986861E+01  0.85587357351E+02 -0.91547667052E+02  0.12541569667E+03  0.00000000000E+00 0.  1.
          5    1    3    3  502    0 -0.34558936963E+02 -0.60988763118E+01 -0.45437060381E+02  0.57603236648E+02  0.47000000000E+01 0. -1.
         11    1    6    6    0    0  0.86490301109E+01  0.73768928806E+01  0.11878441995E+01  0.11429577607E+02  0.00000000000E+00 0. -1.
        -12    1    6    6    0    0 -0.95443114988E+02 -0.93470740961E+02 -0.43480019775E+02  0.14048729385E+03  0.00000000000E+00 0.  1.
         -5    1    5    5    0  503  0.38654267766E+02 -0.93747197338E+02  0.13913100466E+02  0.10246147466E+03  0.47000000000E+01 0.  1.
<mgrwt>
<rscale>  2 0.25415356E+03</rscale>
<asrwt>0</asrwt>
<pdfrwt beam="1">  1       21 0.24593757E-01 0.25460959E+03</pdfrwt>
<pdfrwt beam="2">  1       21 0.74958447E-01 0.25460959E+03</pdfrwt>
<totfact> 0.24080637E+04</totfact>
</mgrwt>
</event>
<event>
12    1  0.1473662E-001  0.1961553E+03  0.7546771E-02  0.1154530E+00
         21   -1    0    0  504  503  0.00000000000E+00  0.00000000000E+00  0.49330269222E+03  0.49330269222E+03  0.00000000000E+00 0.  1.
         21   -1    0    0  502  504 -0.00000000000E+00 -0.00000000000E+00 -0.13587522344E+03  0.13587522344E+03  0.00000000000E+00 0.  1.
          6    2    1    2  502    0  0.57438566434E+02  0.50760599447E+02 -0.33063099253E+02  0.19218845419E+03  0.17311096447E+03 0.  0.
         24    2    3    3    0    0 -0.22959897552E+02  0.66271886355E+02 -0.25011983431E+02  0.10977836076E+03  0.80663308634E+02 0.  0.
         -6    2    1    2    0  503 -0.57438566434E+02 -0.50760599447E+02  0.39049056804E+03  0.43698946147E+03  0.18055768700E+03 0.  0.
        -24    2    5    5    0    0 -0.88633510000E+02 -0.11535493937E+02  0.14359178414E+03  0.18501161939E+03  0.74978210981E+02 0.  0.
          2    1    4    4  501    0 -0.26097864527E+02  0.74724338471E+02  0.41450695500E+01  0.79259112375E+02  0.00000000000E+00 0. -1.
         -1    1    4    4    0  501  0.31379669752E+01 -0.84524521169E+01 -0.29157052981E+02  0.30519248387E+02  0.00000000000E+00 0.  1.
          5    1    3    3  502    0  0.80398463985E+02 -0.15511286908E+02 -0.80511158219E+01  0.82410093428E+02  0.47000000000E+01 0. -1.
         11    1    6    6    0    0 -0.55742947863E+02  0.26976238097E+02  0.54323187162E+02  0.82377195399E+02  0.00000000000E+00 0. -1.
        -12    1    6    6    0    0 -0.32890562136E+02 -0.38511732034E+02  0.89268596973E+02  0.10263442399E+03  0.00000000000E+00 0.  1.
         -5    1    5    5    0  503  0.31194943566E+02 -0.39225105509E+02  0.24689878390E+03  0.25197784208E+03  0.47000000000E+01 0.  1.
<mgrwt>
<rscale>  2 0.19442448E+03</rscale>
<asrwt>0</asrwt>
<pdfrwt beam="1">  1       21 0.75892721E-01 0.19615531E+03</pdfrwt>
<pdfrwt beam="2">  1       21 0.20903881E-01 0.19615531E+03</pdfrwt>
<totfact> 0.32841890E+04</totfact>
</mgrwt>
</event>
<event>
12    1  0.1473662E-001  0.2880554E+03  0.7546771E-02  0.1091607E+00
         21   -1    0    0  504  503  0.00000000000E+00  0.00000000000E+00  0.17261345666E+03  0.17261345666E+03  0.00000000000E+00 0.  1.
         21   -1    0    0  502  504 -0.00000000000E+00 -0.00000000000E+00 -0.48944646694E+03  0.48944646694E+03  0.00000000000E+00 0. -1.
          6    2    1    2  502    0 -0.59365743837E+02 -0.21925316533E+03 -0.10664506044E+03  0.30547209668E+03  0.17419469248E+03 0.  0.
         24    2    3    3    0    0 -0.47197284234E+02 -0.94657082159E+02  0.85621286018E+01  0.13527502927E+03  0.83895629535E+02 0.  0.
         -6    2    1    2    0  503  0.59365743837E+02  0.21925316533E+03 -0.21018794984E+03  0.35658782692E+03  0.17714305519E+03 0.  0.
        -24    2    5    5    0    0 -0.41142780739E+01  0.12649050570E+03 -0.19059419777E+03  0.24239225203E+03  0.80069221952E+02 0.  0.
          2    1    4    4  501    0 -0.22472403729E+02  0.17970882025E+01  0.25755929083E+02  0.34228735564E+02  0.00000000000E+00 0. -1.
         -1    1    4    4    0  501 -0.24724880504E+02 -0.96454170361E+02 -0.17193800481E+02  0.10104629370E+03  0.00000000000E+00 0.  1.
          5    1    3    3  502    0 -0.12168459604E+02 -0.12459608317E+03 -0.11520718904E+03  0.17019706742E+03  0.47000000000E+01 0. -1.
         13    1    6    6    0    0 -0.38967299543E+02  0.49932214652E+02 -0.10324556831E+03  0.12112524043E+03  0.00000000000E+00 0. -1.
        -14    1    6    6    0    0  0.34853021469E+02  0.76558291046E+02 -0.87348629462E+02  0.12126701160E+03  0.00000000000E+00 0.  1.
         -5    1    5    5    0  503  0.63480021911E+02  0.92762659631E+02 -0.19593752064E+02  0.11419557489E+03  0.47000000000E+01 0.  1.
<mgrwt>
<rscale>  2 0.28760340E+03</rscale>
<asrwt>0</asrwt>
<pdfrwt beam="1">  1       21 0.26555917E-01 0.28805538E+03</pdfrwt>
<pdfrwt beam="2">  1       21 0.75299456E-01 0.28805538E+03</pdfrwt>
<totfact> 0.20255673E+04</totfact>
</mgrwt>
</event>
<event>
12    1  0.1473662E-001  0.2149373E+03  0.7546771E-02  0.1138138E+00
         21   -1    0    0  504  503  0.00000000000E+00  0.00000000000E+00  0.11653230238E+03  0.11653230238E+03  0.00000000000E+00 0.  1.
         21   -1    0    0  502  504 -0.00000000000E+00 -0.00000000000E+00 -0.40279063053E+03  0.40279063053E+03  0.00000000000E+00 0.  1.
          6    2    1    2  502    0  0.87163176666E+02  0.92296690190E+02 -0.10215472985E+03  0.23797821783E+03  0.17344147412E+03 0.  0.
         24    2    3    3    0    0  0.92363943039E+02  0.12374268819E+03 -0.11404458927E+03  0.20363644272E+03  0.67957939998E+02 0.  0.
         -6    2    1    2    0  503 -0.87163176666E+02 -0.92296690190E+02 -0.18410359830E+03  0.28134471507E+03  0.17071794107E+03 0.  0.
        -24    2    5    5    0    0 -0.10281781771E+03 -0.95745501660E+02 -0.19961336326E+03  0.25854987145E+03  0.85228143862E+02 0.  0.
          2    1    4    4  501    0  0.69844147012E+02  0.37069411476E+02 -0.50296931180E+02  0.93713005635E+02  0.00000000000E+00 0. -1.
         -1    1    4    4    0  501  0.22519796028E+02  0.86673276709E+02 -0.63747658091E+02  0.10992343709E+03  0.00000000000E+00 0.  1.
          5    1    3    3  502    0 -0.52007663731E+01 -0.31445997996E+02  0.11889859422E+02  0.34341775113E+02  0.47000000000E+01 0. -1.
         13    1    6    6    0    0  0.12287334514E+02 -0.25018994077E+02 -0.47763370421E+02  0.55301611261E+02  0.00000000000E+00 0. -1.
        -14    1    6    6    0    0 -0.11510515222E+03 -0.70726507584E+02 -0.15184999284E+03  0.20324826018E+03  0.00000000000E+00 0.  1.
         -5    1    5    5    0  503  0.15654641041E+02  0.34488114706E+01  0.15509764959E+02  0.22794843623E+02  0.47000000000E+01 0.  1.
<mgrwt>
<rscale>  2 0.21438728E+03</rscale>
<asrwt>0</asrwt>
<pdfrwt beam="1">  1       21 0.17928047E-01 0.21493730E+03</pdfrwt>
<pdfrwt beam="2">  1       21 0.61967789E-01 0.21493730E+03</pdfrwt>
<totfact> 0.67692986E+04</totfact>
</mgrwt>
</event>
<event>
12    1  0.1473662E-001  0.2300900E+03  0.7546771E-02  0.1126611E+00
         21   -1    0    0  504  503  0.00000000000E+00  0.00000000000E+00  0.38514669209E+03  0.38514669209E+03  0.00000000000E+00 0.  1.
         21   -1    0    0  502  504 -0.00000000000E+00 -0.00000000000E+00 -0.24486826131E+03  0.24486826131E+03  0.00000000000E+00 0.  1.
          6    2    1    2  502    0 -0.41088903013E+02 -0.14542502984E+03 -0.13858964891E+03  0.26860472125E+03  0.17350696884E+03 0.  0.
         24    2    3    3    0    0 -0.49692236529E+02 -0.16315011339E+03 -0.15418252580E+03  0.24304256672E+03  0.78804569049E+02 0.  0.
         -6    2    1    2    0  503  0.41088903013E+02  0.14542502984E+03  0.27886807970E+03  0.36141023215E+03  0.17324321855E+03 0.  0.
        -24    2    5    5    0    0  0.64226872994E+02  0.42609748709E+02  0.78742822318E+02  0.13518345140E+03  0.78316355669E+02 0.  0.
          4    1    4    4  501    0 -0.62404418443E+02 -0.91749497589E+02 -0.66924961278E+02  0.12958098700E+03  0.00000000000E+00 0. -1.
         -3    1    4    4    0  501  0.12712181914E+02 -0.71400615802E+02 -0.87257564525E+02  0.11346157972E+03  0.00000000000E+00 0.  1.
          5    1    3    3  502    0  0.86033335159E+01  0.17725083552E+02  0.15592876888E+02  0.25562154529E+02  0.47000000000E+01 0. -1.
         13    1    6    6    0    0  0.34185278794E+01  0.12805690248E+02  0.64673703225E+02  0.66017875795E+02  0.00000000000E+00 0. -1.
        -14    1    6    6    0    0  0.60808345115E+02  0.29804058461E+02  0.14069119093E+02  0.69165575602E+02  0.00000000000E+00 0.  1.
         -5    1    5    5    0  503 -0.23137969981E+02  0.10281528113E+03  0.20012525738E+03  0.22622678076E+03  0.47000000000E+01 0.  1.
<mgrwt>
<rscale>  2 0.23004027E+03</rscale>
<asrwt>0</asrwt>
<pdfrwt beam="1">  1       21 0.59253337E-01 0.23008999E+03</pdfrwt>
<pdfrwt beam="2">  1       21 0.37672040E-01 0.23008999E+03</pdfrwt>
<totfact> 0.17696182E+04</totfact>
</mgrwt>
</event>
<event>
12    1  0.1473662E-001  0.2143958E+03  0.7546771E-02  0.1138199E+00
         21   -1    0    0  504  503  0.00000000000E+00  0.00000000000E+00  0.59212821898E+02  0.59212821898E+02  0.00000000000E+00 0. -1.
         21   -1    0    0  502  504 -0.00000000000E+00 -0.00000000000E+00 -0.81410104533E+03  0.81410104533E+03  0.00000000000E+00 0.  1.
          6    2    1    2  502    0 -0.18019902392E+01 -0.12633994446E+03 -0.28206161403E+03  0.35429413543E+03  0.17320667296E+03 0.  0.
         24    2    3    3    0    0 -0.64366807715E+01  0.42520546679E+01 -0.12639264152E+03  0.15099467750E+03  0.82248294666E+02 0.  0.
         -6    2    1    2    0  503  0.18019902392E+01  0.12633994446E+03 -0.47282660940E+03  0.51901973179E+03  0.17277572369E+03 0.  0.
        -24    2    5    5    0    0  0.40781476152E+00  0.13348659046E+03 -0.24012059434E+03  0.28615239248E+03  0.80040338255E+02 0.  0.
          4    1    4    4  501    0  0.19421675613E+02  0.28970227113E+02 -0.10173520727E+03  0.10754779375E+03  0.00000000000E+00 0. -1.
         -3    1    4    4    0  501 -0.25858356384E+02 -0.24718172445E+02 -0.24657434250E+02  0.43446883751E+02  0.00000000000E+00 0.  1.
          5    1    3    3  502    0  0.46346905323E+01 -0.13059199913E+03 -0.15566897251E+03  0.20329945793E+03  0.47000000000E+01 0. -1.
         11    1    6    6    0    0 -0.27834931392E+02  0.35806287077E+02 -0.35265698427E+02  0.57450353223E+02  0.00000000000E+00 0. -1.
        -12    1    6    6    0    0  0.28242746153E+02  0.97680303384E+02 -0.20485489591E+03  0.22870203925E+03  0.00000000000E+00 0.  1.
         -5    1    5    5    0  503  0.13941754777E+01 -0.71466459993E+01 -0.23270601506E+03  0.23286733932E+03  0.47000000000E+01 0.  1.
<mgrwt>
<rscale>  2 0.21430880E+03</rscale>
<asrwt>0</asrwt>
<pdfrwt beam="1">  1       21 0.91096648E-02 0.21439585E+03</pdfrwt>
<pdfrwt beam="2">  1       21 0.12524632E+00 0.21439585E+03</pdfrwt>
<totfact> 0.44863477E+04</totfact>
</mgrwt>
</event>
<event>
12    1  0.1473662E-001  0.3026849E+03  0.7546771E-02  0.1083970E+00
         21   -1    0    0  504  503  0.00000000000E+00  0.00000000000E+00  0.11605892175E+03  0.11605892175E+03  0.00000000000E+00 0. -1.
         21   -1    0    0  502  504 -0.00000000000E+00 -0.00000000000E+00 -0.78964302927E+03  0.78964302927E+03  0.00000000000E+00 0.  1.
          6    2    1    2  502    0 -0.90862515090E+02 -0.23054416026E+03 -0.35670410347E+03  0.46748843503E+03  0.17291909374E+03 0.  0.
         24    2    3    3    0    0 -0.80780113095E+02 -0.11620985779E+03 -0.11242320329E+03  0.19754541189E+03  0.79718601354E+02 0.  0.
         -6    2    1    2    0  503  0.90862515090E+02  0.23054416026E+03 -0.31688000406E+03  0.43821351599E+03  0.17381467758E+03 0.  0.
        -24    2    5    5    0    0  0.82031120141E+02  0.14156024291E+03 -0.29364976111E+03  0.34570478520E+03  0.80704456294E+02 0.  0.
          2    1    4    4  501    0 -0.93670103784E+02 -0.84003379204E+02 -0.74822806972E+02  0.14638684539E+03  0.00000000000E+00 0. -1.
         -1    1    4    4    0  501  0.12889990690E+02 -0.32206478589E+02 -0.37600396318E+02  0.51158566500E+02  0.00000000000E+00 0.  1.
          5    1    3    3  502    0 -0.10082401995E+02 -0.11433430247E+03 -0.24428090018E+03  0.26994302314E+03  0.47000000000E+01 0. -1.
         13    1    6    6    0    0  0.17991116615E+02  0.80940506099E+02 -0.82895323445E+02  0.11724623855E+03  0.00000000000E+00 0. -1.
        -14    1    6    6    0    0  0.64040003526E+02  0.60619736811E+02 -0.21075443767E+03  0.22845854665E+03  0.00000000000E+00 0.  1.
         -5    1    5    5    0  503  0.88313949484E+01  0.88983917352E+02 -0.23230242947E+02  0.92508730784E+02  0.47000000000E+01 0.  1.
<mgrwt>
<rscale>  2 0.30255647E+03</rscale>
<asrwt>0</asrwt>
<pdfrwt beam="1">  1       21 0.17855219E-01 0.30268490E+03</pdfrwt>
<pdfrwt beam="2">  1       21 0.12148354E+00 0.30268490E+03</pdfrwt>
<totfact> 0.13728857E+04</totfact>
</mgrwt>
</event>
<event>
12    1  0.1473662E-001  0.1770253E+03  0.7546771E-02  0.1172403E+00
         21   -1    0    0  504  503  0.00000000000E+00  0.00000000000E+00  0.14513923443E+03  0.14513923443E+03  0.00000000000E+00 0. -1.
         21   -1    0    0  502  504 -0.00000000000E+00 -0.00000000000E+00 -0.21371039710E+03  0.21371039710E+03  0.00000000000E+00 0. -1.
          6    2    1    2  502    0  0.33710292397E+02 -0.12676984586E+02 -0.38844546883E+01  0.17037597133E+03  0.16648060808E+03 0.  0.
         24    2    3    3    0    0 -0.80006551030E+01 -0.30154172629E+02 -0.55451192047E+02  0.10162661755E+03  0.79245505153E+02 0.  0.
         -6    2    1    2    0  503 -0.33710292397E+02  0.12676984586E+02 -0.64686707977E+02  0.18847366020E+03  0.17332299516E+03 0.  0.
        -24    2    5    5    0    0  0.25640627769E+02 -0.43423394971E+02 -0.40863073854E+02  0.10327131367E+03  0.80325216465E+02 0.  0.
          2    1    4    4  501    0  0.28416306132E+01  0.26544761853E+02 -0.11476445878E+02  0.29058700183E+02  0.00000000000E+00 0. -1.
         -1    1    4    4    0  501 -0.10842285716E+02 -0.56698934482E+02 -0.43974746168E+02  0.72567917370E+02  0.00000000000E+00 0.  1.
          5    1    3    3  502    0  0.41710947500E+02  0.17477188044E+02  0.51566737358E+02  0.68749353779E+02  0.47000000000E+01 0. -1.
         11    1    6    6    0    0 -0.24219348171E+02  0.56637336273E+01 -0.10435989619E+02  0.26973405120E+02  0.00000000000E+00 0. -1.
        -12    1    6    6    0    0  0.49859975940E+02 -0.49087128599E+02 -0.30427084235E+02  0.76297908555E+02  0.00000000000E+00 0.  1.
         -5    1    5    5    0  503 -0.59350920166E+02  0.56100379557E+02 -0.23823634123E+02  0.85202346528E+02  0.47000000000E+01 0.  1.
<mgrwt>
<rscale>  2 0.17532762E+03</rscale>
<asrwt>0</asrwt>
<pdfrwt beam="1">  1       21 0.22329113E-01 0.17702528E+03</pdfrwt>
<pdfrwt beam="2">  1       21 0.32878523E-01 0.17702528E+03</pdfrwt>
<totfact> 0.16795261E+05</totfact>
</mgrwt>
</event>
<event>
12    1  0.1473662E-001  0.1923784E+03  0.7546771E-02  0.1156991E+00
         21   -1    0    0  504  503  0.00000000000E+00  0.00000000000E+00  0.18043318653E+03  0.18043318653E+03  0.00000000000E+00 0. -1.
         21   -1    0    0  502  504 -0.00000000000E+00 -0.00000000000E+00 -0.20220742173E+03  0.20220742173E+03  0.00000000000E+00 0.  1.
          6    2    1    2  502    0  0.71620621024E+02  0.41613629556E+02 -0.45871217949E+01  0.18949598684E+03  0.17037159335E+03 0.  0.
         24    2    3    3    0    0  0.13994868518E+00  0.72844452289E+02 -0.62079571150E+01  0.11133226179E+03  0.83964277929E+02 0.  0.
         -6    2    1    2    0  503 -0.71620621024E+02 -0.41613629556E+02 -0.17187113408E+02  0.19314462142E+03  0.17363248658E+03 0.  0.
        -24    2    5    5    0    0 -0.58997654340E+02  0.40199733869E+02 -0.13457734768E+02  0.11014604319E+03  0.82790690206E+02 0.  0.
          2    1    4    4  501    0 -0.30836256094E+02  0.11771290121E+02 -0.23723879766E+02  0.40648006496E+02  0.00000000000E+00 0. -1.
         -1    1    4    4    0  501  0.30976204779E+02  0.61073162168E+02  0.17515922651E+02  0.70684255290E+02  0.00000000000E+00 0.  1.
          5    1    3    3  502    0  0.71480672339E+02 -0.31230822732E+02  0.16208353201E+01  0.78163725050E+02  0.47000000000E+01 0. -1.
         11    1    6    6    0    0 -0.13299112765E+02  0.35678599263E+02  0.28798685539E+02  0.47740895828E+02  0.00000000000E+00 0. -1.
        -12    1    6    6    0    0 -0.45698541575E+02  0.45211346063E+01 -0.42256420307E+02  0.62405147363E+02  0.00000000000E+00 0.  1.
         -5    1    5    5    0  503 -0.12622966684E+02 -0.81813363426E+02 -0.37293786400E+01  0.82998578229E+02  0.47000000000E+01 0.  1.
<mgrwt>
<rscale>  2 0.19163967E+03</rscale>
<asrwt>0</asrwt>
<pdfrwt beam="1">  1       21 0.27758952E-01 0.19237840E+03</pdfrwt>
<pdfrwt beam="2">  1       21 0.31108834E-01 0.19237840E+03</pdfrwt>
<totfact> 0.12300306E+05</totfact>
</mgrwt>
</event>
<event>
12    1  0.1473662E-001  0.2420864E+03  0.7546771E-02  0.1118982E+00
         21   -1    0    0  504  503  0.00000000000E+00  0.00000000000E+00  0.23603443856E+03  0.23603443856E+03  0.00000000000E+00 0. -1.
         21   -1    0    0  502  504 -0.00000000000E+00 -0.00000000000E+00 -0.26687033534E+03  0.26687033534E+03  0.00000000000E+00 0. -1.
          6    2    1    2  502    0 -0.10652475717E+03  0.13067651215E+03  0.57034571607E+02  0.24536436434E+03  0.16889894675E+03 0.  0.
         24    2    3    3    0    0 -0.10518334611E+03  0.13737266645E+03  0.90820358855E+02  0.21057633068E+03  0.78481001983E+02 0.  0.
         -6    2    1    2    0  503  0.10652475717E+03 -0.13067651215E+03 -0.87870468388E+02  0.25754040956E+03  0.17372958477E+03 0.  0.
        -24    2    5    5    0    0  0.74574140398E+02 -0.60969971542E+01 -0.19397128596E+02  0.11176117328E+03  0.80720725119E+02 0.  0.
          4    1    4    4  501    0 -0.84157529665E+02  0.13923005732E+03  0.60375555449E+02  0.17353013097E+03  0.00000000000E+00 0. -1.
         -3    1    4    4    0  501 -0.21025816449E+02 -0.18573908673E+01  0.30444803406E+02  0.37046199705E+02  0.00000000000E+00 0.  1.
          5    1    3    3  502    0 -0.13414110514E+01 -0.66961543011E+01 -0.33785787249E+02  0.34788033662E+02  0.47000000000E+01 0. -1.
         13    1    6    6    0    0  0.50706621059E+02 -0.41285011962E+02 -0.22445132012E+02  0.69133187277E+02  0.00000000000E+00 0. -1.
        -14    1    6    6    0    0  0.23867519339E+02  0.35188014808E+02  0.30480034163E+01  0.42627985999E+02  0.00000000000E+00 0.  1.
         -5    1    5    5    0  503  0.31950616767E+02 -0.12457951500E+03 -0.68473339792E+02  0.14577923628E+03  0.47000000000E+01 0.  1.
<mgrwt>
<rscale>  2 0.24122108E+03</rscale>
<asrwt>0</asrwt>
<pdfrwt beam="1">  1       21 0.36312991E-01 0.24208644E+03</pdfrwt>
<pdfrwt beam="2">  1       21 0.41056975E-01 0.24208644E+03</pdfrwt>
<totfact> 0.40819946E+04</totfact>
</mgrwt>
</event>
<event>
12    1  0.1473662E-001  0.2343227E+03  0.7546771E-02  0.1123698E+00
         21   -1    0    0  504  503  0.00000000000E+00  0.00000000000E+00  0.26222691453E+03  0.26222691453E+03  0.00000000000E+00 0. -1.
         21   -1    0    0  502  504 -0.00000000000E+00 -0.00000000000E+00 -0.24196723764E+03  0.24196723764E+03  0.00000000000E+00 0.  1.
          6    2    1    2  502    0 -0.54526797191E+02 -0.14788869773E+03 -0.82857530444E+02  0.24818577115E+03  0.17287732101E+03 0.  0.
         24    2    3    3    0    0 -0.17125036255E+02 -0.90676324297E+02 -0.11924714427E+03  0.17060715690E+03  0.79821412617E+02 0.  0.
         -6    2    1    2    0  503  0.54526797191E+02  0.14788869773E+03  0.10311720733E+03  0.25600838102E+03  0.17338654554E+03 0.  0.
        -24    2    5    5    0    0  0.10255083493E+03  0.86847802167E+02  0.65868716784E+02  0.16974228582E+03  0.80090831296E+02 0.  0.
          2    1    4    4  501    0 -0.40203423305E+02 -0.23432023484E+02 -0.70249923691E+02  0.84264029981E+02  0.00000000000E+00 0. -1.
         -1    1    4    4    0  501  0.23078387051E+02 -0.67244300813E+02 -0.48997220581E+02  0.86343126915E+02  0.00000000000E+00 0.  1.
          5    1    3    3  502    0 -0.37401760936E+02 -0.57212373432E+02  0.36389613828E+02  0.77578614253E+02  0.47000000000E+01 0. -1.
         11    1    6    6    0    0  0.25668176205E+02 -0.18430060130E+01  0.43070979854E+02  0.50173312094E+02  0.00000000000E+00 0. -1.
        -12    1    6    6    0    0  0.76882658730E+02  0.88690808180E+02  0.22797736930E+02  0.11956897373E+03  0.00000000000E+00 0.  1.
         -5    1    5    5    0  503 -0.48024037744E+02  0.61040895563E+02  0.37248490550E+02  0.86266095197E+02  0.47000000000E+01 0.  1.
<mgrwt>
<rscale>  2 0.23422852E+03</rscale>
<asrwt>0</asrwt>
<pdfrwt beam="1">  1       21 0.40342602E-01 0.23432271E+03</pdfrwt>
<pdfrwt beam="2">  1       21 0.37225729E-01 0.23432271E+03</pdfrwt>
<totfact> 0.40383830E+04</totfact>
</mgrwt>
</event>
<event>
12    1  0.1473662E-001  0.2238112E+03  0.7546771E-02  0.1131168E+00
         21   -1    0    0  504  503  0.00000000000E+00  0.00000000000E+00  0.24770764291E+03  0.24770764291E+03  0.00000000000E+00 0. -1.
         21   -1    0    0  502  504 -0.00000000000E+00 -0.00000000000E+00 -0.21720344027E+03  0.21720344027E+03  0.00000000000E+00 0.  1.
          6    2    1    2  502    0 -0.24657172349E+02 -0.13923181933E+03 -0.46763774199E+02  0.22813735986E+03  0.17281877422E+03 0.  0.
         24    2    3    3    0    0  0.54247064930E+02 -0.76884947842E+02 -0.27789143105E+02  0.12569158068E+03  0.78562699304E+02 0.  0.
         -6    2    1    2    0  503  0.24657172349E+02  0.13923181933E+03  0.77267976843E+02  0.23677372332E+03  0.17348769451E+03 0.  0.
        -24    2    5    5    0    0  0.22716571522E+02  0.13058313676E+03 -0.39619960160E+01  0.15492652341E+03  0.80115741390E+02 0.  0.
          4    1    4    4  501    0  0.22035491566E+02 -0.17555228182E+02  0.26790945076E+02  0.38878061463E+02  0.00000000000E+00 0. -1.
         -3    1    4    4    0  501  0.32211573364E+02 -0.59329719659E+02 -0.54580088181E+02  0.86813519220E+02  0.00000000000E+00 0.  1.
          5    1    3    3  502    0 -0.78904237279E+02 -0.62346871493E+02 -0.18974631095E+02  0.10244577917E+03  0.47000000000E+01 0. -1.
         13    1    6    6    0    0  0.50632197637E+02  0.70031681820E+02 -0.13850178065E+02  0.87520759415E+02  0.00000000000E+00 0. -1.
        -14    1    6    6    0    0 -0.27915626116E+02  0.60551454935E+02  0.98881820489E+01  0.67405764000E+02  0.00000000000E+00 0.  1.
         -5    1    5    5    0  503  0.19406008273E+01  0.86486825797E+01  0.81229972859E+02  0.81847199907E+02  0.47000000000E+01 0.  1.
<mgrwt>
<rscale>  2 0.22368156E+03</rscale>
<asrwt>0</asrwt>
<pdfrwt beam="1">  1       21 0.38108868E-01 0.22381121E+03</pdfrwt>
<pdfrwt beam="2">  1       21 0.33415914E-01 0.22381121E+03</pdfrwt>
<totfact> 0.56466324E+04</totfact>
</mgrwt>
</event>
<event>
12    1  0.1473662E-001  0.2821644E+03  0.7546771E-02  0.1094587E+00
         21   -1    0    0  504  503  0.00000000000E+00  0.00000000000E+00  0.50264940585E+03  0.50264940585E+03  0.00000000000E+00 0. -1.
         21   -1    0    0  502  504 -0.00000000000E+00 -0.00000000000E+00 -0.25319653453E+03  0.25319653453E+03  0.00000000000E+00 0. -1.
          6    2    1    2  502    0  0.10441444724E+03 -0.19556429466E+03 -0.10697430045E+03  0.30125040792E+03  0.17366789333E+03 0.  0.
         24    2    3    3    0    0  0.82796577841E+02 -0.15993546419E+03 -0.13297252848E+02  0.19861403480E+03  0.82680662066E+02 0.  0.
         -6    2    1    2    0  503 -0.10441444724E+03  0.19556429466E+03  0.35642717177E+03  0.45459553246E+03  0.17455371443E+03 0.  0.
        -24    2    5    5    0    0 -0.11647230976E+03  0.19851860607E+03  0.36471951116E+03  0.43894392241E+03  0.81706849756E+02 0.  0.
          4    1    4    4  501    0  0.53361264293E+02 -0.15963573490E+03 -0.15871939704E+02  0.16906481259E+03  0.00000000000E+00 0. -1.
         -3    1    4    4    0  501  0.29435313548E+02 -0.29972928921E+00  0.25746868562E+01  0.29549222219E+02  0.00000000000E+00 0.  1.
          5    1    3    3  502    0  0.21617869395E+02 -0.35628830468E+02 -0.93677047604E+02  0.10263637311E+03  0.47000000000E+01 0. -1.
         13    1    6    6    0    0 -0.39243646500E+02  0.11943156952E+03  0.13777330216E+03  0.18650856917E+03  0.00000000000E+00 0. -1.
        -14    1    6    6    0    0 -0.77228663263E+02  0.79087036557E+02  0.22694620900E+03  0.25243535323E+03  0.00000000000E+00 0.  1.
         -5    1    5    5    0  503  0.12057862527E+02 -0.29543114149E+01 -0.82923393927E+01  0.15651610053E+02  0.47000000000E+01 0.  1.
<mgrwt>
<rscale>  2 0.28202755E+03</rscale>
<asrwt>0</asrwt>
<pdfrwt beam="1">  1       21 0.77330678E-01 0.28216444E+03</pdfrwt>
<pdfrwt beam="2">  1       21 0.38953313E-01 0.28216444E+03</pdfrwt>
<totfact> 0.89422478E+03</totfact>
</mgrwt>
</event>
<event>
12    1  0.1473662E-001  0.1997249E+03  0.7546771E-02  0.1150686E+00
         21   -1    0    0  504  503  0.00000000000E+00  0.00000000000E+00  0.71748791600E+02  0.71748791600E+02  0.00000000000E+00 0.  1.
         21   -1    0    0  502  504 -0.00000000000E+00 -0.00000000000E+00 -0.55960668579E+03  0.55960668579E+03  0.00000000000E+00 0.  1.
          6    2    1    2  502    0 -0.12621409783E+01  0.92255266614E+02 -0.19393125367E+03  0.27599240034E+03  0.17334891599E+03 0.  0.
         24    2    3    3    0    0 -0.20232509018E+02  0.83639059395E+02 -0.21502431415E+03  0.24597372131E+03  0.82841832563E+02 0.  0.
         -6    2    1    2    0  503  0.12621409783E+01 -0.92255266614E+02 -0.29392664052E+03  0.35536307705E+03  0.17713672490E+03 0.  0.
        -24    2    5    5    0    0 -0.49308198594E+02  0.26927340745E+01 -0.11741547831E+03  0.14860050195E+03  0.76532119838E+02 0.  0.
          4    1    4    4  501    0  0.20738562120E+02  0.42798374481E+02 -0.15697279125E+03  0.16401904160E+03  0.00000000000E+00 0. -1.
         -3    1    4    4    0  501 -0.40971071137E+02  0.40840684914E+02 -0.58051522900E+02  0.81954679704E+02  0.00000000000E+00 0.  1.
          5    1    3    3  502    0  0.18970368040E+02  0.86162072191E+01  0.21093060477E+02  0.30018679029E+02  0.47000000000E+01 0. -1.
         13    1    6    6    0    0 -0.20963186084E+02  0.25891433644E+02 -0.10462918505E+03  0.10980477163E+03  0.00000000000E+00 0. -1.
        -14    1    6    6    0    0 -0.28345012510E+02 -0.23198699570E+02 -0.12786293256E+02  0.38795730321E+02  0.00000000000E+00 0.  1.
         -5    1    5    5    0  503  0.50570339572E+02 -0.94948000689E+02 -0.17651116221E+03  0.20676257511E+03  0.47000000000E+01 0.  1.
<mgrwt>
<rscale>  2 0.19888170E+03</rscale>
<asrwt>0</asrwt>
<pdfrwt beam="1">  1       21 0.11038276E-01 0.19972493E+03</pdfrwt>
<pdfrwt beam="2">  1       21 0.86093335E-01 0.19972493E+03</pdfrwt>
<totfact> 0.79008197E+04</totfact>
</mgrwt>
</event>
<event>
12    1  0.1473662E-001  0.2202773E+03  0.7546771E-02  0.1133796E+00
         21   -1    0    0  504  503  0.00000000000E+00  0.00000000000E+00  0.82010663187E+03  0.82010663187E+03  0.00000000000E+00 0.  1.
         21   -1    0    0  502  504 -0.00000000000E+00 -0.00000000000E+00 -0.89497058948E+02  0.89497058948E+02  0.00000000000E+00 0. -1.
          6    2    1    2  502    0  0.49344989053E+01 -0.13522475321E+03  0.99432783983E+02  0.24109324771E+03  0.17299997804E+03 0.  0.
         24    2    3    3    0    0 -0.13329711487E+02 -0.16273566654E+03  0.99455311859E+02  0.20773875414E+03  0.81261630189E+02 0.  0.
         -6    2    1    2    0  503 -0.49344989053E+01  0.13522475321E+03  0.63117678894E+03  0.66851044311E+03  0.17381596731E+03 0.  0.
        -24    2    5    5    0    0 -0.66638712979E+02  0.83933894919E+02  0.44253284099E+03  0.46345730055E+03  0.86439211531E+02 0.  0.
          2    1    4    4  501    0 -0.20490663060E+02 -0.52621245808E+02  0.76407677040E+02  0.95010504123E+02  0.00000000000E+00 0. -1.
         -1    1    4    4    0  501  0.71609515728E+01 -0.11011442073E+03  0.23047634819E+02  0.11272825002E+03  0.00000000000E+00 0.  1.
          5    1    3    3  502    0  0.18264210392E+02  0.27510913335E+02 -0.22527876533E-01  0.33354493570E+02  0.47000000000E+01 0. -1.
         13    1    6    6    0    0 -0.14791710625E+02  0.37082516927E+02  0.46415563127E+02  0.61223461722E+02  0.00000000000E+00 0. -1.
        -14    1    6    6    0    0 -0.51847002354E+02  0.46851377992E+02  0.39611727786E+03  0.40223383882E+03  0.00000000000E+00 0.  1.
         -5    1    5    5    0  503  0.61704214073E+02  0.51290858287E+02  0.18864394795E+03  0.20505314257E+03  0.47000000000E+01 0.  1.
<mgrwt>
<rscale>  2 0.22011626E+03</rscale>
<asrwt>0</asrwt>
<pdfrwt beam="1">  1       21 0.12617025E+00 0.22027727E+03</pdfrwt>
<pdfrwt beam="2">  1       21 0.13768779E-01 0.22027727E+03</pdfrwt>
<totfact> 0.20993083E+04</totfact>
</mgrwt>
</event>
<event>
12    1  0.1473662E-001  0.1784222E+03  0.7546771E-02  0.1169959E+00
         21   -1    0    0  504  503  0.00000000000E+00  0.00000000000E+00  0.24152223536E+03  0.24152223536E+03  0.00000000000E+00 0.  1.
         21   -1    0    0  502  504 -0.00000000000E+00 -0.00000000000E+00 -0.15175072743E+03  0.15175072743E+03  0.00000000000E+00 0.  1.
          6    2    1    2  502    0 -0.14752236377E+02  0.39410826603E+02 -0.29904422987E+02  0.17843160426E+03  0.17080023756E+03 0.  0.
         24    2    3    3    0    0  0.21876102425E+02  0.76927313022E+02 -0.47938880173E+02  0.12278581733E+03  0.79886452913E+02 0.  0.
         -6    2    1    2    0  503  0.14752236377E+02 -0.39410826603E+02  0.11967593093E+03  0.21484135853E+03  0.17338869387E+03 0.  0.
        -24    2    5    5    0    0  0.30879112314E+02 -0.75611585640E+02  0.32915101809E+02  0.11934213052E+03  0.80551280123E+02 0.  0.
          4    1    4    4  501    0  0.40192146937E+02  0.18134223093E+02 -0.42041331164E+02  0.60923987465E+02  0.00000000000E+00 0. -1.
         -3    1    4    4    0  501 -0.18316044512E+02  0.58793089929E+02 -0.58975490089E+01  0.61861829865E+02  0.00000000000E+00 0.  1.
          5    1    3    3  502    0 -0.36628338802E+02 -0.37516486419E+02  0.18034457186E+02  0.55645786926E+02  0.47000000000E+01 0. -1.
         13    1    6    6    0    0  0.21016999849E+02  0.12667874728E+02 -0.20355634001E+00  0.24540390542E+02  0.00000000000E+00 0. -1.
        -14    1    6    6    0    0  0.98621124654E+01 -0.88279460368E+02  0.33118658149E+02  0.94801739977E+02  0.00000000000E+00 0.  1.
         -5    1    5    5    0  503 -0.16126875937E+02  0.36200759037E+02  0.86760829117E+02  0.95499228015E+02  0.47000000000E+01 0.  1.
<mgrwt>
<rscale>  2 0.17779026E+03</rscale>
<asrwt>0</asrwt>
<pdfrwt beam="1">  1       21 0.37157267E-01 0.17842220E+03</pdfrwt>
<pdfrwt beam="2">  1       21 0.23346266E-01 0.17842220E+03</pdfrwt>
<totfact> 0.12112278E+05</totfact>
</mgrwt>
</event>
<event>
12    1  0.1473662E-001  0.2365390E+03  0.7546771E-02  0.1122301E+00
         21   -1    0    0  504  503  0.00000000000E+00  0.00000000000E+00  0.30470646487E+03  0.30470646487E+03  0.00000000000E+00 0. -1.
         21   -1    0    0  502  504 -0.00000000000E+00 -0.00000000000E+00 -0.18497505774E+03  0.18497505774E+03  0.00000000000E+00 0. -1.
          6    2    1    2  502    0  0.50532944539E+02 -0.15224169556E+03  0.86308073215E+02  0.25079277833E+03  0.17238567751E+03 0.  0.
         24    2    3    3    0    0 -0.33437685682E+02 -0.45080067527E+02  0.23320357901E+02  0.10071205491E+03  0.80304343587E+02 0.  0.
         -6    2    1    2    0  503 -0.50532944539E+02  0.15224169556E+03  0.33423333914E+02  0.23888874428E+03  0.17383785706E+03 0.  0.
        -24    2    5    5    0    0 -0.10064972721E+03  0.10479293978E+03  0.38376918490E+02  0.16953671237E+03  0.78472805178E+02 0.  0.
          2    1    4    4  501    0  0.84992228490E+01 -0.50047547633E+02 -0.31668080126E+01  0.50862780952E+02  0.00000000000E+00 0. -1.
         -1    1    4    4    0  501 -0.41936908531E+02  0.49674801059E+01  0.26487165914E+02  0.49849273956E+02  0.00000000000E+00 0.  1.
          5    1    3    3  502    0  0.83970630221E+02 -0.10716162803E+03  0.62987715314E+02  0.15008072342E+03  0.47000000000E+01 0. -1.
         11    1    6    6    0    0 -0.58985994906E+02  0.10605039882E+03  0.40138509659E+02  0.12781680110E+03  0.00000000000E+00 0. -1.
        -12    1    6    6    0    0 -0.41663732307E+02 -0.12574590423E+01 -0.17615911692E+01  0.41719911271E+02  0.00000000000E+00 0.  1.
         -5    1    5    5    0  503  0.50116782675E+02  0.47448755776E+02 -0.49535845760E+01  0.69352031913E+02  0.47000000000E+01 0.  1.
<mgrwt>
<rscale>  2 0.23627228E+03</rscale>
<asrwt>0</asrwt>
<pdfrwt beam="1">  1       21 0.46877918E-01 0.23653903E+03</pdfrwt>
<pdfrwt beam="2">  1       21 0.28457701E-01 0.23653903E+03</pdfrwt>
<totfact> 0.50410965E+04</totfact>
</mgrwt>
</event>
<event>
12    1  0.1473662E-001  0.2248655E+03  0.7546771E-02  0.1130367E+00
         21   -1    0    0  504  503  0.00000000000E+00  0.00000000000E+00  0.39234809494E+03  0.39234809494E+03  0.00000000000E+00 0. -1.
         21   -1    0    0  502  504 -0.00000000000E+00 -0.00000000000E+00 -0.11847609425E+04  0.11847609425E+04  0.00000000000E+00 0. -1.
          6    2    1    2  502    0 -0.98227192737E+02 -0.10523790614E+03 -0.11407357837E+04  0.11626876747E+04  0.17274519522E+03 0.  0.
         24    2    3    3    0    0 -0.20166549114E+02 -0.53806864755E+01 -0.67373136866E+03  0.67876604671E+03  0.79835753602E+02 0.  0.
         -6    2    1    2    0  503  0.98227192737E+02  0.10523790614E+03  0.34832293616E+03  0.41442136269E+03  0.17231540766E+03 0.  0.
        -24    2    5    5    0    0  0.59749630449E+02  0.94506254390E+02  0.34710546602E+03  0.37418129084E+03  0.83833068754E+02 0.  0.
          4    1    4    4  501    0 -0.50420581630E+02 -0.11263188834E+02 -0.41233449758E+03  0.41555845842E+03  0.00000000000E+00 0. -1.
         -3    1    4    4    0  501  0.30254032516E+02  0.58825023583E+01 -0.26139687109E+03  0.26320758829E+03  0.00000000000E+00 0.  1.
          5    1    3    3  502    0 -0.78060643623E+02 -0.99857219660E+02 -0.46700441501E+03  0.48392162799E+03  0.47000000000E+01 0. -1.
         13    1    6    6    0    0  0.47987490972E+02  0.16370602666E+02  0.20906663856E+03  0.21512706776E+03  0.00000000000E+00 0. -1.
        -14    1    6    6    0    0  0.11762139477E+02  0.78135651724E+02  0.13803882746E+03  0.15905422309E+03  0.00000000000E+00 0.  1.
         -5    1    5    5    0  503  0.38477562288E+02  0.10731651746E+02  0.12174701401E+01  0.40240071849E+02  0.47000000000E+01 0.  1.
<mgrwt>
<rscale>  2 0.22478297E+03</rscale>
<asrwt>0</asrwt>
<pdfrwt beam="1">  1       21 0.60361245E-01 0.22486552E+03</pdfrwt>
<pdfrwt beam="2">  1       21 0.18227092E+00 0.22486552E+03</pdfrwt>
<totfact> 0.43312446E+02</totfact>
</mgrwt>
</event>
<event>
12    1  0.1473662E-001  0.2037157E+03  0.7546771E-02  0.1146921E+00
         21   -1    0    0  504  503  0.00000000000E+00  0.00000000000E+00  0.35942731791E+02  0.35942731791E+02  0.00000000000E+00 0.  1.
         21   -1    0    0  502  504 -0.00000000000E+00 -0.00000000000E+00 -0.13486145551E+04  0.13486145551E+04  0.00000000000E+00 0.  1.
          6    2    1    2  502    0  0.10689569308E+03  0.10603175840E+02 -0.92216370401E+03  0.94410672850E+03  0.17150073254E+03 0.  0.
         24    2    3    3    0    0  0.12479042512E+03 -0.29967871908E+02 -0.66917280454E+03  0.68721625268E+03  0.89460673280E+02 0.  0.
         -6    2    1    2    0  503 -0.10689569308E+03 -0.10603175840E+02 -0.39050811933E+03  0.44045055842E+03  0.17309242219E+03 0.  0.
        -24    2    5    5    0    0 -0.13986920650E+03  0.11118194674E+02 -0.28136517498E+03  0.32428970949E+03  0.79438308179E+02 0.  0.
          2    1    4    4  501    0  0.69839302933E+01 -0.35455116021E+02 -0.11149526627E+03  0.11720509774E+03  0.00000000000E+00 0. -1.
         -1    1    4    4    0  501  0.11780649483E+03  0.54872441137E+01 -0.55767753827E+03  0.57001115494E+03  0.00000000000E+00 0.  1.
          5    1    3    3  502    0 -0.17894732046E+02  0.40571047748E+02 -0.25299089947E+03  0.25689047582E+03  0.47000000000E+01 0. -1.
         11    1    6    6    0    0 -0.93295178910E+02  0.21452220590E+02 -0.24865503140E+03  0.26644607863E+03  0.00000000000E+00 0. -1.
        -12    1    6    6    0    0 -0.46574027594E+02 -0.10334025916E+02 -0.32710143585E+02  0.57843630862E+02  0.00000000000E+00 0.  1.
         -5    1    5    5    0  503  0.32973513428E+02 -0.21721370514E+02 -0.10914294435E+03  0.11616084893E+03  0.47000000000E+01 0.  1.
<mgrwt>
<rscale>  2 0.20337723E+03</rscale>
<asrwt>0</asrwt>
<pdfrwt beam="1">  1       21 0.55296520E-02 0.20371574E+03</pdfrwt>
<pdfrwt beam="2">  1       21 0.20747913E+00 0.20371574E+03</pdfrwt>
<totfact> 0.27058713E+04</totfact>
</mgrwt>
</event>
<event>
12    1  0.1473662E-001  0.2030953E+03  0.7546771E-02  0.1150147E+00
         21   -1    0    0  504  503  0.00000000000E+00  0.00000000000E+00  0.13735783191E+03  0.13735783191E+03  0.00000000000E+00 0.  1.
         21   -1    0    0  502  504 -0.00000000000E+00 -0.00000000000E+00 -0.38260660468E+03  0.38260660468E+03  0.00000000000E+00 0.  1.
          6    2    1    2  502    0 -0.77052139281E+02  0.16920496398E+01 -0.25398233672E+03  0.31668143194E+03  0.17274318155E+03 0.  0.
         24    2    3    3    0    0 -0.22988920416E+02  0.42865640578E+02 -0.22418635062E+03  0.24233099810E+03  0.78095065342E+02 0.  0.
         -6    2    1    2    0  503  0.77052139281E+02 -0.16920496398E+01  0.87335639500E+01  0.20328300464E+03  0.18790372438E+03 0.  0.
        -24    2    5    5    0    0 -0.33042827610E+02 -0.15263843911E+02 -0.10572972706E+02  0.90589048762E+02  0.82278640098E+02 0.  0.
          2    1    4    4  501    0 -0.43987188795E+02  0.39857327301E+02 -0.20602578134E+03  0.21440639424E+03  0.00000000000E+00 0. -1.
         -1    1    4    4    0  501  0.20998268379E+02  0.30083132770E+01 -0.18160569286E+02  0.27924603855E+02  0.00000000000E+00 0.  1.
          5    1    3    3  502    0 -0.54063218865E+02 -0.41173590938E+02 -0.29795986097E+02  0.74350433841E+02  0.47000000000E+01 0. -1.
         11    1    6    6    0    0  0.80260353704E+01 -0.10234324492E+02 -0.38521846467E+02  0.40658225450E+02  0.00000000000E+00 0. -1.
        -12    1    6    6    0    0 -0.41068862980E+02 -0.50295194188E+01  0.27948873761E+02  0.49930823312E+02  0.00000000000E+00 0.  1.
         -5    1    5    5    0  503  0.11009496689E+03  0.13571794271E+02  0.19306536656E+02  0.11269395588E+03  0.47000000000E+01 0.  1.
<mgrwt>
<rscale>  2 0.19951710E+03</rscale>
<asrwt>0</asrwt>
<pdfrwt beam="1">  1       21 0.21131974E-01 0.20309531E+03</pdfrwt>
<pdfrwt beam="2">  1       21 0.58862554E-01 0.20309531E+03</pdfrwt>
<totfact> 0.55933508E+04</totfact>
</mgrwt>
</event>
<event>
12    1  0.1473662E-001  0.2126825E+03  0.7546771E-02  0.1140287E+00
         21   -1    0    0  504  503  0.00000000000E+00  0.00000000000E+00  0.27753334784E+03  0.27753334784E+03  0.00000000000E+00 0.  1.
         21   -1    0    0  502  504 -0.00000000000E+00 -0.00000000000E+00 -0.19837757801E+03  0.19837757801E+03  0.00000000000E+00 0. -1.
          6    2    1    2  502    0 -0.48990366767E+02 -0.10706433994E+03 -0.65699227177E+02  0.21858467945E+03  0.17204663530E+03 0.  0.
         24    2    3    3    0    0 -0.42812527292E+02 -0.67925614552E+02 -0.11059276364E+03  0.15852200267E+03  0.80322253182E+02 0.  0.
         -6    2    1    2    0  503  0.48990366767E+02  0.10706433994E+03  0.14485499701E+03  0.25732624640E+03  0.17711859871E+03 0.  0.
        -24    2    5    5    0    0  0.94991474118E+01  0.96687227678E+02  0.16746129214E+03  0.21041808672E+03  0.82424711446E+02 0.  0.
          2    1    4    4  501    0 -0.38055906157E+02 -0.81921810546E+02 -0.66926631577E+02  0.11242156844E+03  0.00000000000E+00 0. -1.
         -1    1    4    4    0  501 -0.47566211349E+01  0.13996195994E+02 -0.43666132064E+02  0.46100434231E+02  0.00000000000E+00 0.  1.
          5    1    3    3  502    0 -0.61778394749E+01 -0.39138725390E+02  0.44893536464E+02  0.60062676780E+02  0.47000000000E+01 0. -1.
         11    1    6    6    0    0 -0.31934755649E+02  0.63954437227E+02  0.72819839494E+02  0.10204277379E+03  0.00000000000E+00 0. -1.
        -12    1    6    6    0    0  0.41433903061E+02  0.32732790451E+02  0.94641452645E+02  0.10837531293E+03  0.00000000000E+00 0.  1.
         -5    1    5    5    0  503  0.39491219355E+02  0.10377112265E+02 -0.22606295134E+02  0.46908159683E+02  0.47000000000E+01 0.  1.
<mgrwt>
<rscale>  2 0.21162333E+03</rscale>
<asrwt>0</asrwt>
<pdfrwt beam="1">  1       21 0.42697438E-01 0.21268246E+03</pdfrwt>
<pdfrwt beam="2">  1       21 0.30519627E-01 0.21268246E+03</pdfrwt>
<totfact> 0.53861551E+04</totfact>
</mgrwt>
</event>
<event>
12    1  0.1473662E-001  0.2935884E+03  0.7546771E-02  0.1088718E+00
         21   -1    0    0  504  503  0.00000000000E+00  0.00000000000E+00  0.34084435818E+03  0.34084435818E+03  0.00000000000E+00 0.  1.
         21   -1    0    0  502  504 -0.00000000000E+00 -0.00000000000E+00 -0.43356863007E+03  0.43356863007E+03  0.00000000000E+00 0. -1.
          6    2    1    2  502    0 -0.14610841934E+03  0.18507932134E+03 -0.29745482115E+03  0.41793963559E+03  0.17490609762E+03 0.  0.
         24    2    3    3    0    0 -0.13422110118E+03  0.21143949143E+03 -0.25585284474E+03  0.36705760201E+03  0.80923683163E+02 0.  0.
         -6    2    1    2    0  503  0.14610841934E+03 -0.18507932134E+03  0.20473054926E+03  0.35647335265E+03  0.17192041171E+03 0.  0.
        -24    2    5    5    0    0  0.92602315980E+02 -0.12475447790E+03  0.51862654162E+02  0.18357837533E+03  0.82900038065E+02 0.  0.
          4    1    4    4  501    0 -0.12427872435E+03  0.15768246242E+03 -0.23362827202E+03  0.30804403868E+03  0.00000000000E+00 0. -1.
         -3    1    4    4    0  501 -0.99423768363E+01  0.53757029006E+02 -0.22224572725E+02  0.59013563335E+02  0.00000000000E+00 0.  1.
          5    1    3    3  502    0 -0.11887318156E+02 -0.26360170086E+02 -0.41601976406E+02  0.50882033576E+02  0.47000000000E+01 0. -1.
         11    1    6    6    0    0  0.98252527880E+01 -0.34721116689E+02  0.49495051784E+02  0.61252360670E+02  0.00000000000E+00 0. -1.
        -12    1    6    6    0    0  0.82777063192E+02 -0.90033361210E+02  0.23676023772E+01  0.12232601466E+03  0.00000000000E+00 0.  1.
         -5    1    5    5    0  503  0.53506103358E+02 -0.60324843442E+02  0.15286789509E+03  0.17289497732E+03  0.47000000000E+01 0.  1.
<mgrwt>
<rscale>  2 0.29314521E+03</rscale>
<asrwt>0</asrwt>
<pdfrwt beam="1">  1       21 0.52437594E-01 0.29358843E+03</pdfrwt>
<pdfrwt beam="2">  1       21 0.66702866E-01 0.29358843E+03</pdfrwt>
<totfact> 0.66801019E+03</totfact>
</mgrwt>
</event>
<event>
12    1  0.1473662E-001  0.2331985E+03  0.7546771E-02  0.1125015E+00
         21   -1    0    0  504  503  0.00000000000E+00  0.00000000000E+00  0.28198849719E+03  0.28198849719E+03  0.00000000000E+00 0. -1.
         21   -1    0    0  502  504 -0.00000000000E+00 -0.00000000000E+00 -0.24209872390E+03  0.24209872390E+03  0.00000000000E+00 0. -1.
          6    2    1    2  502    0 -0.15064110343E+03 -0.78742742932E+01 -0.10151610031E+03  0.25433654484E+03  0.17783929031E+03 0.  0.
         24    2    3    3    0    0 -0.15431404571E+01  0.11358599721E+02 -0.17736091816E+02  0.82170096801E+02  0.79410054687E+02 0.  0.
         -6    2    1    2    0  503  0.15064110343E+03  0.78742742932E+01  0.14140587360E+03  0.26975067626E+03  0.17324854981E+03 0.  0.
        -24    2    5    5    0    0  0.13012098077E+03 -0.97840366855E+01  0.16930353434E+03  0.23059380131E+03  0.86502123972E+02 0.  0.
          2    1    4    4  501    0 -0.10425624568E+02  0.35630296841E+02 -0.35053909045E+02  0.51058674483E+02  0.00000000000E+00 0. -1.
         -1    1    4    4    0  501  0.88824841109E+01 -0.24271697120E+02  0.17317817230E+02  0.31111422318E+02  0.00000000000E+00 0.  1.
          5    1    3    3  502    0 -0.14909796297E+03 -0.19232874014E+02 -0.83780008490E+02  0.17216644803E+03  0.47000000000E+01 0. -1.
         13    1    6    6    0    0  0.13653879039E+03  0.76151420912E+01  0.15762481508E+03  0.20867777553E+03  0.00000000000E+00 0. -1.
        -14    1    6    6    0    0 -0.64178096215E+01 -0.17399178777E+02  0.11678719260E+02  0.21916025780E+02  0.00000000000E+00 0.  1.
         -5    1    5    5    0  503  0.20520122662E+02  0.17658310979E+02 -0.27897660741E+02  0.39156874945E+02  0.47000000000E+01 0.  1.
<mgrwt>
<rscale>  2 0.23232319E+03</rscale>
<asrwt>0</asrwt>
<pdfrwt beam="1">  1       21 0.43382845E-01 0.23319854E+03</pdfrwt>
<pdfrwt beam="2">  1       21 0.37245958E-01 0.23319854E+03</pdfrwt>
<totfact> 0.34793253E+04</totfact>
</mgrwt>
</event>
<event>
12    1  0.1473662E-001  0.1856438E+03  0.7546771E-02  0.1162475E+00
         21   -1    0    0  504  503  0.00000000000E+00  0.00000000000E+00  0.30596640652E+03  0.30596640652E+03  0.00000000000E+00 0. -1.
         21   -1    0    0  502  504 -0.00000000000E+00 -0.00000000000E+00 -0.13972383766E+03  0.13972383766E+03  0.00000000000E+00 0. -1.
          6    2    1    2  502    0  0.30922018253E+00  0.63191588420E+02 -0.15090702546E+02  0.18625611995E+03  0.17455755627E+03 0.  0.
         24    2    3    3    0    0  0.15690778127E+02 -0.18977872156E+02  0.87884326491E+01  0.99188814528E+02  0.95680845675E+02 0.  0.
         -6    2    1    2    0  503 -0.30922018253E+00 -0.63191588420E+02  0.18133327140E+03  0.25943412423E+03  0.17444493983E+03 0.  0.
        -24    2    5    5    0    0  0.32265276932E+02  0.76654573199E+01  0.15479345476E+03  0.17692187871E+03  0.78997026511E+02 0.  0.
          2    1    4    4  501    0  0.20604149216E+02 -0.28231985082E+02 -0.37773408875E+02  0.51462669622E+02  0.00000000000E+00 0. -1.
         -1    1    4    4    0  501 -0.49133710880E+01  0.92541129256E+01  0.46561841524E+02  0.47726144906E+02  0.00000000000E+00 0.  1.
          5    1    3    3  502    0 -0.15381557945E+02  0.82169460577E+02 -0.23879135195E+02  0.87067305425E+02  0.47000000000E+01 0. -1.
         11    1    6    6    0    0  0.58684678490E+02  0.23863122239E+01  0.10573657799E+03  0.12095375108E+03  0.00000000000E+00 0. -1.
        -12    1    6    6    0    0 -0.26419401558E+02  0.52791450960E+01  0.49056876774E+02  0.55968127631E+02  0.00000000000E+00 0.  1.
         -5    1    5    5    0  503 -0.32574497114E+02 -0.70857045740E+02  0.26539816643E+02  0.82512245520E+02  0.47000000000E+01 0.  1.
<mgrwt>
<rscale>  2 0.18561730E+03</rscale>
<asrwt>0</asrwt>
<pdfrwt beam="1">  1       21 0.47071755E-01 0.18564378E+03</pdfrwt>
<pdfrwt beam="2">  1       21 0.21495975E-01 0.18564378E+03</pdfrwt>
<totfact> 0.87329457E+04</totfact>
</mgrwt>
</event>
<event>
12    1  0.1473662E-001  0.1974494E+03  0.7546771E-02  0.1155412E+00
         21   -1    0    0  504  503  0.00000000000E+00  0.00000000000E+00  0.40886935416E+02  0.40886935416E+02  0.00000000000E+00 0.  1.
         21   -1    0    0  502  504 -0.00000000000E+00 -0.00000000000E+00 -0.10082414016E+04  0.10082414016E+04  0.00000000000E+00 0.  1.
          6    2    1    2  502    0  0.17335581294E+02  0.52551503015E+02 -0.65357207886E+03  0.67839170700E+03  0.17319544741E+03 0.  0.
         24    2    3    3    0    0 -0.16271178429E+02  0.77430734963E+02 -0.59686533114E+03  0.60777913220E+03  0.82987830804E+02 0.  0.
         -6    2    1    2    0  503 -0.17335581294E+02 -0.52551503015E+02 -0.31378238728E+03  0.37073662998E+03  0.18953648565E+03 0.  0.
        -24    2    5    5    0    0 -0.40576070344E+02  0.86389099739E+01 -0.28479760688E+03  0.29899686090E+03  0.81045651892E+02 0.  0.
          2    1    4    4  501    0  0.31920845123E+02  0.48317661040E+02 -0.27574536501E+03  0.28176061301E+03  0.00000000000E+00 0. -1.
         -1    1    4    4    0  501 -0.48192023552E+02  0.29113073923E+02 -0.32111996613E+03  0.32601851919E+03  0.00000000000E+00 0.  1.
          5    1    3    3  502    0  0.33606759724E+02 -0.24879231948E+02 -0.56706747726E+02  0.70612574794E+02  0.47000000000E+01 0. -1.
         11    1    6    6    0    0  0.19759377404E+02 -0.13092407013E+02 -0.11667662580E+03  0.11905998121E+03  0.00000000000E+00 0. -1.
        -12    1    6    6    0    0 -0.60335447748E+02  0.21731316987E+02 -0.16812098108E+03  0.17993687969E+03  0.00000000000E+00 0.  1.
         -5    1    5    5    0  503  0.23240489050E+02 -0.61190412989E+02 -0.28984780396E+02  0.71739769080E+02  0.47000000000E+01 0.  1.
<mgrwt>
<rscale>  2 0.19342064E+03</rscale>
<asrwt>0</asrwt>
<pdfrwt beam="1">  1       21 0.62902977E-02 0.19744939E+03</pdfrwt>
<pdfrwt beam="2">  1       21 0.15511406E+00 0.19744939E+03</pdfrwt>
<totfact> 0.49602648E+04</totfact>
</mgrwt>
</event>
<event>
12    1  0.1473662E-001  0.2484856E+03  0.7546771E-02  0.1114689E+00
         21   -1    0    0  504  503  0.00000000000E+00  0.00000000000E+00  0.33355875351E+03  0.33355875351E+03  0.00000000000E+00 0. -1.
         21   -1    0    0  502  504 -0.00000000000E+00 -0.00000000000E+00 -0.24404064658E+03  0.24404064658E+03  0.00000000000E+00 0. -1.
          6    2    1    2  502    0  0.82642953613E+02 -0.15437014008E+03 -0.99320407576E+02  0.26759978152E+03  0.17630967578E+03 0.  0.
         24    2    3    3    0    0  0.31011696805E+02 -0.18060552914E+01 -0.36634957741E+01  0.80212691717E+02  0.73862490730E+02 0.  0.
         -6    2    1    2    0  503 -0.82642953613E+02  0.15437014008E+03  0.18883851451E+03  0.30999961857E+03  0.17256819238E+03 0.  0.
        -24    2    5    5    0    0 -0.11467711638E+03  0.10106544924E+03  0.17463719719E+03  0.24603599560E+03  0.81673094927E+02 0.  0.
          2    1    4    4  501    0  0.51356941641E+02  0.14439572514E+02  0.26798956001E+01  0.53415527233E+02  0.00000000000E+00 0. -1.
         -1    1    4    4    0  501 -0.20345244837E+02 -0.16245627806E+02 -0.63433913741E+01  0.26797164484E+02  0.00000000000E+00 0.  1.
          5    1    3    3  502    0  0.51631256809E+02 -0.15256408479E+03 -0.95656911802E+02  0.18738708980E+03  0.47000000000E+01 0. -1.
         13    1    6    6    0    0 -0.22541995173E+02  0.68892869292E+02  0.98296331778E+02  0.12213327895E+03  0.00000000000E+00 0. -1.
        -14    1    6    6    0    0 -0.92135121211E+02  0.32172579948E+02  0.76340865409E+02  0.12390271665E+03  0.00000000000E+00 0.  1.
         -5    1    5    5    0  503  0.32034162770E+02  0.53304690844E+02  0.14201317322E+02  0.63963622975E+02  0.47000000000E+01 0.  1.
<mgrwt>
<rscale>  2 0.24782282E+03</rscale>
<asrwt>0</asrwt>
<pdfrwt beam="1">  1       21 0.51316731E-01 0.24848561E+03</pdfrwt>
<pdfrwt beam="2">  1       21 0.37544715E-01 0.24848561E+03</pdfrwt>
<totfact> 0.23976849E+04</totfact>
</mgrwt>
</event>
<event>
12    1  0.1473662E-001  0.2421288E+03  0.7546771E-02  0.1119140E+00
         21   -1    0    0  504  503  0.00000000000E+00  0.00000000000E+00  0.12520932669E+04  0.12520932669E+04  0.00000000000E+00 0. -1.
         21   -1    0    0  502  504 -0.00000000000E+00 -0.00000000000E+00 -0.46719647119E+02  0.46719647119E+02  0.00000000000E+00 0.  1.
          6    2    1    2  502    0 -0.11769386331E+03 -0.11173804889E+03  0.51351805408E+03  0.56581189658E+03  0.17350813644E+03 0.  0.
         24    2    3    3    0    0 -0.59979728125E+02 -0.12003161944E+03  0.46326006576E+03  0.48869082227E+03  0.78763403879E+02 0.  0.
         -6    2    1    2    0  503  0.11769386331E+03  0.11173804889E+03  0.69185556567E+03  0.73300101741E+03  0.17969176594E+03 0.  0.
        -24    2    5    5    0    0  0.14500580862E+03  0.67949575656E+02  0.61315499379E+03  0.63877128346E+03  0.80161566900E+02 0.  0.
          2    1    4    4  501    0 -0.75118362217E+02 -0.69586732778E+02  0.32446330764E+03  0.34023744610E+03  0.00000000000E+00 0. -1.
         -1    1    4    4    0  501  0.15138634092E+02 -0.50444886666E+02  0.13879675812E+03  0.14845337618E+03  0.00000000000E+00 0.  1.
          5    1    3    3  502    0 -0.57714135181E+02  0.82935705508E+01  0.50257988315E+02  0.77121074303E+02  0.47000000000E+01 0. -1.
         11    1    6    6    0    0  0.72204388850E+02  0.46709808558E+02  0.45883375079E+03  0.46682297592E+03  0.00000000000E+00 0. -1.
        -12    1    6    6    0    0  0.72801419766E+02  0.21239767098E+02  0.15432124300E+03  0.17194830754E+03  0.00000000000E+00 0.  1.
         -5    1    5    5    0  503 -0.27311945310E+02  0.43788473237E+02  0.78700571887E+02  0.94229733950E+02  0.47000000000E+01 0.  1.
<mgrwt>
<rscale>  2 0.24098248E+03</rscale>
<asrwt>0</asrwt>
<pdfrwt beam="1">  1       21 0.19262971E+00 0.24212882E+03</pdfrwt>
<pdfrwt beam="2">  1       21 0.71876390E-02 0.24212882E+03</pdfrwt>
<totfact> 0.20942077E+04</totfact>
</mgrwt>
</event>
<event>
12    1  0.1473662E-001  0.1860888E+03  0.7546771E-02  0.1164713E+00
         21   -1    0    0  504  503  0.00000000000E+00  0.00000000000E+00  0.78841518535E+02  0.78841518535E+02  0.00000000000E+00 0. -1.
         21   -1    0    0  502  504 -0.00000000000E+00 -0.00000000000E+00 -0.42757279458E+03  0.42757279458E+03  0.00000000000E+00 0. -1.
          6    2    1    2  502    0  0.39095887246E+02  0.22274202336E+01 -0.22591302933E+03  0.29268710930E+03  0.18192195395E+03 0.  0.
         24    2    3    3    0    0 -0.47284866718E+02 -0.11767312727E+02 -0.14958532545E+03  0.17647396209E+03  0.79955996866E+02 0.  0.
         -6    2    1    2    0  503 -0.39095887246E+02 -0.22274202336E+01 -0.12281824672E+03  0.21372720381E+03  0.17047447352E+03 0.  0.
        -24    2    5    5    0    0 -0.90533542816E+02  0.21171623249E+01 -0.86182809159E+02  0.15025316902E+03  0.83353065057E+02 0.  0.
          2    1    4    4  501    0 -0.56739763629E+02 -0.20141613352E+02 -0.56602785002E+02  0.82637525587E+02  0.00000000000E+00 0. -1.
         -1    1    4    4    0  501  0.94548969112E+01  0.83743006247E+01 -0.92982540452E+02  0.93836436503E+02  0.00000000000E+00 0.  1.
          5    1    3    3  502    0  0.86380753963E+02  0.13994732961E+02 -0.76327703873E+02  0.11621314721E+03  0.47000000000E+01 0. -1.
         13    1    6    6    0    0 -0.62533254706E+02 -0.38717730935E+02 -0.50258814277E+02  0.89080969041E+02  0.00000000000E+00 0. -1.
        -14    1    6    6    0    0 -0.28000288111E+02  0.40834893259E+02 -0.35923994882E+02  0.61172199977E+02  0.00000000000E+00 0.  1.
         -5    1    5    5    0  503  0.51437655571E+02 -0.43445825585E+01 -0.36635437558E+02  0.63474034796E+02  0.47000000000E+01 0.  1.
<mgrwt>
<rscale>  2 0.18322997E+03</rscale>
<asrwt>0</asrwt>
<pdfrwt beam="1">  1       21 0.12129464E-01 0.18608882E+03</pdfrwt>
<pdfrwt beam="2">  1       21 0.65780431E-01 0.18608882E+03</pdfrwt>
<totfact> 0.12253146E+05</totfact>
</mgrwt>
</event>
<event>
12    1  0.1473662E-001  0.1951831E+03  0.7546771E-02  0.1154096E+00
         21   -1    0    0  504  503  0.00000000000E+00  0.00000000000E+00  0.85173431024E+02  0.85173431024E+02  0.00000000000E+00 0. -1.
         21   -1    0    0  502  504 -0.00000000000E+00 -0.00000000000E+00 -0.66017110446E+03  0.66017110446E+03  0.00000000000E+00 0. -1.
          6    2    1    2  502    0 -0.73610118222E+02  0.51509465739E+02 -0.49979319022E+03  0.53617436591E+03  0.17209893407E+03 0.  0.
         24    2    3    3    0    0 -0.10177982167E+03  0.16980123268E+02 -0.45314765211E+03  0.47149280819E+03  0.79468338833E+02 0.  0.
         -6    2    1    2    0  503  0.73610118222E+02 -0.51509465739E+02 -0.75204483217E+02  0.20917016957E+03  0.17327657365E+03 0.  0.
        -24    2    5    5    0    0  0.83576990249E+02 -0.88577138604E+02 -0.85247889495E+02  0.16921630969E+03  0.80845123661E+02 0.  0.
          2    1    4    4  501    0 -0.11211790886E+03  0.26630849601E+02 -0.41834283650E+03  0.43392436724E+03  0.00000000000E+00 0. -1.
         -1    1    4    4    0  501  0.10338087188E+02 -0.96507263336E+01 -0.34804815613E+02  0.37568440949E+02  0.00000000000E+00 0.  1.
          5    1    3    3  502    0  0.28169703450E+02  0.34529342471E+02 -0.46645538108E+02  0.64681557722E+02  0.47000000000E+01 0. -1.
         13    1    6    6    0    0  0.79446189486E+02 -0.49921387782E+02 -0.24298250365E+02  0.96923923532E+02  0.00000000000E+00 0. -1.
        -14    1    6    6    0    0  0.41308007630E+01 -0.38655750822E+02 -0.60949639130E+02  0.72292386159E+02  0.00000000000E+00 0.  1.
         -5    1    5    5    0  503 -0.99668720275E+01  0.37067672865E+02  0.10043406278E+02  0.39953859880E+02  0.47000000000E+01 0.  1.
<mgrwt>
<rscale>  2 0.19492140E+03</rscale>
<asrwt>0</asrwt>
<pdfrwt beam="1">  1       21 0.13103606E-01 0.19518311E+03</pdfrwt>
<pdfrwt beam="2">  1       21 0.10156478E+00 0.19518311E+03</pdfrwt>
<totfact> 0.39591627E+04</totfact>
</mgrwt>
</event>
<event>
12    1  0.1473662E-001  0.1817654E+03  0.7546771E-02  0.1166489E+00
         21   -1    0    0  504  503  0.00000000000E+00  0.00000000000E+00  0.20085020820E+03  0.20085020820E+03  0.00000000000E+00 0.  1.
         21   -1    0    0  502  504 -0.00000000000E+00 -0.00000000000E+00 -0.16764493120E+03  0.16764493120E+03  0.00000000000E+00 0.  1.
          6    2    1    2  502    0  0.29023145181E+02 -0.45122728814E+02  0.47170909915E+02  0.18778642613E+03  0.17366704778E+03 0.  0.
         24    2    3    3    0    0  0.80340308465E+02 -0.25596087681E+02  0.19004675891E+01  0.11646851877E+03  0.80321723210E+02 0.  0.
         -6    2    1    2    0  503 -0.29023145181E+02  0.45122728814E+02 -0.13965632918E+02  0.18070871327E+03  0.17199475730E+03 0.  0.
        -24    2    5    5    0    0  0.24006247213E+02  0.60065451237E+02  0.32042656948E+02  0.10877642464E+03  0.81372110431E+02 0.  0.
          4    1    4    4  501    0  0.88218249031E+02  0.27006498102E+00 -0.56363830634E+01  0.88398536251E+02  0.00000000000E+00 0. -1.
         -3    1    4    4    0  501 -0.78779405658E+01 -0.25866152662E+02  0.75368506525E+01  0.28069982523E+02  0.00000000000E+00 0.  1.
          5    1    3    3  502    0 -0.51317163284E+02 -0.19526641133E+02  0.45270442326E+02  0.71317907357E+02  0.47000000000E+01 0. -1.
         11    1    6    6    0    0 -0.66900392117E+01 -0.17667237764E+02  0.13363679012E+02  0.23140350723E+02  0.00000000000E+00 0. -1.
        -12    1    6    6    0    0  0.30696286425E+02  0.77732689000E+02  0.18678977936E+02  0.85636073919E+02  0.00000000000E+00 0.  1.
         -5    1    5    5    0  503 -0.53029392394E+02 -0.14942722423E+02 -0.46008289866E+02  0.71932288630E+02  0.47000000000E+01 0.  1.
<mgrwt>
<rscale>  2 0.18136476E+03</rscale>
<asrwt>0</asrwt>
<pdfrwt beam="1">  1       21 0.30900032E-01 0.18176536E+03</pdfrwt>
<pdfrwt beam="2">  1       21 0.25791528E-01 0.18176536E+03</pdfrwt>
<totfact> 0.14404932E+05</totfact>
</mgrwt>
</event>
<event>
12    1  0.1473662E-001  0.2296135E+03  0.7546771E-02  0.1127017E+00
         21   -1    0    0  504  503  0.00000000000E+00  0.00000000000E+00  0.10717202816E+03  0.10717202816E+03  0.00000000000E+00 0. -1.
         21   -1    0    0  502  504 -0.00000000000E+00 -0.00000000000E+00 -0.65910864568E+03  0.65910864568E+03  0.00000000000E+00 0. -1.
          6    2    1    2  502    0  0.17877728033E+02  0.14834403315E+03 -0.46939028880E+03  0.52228015623E+03  0.17356195736E+03 0.  0.
         24    2    3    3    0    0  0.55555586788E+01  0.11601875371E+03 -0.17267572308E+03  0.22351874129E+03  0.81562901624E+02 0.  0.
         -6    2    1    2    0  503 -0.17877728033E+02 -0.14834403315E+03 -0.82546328721E+02  0.24400051761E+03  0.17434675471E+03 0.  0.
        -24    2    5    5    0    0 -0.20853426889E+02 -0.16403430666E+03 -0.10839810126E+03  0.21325245084E+03  0.79902066674E+02 0.  0.
          2    1    4    4  501    0  0.94118023440E+00  0.82458635012E+02 -0.17071186188E+03  0.18958600184E+03  0.00000000000E+00 0. -1.
         -1    1    4    4    0  501  0.46143784444E+01  0.33560118702E+02 -0.19638612020E+01  0.33932739449E+02  0.00000000000E+00 0.  1.
          5    1    3    3  502    0  0.12322169354E+02  0.32325279437E+02 -0.29671456572E+03  0.29876141494E+03  0.47000000000E+01 0. -1.
         11    1    6    6    0    0  0.42628845893E+01 -0.10402249304E+03 -0.24263442432E+02  0.10689979365E+03  0.00000000000E+00 0. -1.
        -12    1    6    6    0    0 -0.25116311478E+02 -0.60011813621E+02 -0.84134658827E+02  0.10635265719E+03  0.00000000000E+00 0.  1.
         -5    1    5    5    0  503  0.29756988565E+01  0.15690273512E+02  0.25851772538E+02  0.30748066767E+02  0.47000000000E+01 0.  1.
<mgrwt>
<rscale>  2 0.22946452E+03</rscale>
<asrwt>0</asrwt>
<pdfrwt beam="1">  1       21 0.16488004E-01 0.22961349E+03</pdfrwt>
<pdfrwt beam="2">  1       21 0.10140133E+00 0.22961349E+03</pdfrwt>
<totfact> 0.25668476E+04</totfact>
</mgrwt>
</event>
<event>
12    1  0.1473662E-001  0.1776930E+03  0.7546771E-02  0.1171811E+00
         21   -1    0    0  504  503  0.00000000000E+00  0.00000000000E+00  0.34404320878E+02  0.34404320878E+02  0.00000000000E+00 0.  1.
         21   -1    0    0  502  504 -0.00000000000E+00 -0.00000000000E+00 -0.88437245573E+03  0.88437245573E+03  0.00000000000E+00 0.  1.
          6    2    1    2  502    0  0.33500555965E+02  0.18896218452E+02 -0.40984600099E+03  0.44670857630E+03  0.17348041184E+03 0.  0.
         24    2    3    3    0    0 -0.16386427693E+02  0.19378377919E+02 -0.90166207967E+02  0.12312519650E+03  0.79911403509E+02 0.  0.
         -6    2    1    2    0  503 -0.33500555965E+02 -0.18896218452E+02 -0.44012213386E+03  0.47206820031E+03  0.16631758387E+03 0.  0.
        -24    2    5    5    0    0 -0.13880482292E+02  0.50996740530E+02 -0.28593077861E+03  0.30157762274E+03  0.79995731416E+02 0.  0.
          4    1    4    4  501    0  0.29801182864E+02 -0.70105725550E+01 -0.31234688997E+02  0.43736305563E+02  0.00000000000E+00 0. -1.
         -3    1    4    4    0  501 -0.46187610557E+02  0.26388950474E+02 -0.58931518971E+02  0.79388890937E+02  0.00000000000E+00 0.  1.
          5    1    3    3  502    0  0.49886983658E+02 -0.48215946694E+00 -0.31967979303E+03  0.32358337980E+03  0.47000000000E+01 0. -1.
         11    1    6    6    0    0 -0.43948337473E+02  0.36646772645E+02 -0.12857833892E+03  0.14073674556E+03  0.00000000000E+00 0. -1.
        -12    1    6    6    0    0  0.30067855181E+02  0.14349967886E+02 -0.15735243969E+03  0.16084087717E+03  0.00000000000E+00 0.  1.
         -5    1    5    5    0  503 -0.19620073673E+02 -0.69892958983E+02 -0.15419135525E+03  0.17049057757E+03  0.47000000000E+01 0.  1.
<mgrwt>
<rscale>  2 0.17592017E+03</rscale>
<asrwt>0</asrwt>
<pdfrwt beam="1">  1       21 0.52929722E-02 0.17769302E+03</pdfrwt>
<pdfrwt beam="2">  1       21 0.13605731E+00 0.17769302E+03</pdfrwt>
<totfact> 0.94698347E+04</totfact>
</mgrwt>
</event>
<event>
12    1  0.1473662E-001  0.1749292E+03  0.7546771E-02  0.1173237E+00
         21   -1    0    0  504  503  0.00000000000E+00  0.00000000000E+00  0.78122246000E+03  0.78122246000E+03  0.00000000000E+00 0.  1.
         21   -1    0    0  502  504 -0.00000000000E+00 -0.00000000000E+00 -0.39047665802E+02  0.39047665802E+02  0.00000000000E+00 0.  1.
          6    2    1    2  502    0  0.10520725564E+02 -0.74771204537E+01  0.33929580510E+03  0.38173532309E+03  0.17445234462E+03 0.  0.
         24    2    3    3    0    0 -0.63817958906E+02  0.96186898978E+01  0.19772085457E+03  0.22085007406E+03  0.74269561765E+02 0.  0.
         -6    2    1    2    0  503 -0.10520725564E+02  0.74771204537E+01  0.40287898910E+03  0.43853480270E+03  0.17272724259E+03 0.  0.
        -24    2    5    5    0    0 -0.66933858539E+02 -0.19380437027E+02  0.29801961278E+03  0.31638182989E+03  0.80162521949E+02 0.  0.
          2    1    4    4  501    0 -0.46716946325E+01  0.33922785047E+02  0.75874518306E+02  0.83243754146E+02  0.00000000000E+00 0. -1.
         -1    1    4    4    0  501 -0.59146264273E+02 -0.24304095150E+02  0.12184633626E+03  0.13760631991E+03  0.00000000000E+00 0.  1.
          5    1    3    3  502    0  0.74338684470E+02 -0.17095810352E+02  0.14157495053E+03  0.16088524904E+03  0.47000000000E+01 0. -1.
         11    1    6    6    0    0  0.12677086875E+02 -0.22685465366E+02  0.60216177390E+02  0.65584501904E+02  0.00000000000E+00 0. -1.
        -12    1    6    6    0    0 -0.79610945414E+02  0.33050283391E+01  0.23780343539E+03  0.25079732799E+03  0.00000000000E+00 0.  1.
         -5    1    5    5    0  503  0.56413132975E+02  0.26857557481E+02  0.10485937632E+03  0.12215297281E+03  0.47000000000E+01 0.  1.
<mgrwt>
<rscale>  2 0.17449748E+03</rscale>
<asrwt>0</asrwt>
<pdfrwt beam="1">  1       21 0.12018806E+00 0.17492917E+03</pdfrwt>
<pdfrwt beam="2">  1       21 0.60073338E-02 0.17492917E+03</pdfrwt>
<totfact> 0.10430530E+05</totfact>
</mgrwt>
</event>
<event>
12    1  0.1473662E-001  0.2252283E+03  0.7546771E-02  0.1133026E+00
         21   -1    0    0  504  503  0.00000000000E+00  0.00000000000E+00  0.68565241707E+02  0.68565241707E+02  0.00000000000E+00 0. -1.
         21   -1    0    0  502  504 -0.00000000000E+00 -0.00000000000E+00 -0.76674317030E+03  0.76674317030E+03  0.00000000000E+00 0.  1.
          6    2    1    2  502    0  0.13937822946E+03 -0.37539534537E+02 -0.20444700551E+03  0.29263169662E+03  0.15165495146E+03 0.  0.
         24    2    3    3    0    0  0.64115046615E+02 -0.58509651207E+01 -0.41338394680E+02  0.11016191542E+03  0.79257881241E+02 0.  0.
         -6    2    1    2    0  503 -0.13937822946E+03  0.37539534537E+02 -0.49373092308E+03  0.54267671538E+03  0.17289385621E+03 0.  0.
        -24    2    5    5    0    0 -0.78213722468E+02  0.19517304087E+02 -0.12602291312E+03  0.16945135679E+03  0.79584396382E+02 0.  0.
          4    1    4    4  501    0  0.53828495090E+02 -0.39547252782E+02 -0.29199789893E+02  0.72898009685E+02  0.00000000000E+00 0. -1.
         -3    1    4    4    0  501  0.10286551525E+02  0.33696287661E+02 -0.12138604787E+02  0.37263905734E+02  0.00000000000E+00 0.  1.
          5    1    3    3  502    0  0.75263182844E+02 -0.31688569416E+02 -0.16310861083E+03  0.18246978120E+03  0.47000000000E+01 0. -1.
         11    1    6    6    0    0 -0.16754498452E+02  0.42622554884E+02 -0.67042103865E+02  0.81191373272E+02  0.00000000000E+00 0. -1.
        -12    1    6    6    0    0 -0.61459224016E+02 -0.23105250797E+02 -0.58980809251E+02  0.88259983520E+02  0.00000000000E+00 0.  1.
         -5    1    5    5    0  503 -0.61164506991E+02  0.18022230450E+02 -0.36770800996E+03  0.37322535859E+03  0.47000000000E+01 0.  1.
<mgrwt>
<rscale>  2 0.22115386E+03</rscale>
<asrwt>0</asrwt>
<pdfrwt beam="1">  1       21 0.10548499E-01 0.22522831E+03</pdfrwt>
<pdfrwt beam="2">  1       21 0.11796048E+00 0.22522831E+03</pdfrwt>
<totfact> 0.39974961E+04</totfact>
</mgrwt>
</event>
<event>
12    1  0.1473662E-001  0.3957350E+03  0.7546771E-02  0.1045325E+00
         21   -1    0    0  504  503  0.00000000000E+00  0.00000000000E+00  0.81375888623E+03  0.81375888623E+03  0.00000000000E+00 0.  1.
         21   -1    0    0  502  504 -0.00000000000E+00 -0.00000000000E+00 -0.44729188372E+03  0.44729188372E+03  0.00000000000E+00 0. -1.
          6    2    1    2  502    0  0.22028930943E+03  0.27817978745E+03 -0.29306298268E+03  0.49190449273E+03  0.17370303440E+03 0.  0.
         24    2    3    3    0    0  0.47380639200E+02  0.55938392044E+02 -0.11604459127E+03  0.15926918647E+03  0.80785505640E+02 0.  0.
         -6    2    1    2    0  503 -0.22028930943E+03 -0.27817978745E+03  0.65952998518E+03  0.76914627722E+03  0.17519937332E+03 0.  0.
        -24    2    5    5    0    0 -0.13042285865E+03 -0.21619107379E+03  0.56665707144E+03  0.62573760347E+03  0.81845032523E+02 0.  0.
          2    1    4    4  501    0  0.67459737718E+02  0.28644461490E+02 -0.64759542383E+02  0.97801430034E+02  0.00000000000E+00 0. -1.
         -1    1    4    4    0  501 -0.20079098518E+02  0.27293930554E+02 -0.51285048887E+02  0.61467756439E+02  0.00000000000E+00 0.  1.
          5    1    3    3  502    0  0.17290867023E+03  0.22224139540E+03 -0.17701839141E+03  0.33263530626E+03  0.47000000000E+01 0. -1.
         13    1    6    6    0    0 -0.44587373033E+02 -0.96546410184E+02  0.15036863672E+03  0.18417374965E+03  0.00000000000E+00 0. -1.
        -14    1    6    6    0    0 -0.85835485612E+02 -0.11964466361E+03  0.41628843472E+03  0.44156385382E+03  0.00000000000E+00 0.  1.
         -5    1    5    5    0  503 -0.89866450788E+02 -0.61988713653E+02  0.92872913747E+02  0.14340867375E+03  0.47000000000E+01 0.  1.
<mgrwt>
<rscale>  2 0.39556986E+03</rscale>
<asrwt>0</asrwt>
<pdfrwt beam="1">  1       21 0.12519368E+00 0.39573501E+03</pdfrwt>
<pdfrwt beam="2">  1       21 0.68814136E-01 0.39573501E+03</pdfrwt>
<totfact> 0.79082385E+02</totfact>
</mgrwt>
</event>
<event>
12    1  0.1473662E-001  0.1973163E+03  0.7546771E-02  0.1152245E+00
         21   -1    0    0  504  503  0.00000000000E+00  0.00000000000E+00  0.34226002738E+03  0.34226002738E+03  0.00000000000E+00 0. -1.
         21   -1    0    0  502  504 -0.00000000000E+00 -0.00000000000E+00 -0.21643302006E+03  0.21643302006E+03  0.00000000000E+00 0. -1.
          6    2    1    2  502    0 -0.92391798004E+02  0.80801317029E+01 -0.12996124249E+03  0.23627027860E+03  0.17416138244E+03 0.  0.
         24    2    3    3    0    0 -0.62696037332E+02 -0.65670462026E+02 -0.67147824091E+02  0.13483752350E+03  0.73681237660E+02 0.  0.
         -6    2    1    2    0  503  0.92391798004E+02 -0.80801317029E+01  0.25578824981E+03  0.32242276884E+03  0.17299502958E+03 0.  0.
        -24    2    5    5    0    0  0.86343197535E+02  0.25894534176E+02  0.84026422471E+02  0.14716558976E+03  0.80446233438E+02 0.  0.
          4    1    4    4  501    0 -0.74562401669E+02 -0.66959460364E+02 -0.70393651417E+02  0.12246790288E+03  0.00000000000E+00 0. -1.
         -3    1    4    4    0  501  0.11866364338E+02  0.12889983377E+01  0.32458273259E+01  0.12369620622E+02  0.00000000000E+00 0.  1.
          5    1    3    3  502    0 -0.29695760673E+02  0.73750593729E+02 -0.62813418398E+02  0.10143275511E+03  0.47000000000E+01 0. -1.
         11    1    6    6    0    0  0.41011837843E+01  0.88439662673E+01  0.58607247349E+02  0.59412497756E+02  0.00000000000E+00 0. -1.
        -12    1    6    6    0    0  0.82242013751E+02  0.17050567908E+02  0.25419175121E+02  0.87753092000E+02  0.00000000000E+00 0.  1.
         -5    1    5    5    0  503  0.60486004689E+01 -0.33974665878E+02  0.17176182734E+03  0.17525717908E+03  0.47000000000E+01 0.  1.
<mgrwt>
<rscale>  2 0.19705861E+03</rscale>
<asrwt>0</asrwt>
<pdfrwt beam="1">  1       21 0.52655389E-01 0.19731629E+03</pdfrwt>
<pdfrwt beam="2">  1       21 0.33297388E-01 0.19731629E+03</pdfrwt>
<totfact> 0.29622119E+04</totfact>
</mgrwt>
</event>
<event>
12    1  0.1473662E-001  0.1810774E+03  0.7546771E-02  0.1166778E+00
         21   -1    0    0  504  503  0.00000000000E+00  0.00000000000E+00  0.18824410565E+03  0.18824410565E+03  0.00000000000E+00 0. -1.
         21   -1    0    0  502  504 -0.00000000000E+00 -0.00000000000E+00 -0.36941026558E+03  0.36941026558E+03  0.00000000000E+00 0. -1.
          6    2    1    2  502    0  0.44993210390E+02 -0.28698876867E+02 -0.29331609563E+03  0.34470765065E+03  0.17303473046E+03 0.  0.
         24    2    3    3    0    0  0.16411245146E+02 -0.82978531835E+02 -0.16110856350E+03  0.19888539160E+03  0.80278664958E+02 0.  0.
         -6    2    1    2    0  503 -0.44993210390E+02  0.28698876867E+02  0.11214993570E+03  0.21294672058E+03  0.17297596137E+03 0.  0.
        -24    2    5    5    0    0 -0.49779078514E+02  0.51157748807E+02  0.14032802576E+03  0.17629429607E+03  0.79326238353E+02 0.  0.
          4    1    4    4  501    0 -0.95712988571E+01 -0.87313900756E+02 -0.13933099826E+03  0.16470717684E+03  0.00000000000E+00 0. -1.
         -3    1    4    4    0  501  0.25982544003E+02  0.43353689206E+01 -0.21777565241E+02  0.34178214763E+02  0.00000000000E+00 0.  1.
          5    1    3    3  502    0  0.28581965244E+02  0.54279654968E+02 -0.13220753213E+03  0.14582225904E+03  0.47000000000E+01 0. -1.
         13    1    6    6    0    0 -0.64893721354E+02  0.15453003420E+02  0.10121405878E+03  0.12121994919E+03  0.00000000000E+00 0. -1.
        -14    1    6    6    0    0  0.15114642841E+02  0.35704745387E+02  0.39113966980E+02  0.55074346880E+02  0.00000000000E+00 0.  1.
         -5    1    5    5    0  503  0.47858681239E+01 -0.22458871939E+02 -0.28178090065E+02  0.36652424507E+02  0.47000000000E+01 0.  1.
<mgrwt>
<rscale>  2 0.18106338E+03</rscale>
<asrwt>0</asrwt>
<pdfrwt beam="1">  1       21 0.28960632E-01 0.18107742E+03</pdfrwt>
<pdfrwt beam="2">  1       21 0.56832347E-01 0.18107742E+03</pdfrwt>
<totfact> 0.33410624E+04</totfact>
</mgrwt>
</event>
<event>
12    1  0.1473662E-001  0.2009279E+03  0.7546771E-02  0.1149098E+00
         21   -1    0    0  504  503  0.00000000000E+00  0.00000000000E+00  0.44386476328E+02  0.44386476328E+02  0.00000000000E+00 0. -1.
         21   -1    0    0  502  504 -0.00000000000E+00 -0.00000000000E+00 -0.11248175154E+04  0.11248175154E+04  0.00000000000E+00 0.  1.
          6    2    1    2  502    0 -0.13967176576E+02  0.10071617848E+03 -0.79701678344E+03  0.82179120692E+03  0.17252884992E+03 0.  0.
         24    2    3    3    0    0 -0.21808091307E+02 -0.12014814337E+02 -0.40827178421E+03  0.41692762358E+03  0.80764131354E+02 0.  0.
         -6    2    1    2    0  503  0.13967176576E+02 -0.10071617848E+03 -0.28341425561E+03  0.34741278479E+03  0.17330081397E+03 0.  0.
        -24    2    5    5    0    0  0.31476474171E+02  0.74850864406E+01 -0.86102349936E+02  0.12165147864E+03  0.79615781382E+02 0.  0.
          2    1    4    4  501    0 -0.28725896284E+02 -0.42795839771E+02 -0.28863282815E+03  0.29319885829E+03  0.00000000000E+00 0. -1.
         -1    1    4    4    0  501  0.69178049770E+01  0.30781025434E+02 -0.11963895606E+03  0.12372876529E+03  0.00000000000E+00 0.  1.
          5    1    3    3  502    0  0.78409147313E+01  0.11273099282E+03 -0.38874499924E+03  0.40486358334E+03  0.47000000000E+01 0. -1.
         11    1    6    6    0    0 -0.13675961493E+02  0.26309986405E+02 -0.10213628054E+02  0.31361847927E+02  0.00000000000E+00 0. -1.
        -12    1    6    6    0    0  0.45152435664E+02 -0.18824899964E+02 -0.75888721882E+02  0.90289630711E+02  0.00000000000E+00 0.  1.
         -5    1    5    5    0  503 -0.17509297595E+02 -0.10820126492E+03 -0.19731190568E+03  0.22576130615E+03  0.47000000000E+01 0.  1.
<mgrwt>
<rscale>  2 0.20076129E+03</rscale>
<asrwt>0</asrwt>
<pdfrwt beam="1">  1       21 0.68286886E-02 0.20092785E+03</pdfrwt>
<pdfrwt beam="2">  1       21 0.17304885E+00 0.20092785E+03</pdfrwt>
<totfact> 0.31900638E+04</totfact>
</mgrwt>
</event>
<event>
12    1  0.1473662E-001  0.1856081E+03  0.7546771E-02  0.1162823E+00
         21   -1    0    0  504  503  0.00000000000E+00  0.00000000000E+00  0.12813647720E+03  0.12813647720E+03  0.00000000000E+00 0. -1.
         21   -1    0    0  502  504 -0.00000000000E+00 -0.00000000000E+00 -0.29786841707E+03  0.29786841707E+03  0.00000000000E+00 0. -1.
          6    2    1    2  502    0 -0.33080251820E+02 -0.56651648265E+02 -0.15341127403E+03  0.23968058822E+03  0.17206990748E+03 0.  0.
         24    2    3    3    0    0 -0.27552752132E+02  0.35914285351E+02 -0.82672643372E+02  0.12295420223E+03  0.78955556117E+02 0.  0.
         -6    2    1    2    0  503  0.33080251820E+02  0.56651648265E+02 -0.16320665835E+02  0.18632430605E+03  0.17362796600E+03 0.  0.
        -24    2    5    5    0    0  0.42409461975E+02  0.96018677746E+02  0.16152198232E+02  0.13423424871E+03  0.82096230600E+02 0.  0.
          4    1    4    4  501    0 -0.15845917908E+02  0.22252287514E+02 -0.96481399462E+02  0.10027421332E+03  0.00000000000E+00 0. -1.
         -3    1    4    4    0  501 -0.11706834225E+02  0.13661997837E+02  0.13808756090E+02  0.22679988916E+02  0.00000000000E+00 0.  1.
          5    1    3    3  502    0 -0.55274996882E+01 -0.92565933617E+02 -0.70738630656E+02  0.11672638599E+03  0.47000000000E+01 0. -1.
         11    1    6    6    0    0  0.17809399455E+02 -0.84118806854E-01  0.29175433143E+02  0.34181686383E+02  0.00000000000E+00 0. -1.
        -12    1    6    6    0    0  0.24600062521E+02  0.96102796553E+02 -0.13023234911E+02  0.10005256233E+03  0.00000000000E+00 0.  1.
         -5    1    5    5    0  503 -0.93292101549E+01 -0.39367029481E+02 -0.32472864067E+02  0.52090057333E+02  0.47000000000E+01 0.  1.
<mgrwt>
<rscale>  2 0.18524290E+03</rscale>
<asrwt>0</asrwt>
<pdfrwt beam="1">  1       21 0.19713304E-01 0.18560814E+03</pdfrwt>
<pdfrwt beam="2">  1       21 0.45825910E-01 0.18560814E+03</pdfrwt>
<totfact> 0.10852487E+05</totfact>
</mgrwt>
</event>
<event>
12    1  0.1473662E-001  0.1766436E+03  0.7546771E-02  0.1171477E+00
         21   -1    0    0  504  503  0.00000000000E+00  0.00000000000E+00  0.14053602926E+03  0.14053602926E+03  0.00000000000E+00 0. -1.
         21   -1    0    0  502  504 -0.00000000000E+00 -0.00000000000E+00 -0.25068217215E+03  0.25068217215E+03  0.00000000000E+00 0. -1.
          6    2    1    2  502    0  0.16347500190E+02 -0.24751426705E+02  0.13049181563E+02  0.17712489638E+03  0.17413521726E+03 0.  0.
         24    2    3    3    0    0 -0.30232489252E+02  0.32050624914E+02  0.38306890737E+02  0.99303239000E+02  0.80327264576E+02 0.  0.
         -6    2    1    2    0  503 -0.16347500190E+02  0.24751426705E+02 -0.12319532446E+03  0.21409330503E+03  0.17256587556E+03 0.  0.
        -24    2    5    5    0    0  0.73805429324E+01  0.60060194438E+02 -0.13546058425E+03  0.16957077470E+03  0.82115640272E+02 0.  0.
          2    1    4    4  501    0 -0.13046013876E+02  0.36579358066E+02  0.59867888891E+02  0.71361138127E+02  0.00000000000E+00 0. -1.
         -1    1    4    4    0  501 -0.17186475376E+02 -0.45287331518E+01 -0.21560998154E+02  0.27942100873E+02  0.00000000000E+00 0.  1.
          5    1    3    3  502    0  0.46579989442E+02 -0.56802051619E+02 -0.25257709174E+02  0.77821657380E+02  0.47000000000E+01 0. -1.
         11    1    6    6    0    0 -0.32104169675E+02  0.42112017181E+01 -0.31834988629E+02  0.45407911551E+02  0.00000000000E+00 0. -1.
        -12    1    6    6    0    0  0.39484712608E+02  0.55848992720E+02 -0.10362559562E+03  0.12416286315E+03  0.00000000000E+00 0.  1.
         -5    1    5    5    0  503 -0.23728043123E+02 -0.35308767733E+02  0.12265259797E+02  0.44522530332E+02  0.47000000000E+01 0.  1.
<mgrwt>
<rscale>  2 0.17625557E+03</rscale>
<asrwt>0</asrwt>
<pdfrwt beam="1">  1       21 0.21620928E-01 0.17664356E+03</pdfrwt>
<pdfrwt beam="2">  1       21 0.38566487E-01 0.17664356E+03</pdfrwt>
<totfact> 0.13002070E+05</totfact>
</mgrwt>
</event>
<event>
12    1  0.1473662E-001  0.1909369E+03  0.7546771E-02  0.1158144E+00
         21   -1    0    0  504  503  0.00000000000E+00  0.00000000000E+00  0.18927669623E+03  0.18927669623E+03  0.00000000000E+00 0.  1.
         21   -1    0    0  502  504 -0.00000000000E+00 -0.00000000000E+00 -0.21409746219E+03  0.21409746219E+03  0.00000000000E+00 0.  1.
          6    2    1    2  502    0 -0.33780480163E+02  0.72598681501E+02  0.54802686310E+02  0.19864600573E+03  0.17333554676E+03 0.  0.
         24    2    3    3    0    0 -0.33904519168E+01  0.11123213032E+03  0.63335810938E+02  0.14853611249E+03  0.75282599504E+02 0.  0.
         -6    2    1    2    0  503  0.33780480163E+02 -0.72598681501E+02 -0.79623452266E+02  0.20472815268E+03  0.17076894611E+03 0.  0.
        -24    2    5    5    0    0 -0.37508929535E+02 -0.32300286057E+02 -0.77960085941E+02  0.12268549672E+03  0.80769597192E+02 0.  0.
          2    1    4    4  501    0  0.33450841199E+02  0.58011816450E+02  0.46896564842E+02  0.81753393928E+02  0.00000000000E+00 0. -1.
         -1    1    4    4    0  501 -0.36841293116E+02  0.53220313870E+02  0.16439246096E+02  0.66782718566E+02  0.00000000000E+00 0.  1.
          5    1    3    3  502    0 -0.30390028247E+02 -0.38633448819E+02 -0.85331246272E+01  0.50109893238E+02  0.47000000000E+01 0. -1.
         11    1    6    6    0    0 -0.45353472516E+01  0.95974323432E+01  0.13285051129E+02  0.17005077647E+02  0.00000000000E+00 0. -1.
        -12    1    6    6    0    0 -0.32973582283E+02 -0.41897718400E+02 -0.91245137071E+02  0.10568041907E+03  0.00000000000E+00 0.  1.
         -5    1    5    5    0  503  0.71289409698E+02 -0.40298395444E+02 -0.16633663243E+01  0.82042655966E+02  0.47000000000E+01 0.  1.
<mgrwt>
<rscale>  2 0.19035249E+03</rscale>
<asrwt>0</asrwt>
<pdfrwt beam="1">  1       21 0.29119492E-01 0.19093690E+03</pdfrwt>
<pdfrwt beam="2">  1       21 0.32938071E-01 0.19093690E+03</pdfrwt>
<totfact> 0.10026732E+05</totfact>
</mgrwt>
</event>
<event>
12    1  0.1473662E-001  0.1902693E+03  0.7546771E-02  0.1158248E+00
         21   -1    0    0  504  503  0.00000000000E+00  0.00000000000E+00  0.48054787354E+03  0.48054787354E+03  0.00000000000E+00 0.  1.
         21   -1    0    0  502  504 -0.00000000000E+00 -0.00000000000E+00 -0.88129384899E+02  0.88129384899E+02  0.00000000000E+00 0.  1.
          6    2    1    2  502    0  0.36514275994E+02  0.69778597726E+02  0.87595839265E+02  0.20934558916E+03  0.17306125965E+03 0.  0.
         24    2    3    3    0    0 -0.18154992233E+02  0.50031513048E+02  0.11078301558E+03  0.14658882548E+03  0.79891496259E+02 0.  0.
         -6    2    1    2    0  503 -0.36514275994E+02 -0.69778597726E+02  0.30482264937E+03  0.35933166928E+03  0.17320524220E+03 0.  0.
        -24    2    5    5    0    0  0.42828481758E+02 -0.54880910103E+02  0.14577163758E+03  0.18090373241E+03  0.81428477407E+02 0.  0.
          2    1    4    4  501    0 -0.22794117296E+02 -0.15107751712E+02  0.16632480010E+02  0.32007113840E+02  0.00000000000E+00 0. -1.
         -1    1    4    4    0  501  0.46391250623E+01  0.65139264760E+02  0.94150535566E+02  0.11458171164E+03  0.00000000000E+00 0.  1.
          5    1    3    3  502    0  0.54669268228E+02  0.19747084678E+02 -0.23187176311E+02  0.62756763676E+02  0.47000000000E+01 0. -1.
         11    1    6    6    0    0  0.37782469545E+02 -0.19940438188E+02  0.14729487278E+02  0.45189532809E+02  0.00000000000E+00 0. -1.
        -12    1    6    6    0    0  0.50460122134E+01 -0.34940471915E+02  0.13104215030E+03  0.13571419960E+03  0.00000000000E+00 0.  1.
         -5    1    5    5    0  503 -0.79342757752E+02 -0.14897687623E+02  0.15905101179E+03  0.17842793687E+03  0.47000000000E+01 0.  1.
<mgrwt>
<rscale>  2 0.19023651E+03</rscale>
<asrwt>0</asrwt>
<pdfrwt beam="1">  1       21 0.73930441E-01 0.19026929E+03</pdfrwt>
<pdfrwt beam="2">  1       21 0.13558367E-01 0.19026929E+03</pdfrwt>
<totfact> 0.77432183E+04</totfact>
</mgrwt>
</event>
<event>
12    1  0.1473662E-001  0.1892685E+03  0.7546771E-02  0.1161834E+00
         21   -1    0    0  504  503  0.00000000000E+00  0.00000000000E+00  0.83314841498E+03  0.83314841498E+03  0.00000000000E+00 0.  1.
         21   -1    0    0  502  504 -0.00000000000E+00 -0.00000000000E+00 -0.42027659242E+02  0.42027659242E+02  0.00000000000E+00 0.  1.
          6    2    1    2  502    0 -0.66059969666E+02  0.29654461048E+02  0.32170783790E+03  0.37325395507E+03  0.17486930936E+03 0.  0.
         24    2    3    3    0    0 -0.59164509225E+01 -0.39144727148E+02  0.10492242872E+03  0.13794867511E+03  0.80335589003E+02 0.  0.
         -6    2    1    2    0  503  0.66059969666E+02 -0.29654461048E+02  0.46941291784E+03  0.50192211915E+03  0.16227760046E+03 0.  0.
        -24    2    5    5    0    0  0.30091032624E+02 -0.63071202116E+02  0.41347289069E+03  0.42734451090E+03  0.82341076511E+02 0.  0.
          4    1    4    4  501    0  0.19904805005E+02 -0.21918244153E+02  0.10263972477E+03  0.10682473398E+03  0.00000000000E+00 0. -1.
         -3    1    4    4    0  501 -0.25821255927E+02 -0.17226482996E+02  0.22827039513E+01  0.31123941129E+02  0.00000000000E+00 0.  1.
          5    1    3    3  502    0 -0.60143518743E+02  0.68799188196E+02  0.21678540918E+03  0.23530527996E+03  0.47000000000E+01 0. -1.
         11    1    6    6    0    0 -0.87334708364E+01  0.16941362312E+02  0.71737127145E+02  0.74225997339E+02  0.00000000000E+00 0. -1.
        -12    1    6    6    0    0  0.38824503460E+02 -0.80012564427E+02  0.34173576354E+03  0.35311851356E+03  0.00000000000E+00 0.  1.
         -5    1    5    5    0  503  0.35968937042E+02  0.33416741068E+02  0.55940027147E+02  0.74577608253E+02  0.47000000000E+01 0.  1.
<mgrwt>
<rscale>  2 0.18630768E+03</rscale>
<asrwt>0</asrwt>
<pdfrwt beam="1">  1       21 0.12817667E+00 0.18926854E+03</pdfrwt>
<pdfrwt beam="2">  1       21 0.64657944E-02 0.18926854E+03</pdfrwt>
<totfact> 0.77811617E+04</totfact>
</mgrwt>
</event>
<event>
12    1  0.1473662E-001  0.1949528E+03  0.7546771E-02  0.1154416E+00
         21   -1    0    0  504  503  0.00000000000E+00  0.00000000000E+00  0.17393842210E+03  0.17393842210E+03  0.00000000000E+00 0.  1.
         21   -1    0    0  502  504 -0.00000000000E+00 -0.00000000000E+00 -0.66975562078E+03  0.66975562078E+03  0.00000000000E+00 0.  1.
          6    2    1    2  502    0  0.83470254517E+02 -0.28785260305E+02 -0.59452213614E+03  0.62517800399E+03  0.17203224032E+03 0.  0.
         24    2    3    3    0    0  0.10591687792E+03  0.70182746112E+01 -0.53970265766E+03  0.55580214914E+03  0.79808703162E+02 0.  0.
         -6    2    1    2    0  503 -0.83470254517E+02  0.28785260305E+02  0.98704937459E+02  0.21851603888E+03  0.17381231248E+03 0.  0.
        -24    2    5    5    0    0  0.55958455712E+01 -0.32852509815E+02  0.33704681771E+02  0.92107541820E+02  0.78975900110E+02 0.  0.
          4    1    4    4  501    0  0.30058605466E+02 -0.23516987767E+02 -0.77114795976E+02  0.86042200313E+02  0.00000000000E+00 0. -1.
         -3    1    4    4    0  501  0.75858272456E+02  0.30535262379E+02 -0.46258786168E+03  0.46975994883E+03  0.00000000000E+00 0.  1.
          5    1    3    3  502    0 -0.22446623406E+02 -0.35803534916E+02 -0.54819478488E+02  0.69375854853E+02  0.47000000000E+01 0. -1.
         13    1    6    6    0    0  0.40233149586E+02 -0.12075162342E+02  0.44630202089E+01  0.42242566453E+02  0.00000000000E+00 0. -1.
        -14    1    6    6    0    0 -0.34637304015E+02 -0.20777347473E+02  0.29241661562E+02  0.49864975367E+02  0.00000000000E+00 0.  1.
         -5    1    5    5    0  503 -0.89066100088E+02  0.61637770120E+02  0.65000255688E+02  0.12640849706E+03  0.47000000000E+01 0.  1.
<mgrwt>
<rscale>  2 0.19455525E+03</rscale>
<asrwt>0</asrwt>
<pdfrwt beam="1">  1       21 0.26759758E-01 0.19495280E+03</pdfrwt>
<pdfrwt beam="2">  1       21 0.10303933E+00 0.19495280E+03</pdfrwt>
<totfact> 0.10146952E+04</totfact>
</mgrwt>
</event>
<event>
12    1  0.1473662E-001  0.3415590E+03  0.7546771E-02  0.1066226E+00
         21   -1    0    0  504  503  0.00000000000E+00  0.00000000000E+00  0.46313912360E+03  0.46313912360E+03  0.00000000000E+00 0.  1.
         21   -1    0    0  502  504 -0.00000000000E+00 -0.00000000000E+00 -0.33672062437E+03  0.33672062437E+03  0.00000000000E+00 0. -1.
          6    2    1    2  502    0 -0.29300463820E+03 -0.36127026707E+02  0.26463478463E+03  0.43139493119E+03  0.17003863490E+03 0.  0.
         24    2    3    3    0    0 -0.17441985873E+03  0.37824163685E+01  0.23315308405E+03  0.30228915658E+03  0.81128168891E+02 0.  0.
         -6    2    1    2    0  503  0.29300463820E+03  0.36127026707E+02 -0.13821628540E+03  0.36846481678E+03  0.17177223171E+03 0.  0.
        -24    2    5    5    0    0  0.59190481524E+02  0.40454265062E+02 -0.41912869319E+02  0.11551378831E+03  0.80291257371E+02 0.  0.
          4    1    4    4  501    0 -0.62723356516E+02  0.37276327384E+02  0.65376659900E+02  0.97968626078E+02  0.00000000000E+00 0. -1.
         -3    1    4    4    0  501 -0.11169650221E+03 -0.33493911016E+02  0.16777642415E+03  0.20432053050E+03  0.00000000000E+00 0.  1.
          5    1    3    3  502    0 -0.11858477947E+03 -0.39909443076E+02  0.31481700576E+02  0.12910577462E+03  0.47000000000E+01 0. -1.
         13    1    6    6    0    0  0.60233141304E+02 -0.11916203966E+01 -0.60560677823E+01  0.60548552646E+02  0.00000000000E+00 0. -1.
        -14    1    6    6    0    0 -0.10426597804E+01  0.41645885458E+02 -0.35856801537E+02  0.54965235663E+02  0.00000000000E+00 0.  1.
         -5    1    5    5    0  503  0.23381415668E+03 -0.43272383543E+01 -0.96303416083E+02  0.25295102847E+03  0.47000000000E+01 0.  1.
<mgrwt>
<rscale>  2 0.34134170E+03</rscale>
<asrwt>0</asrwt>
<pdfrwt beam="1">  1       21 0.71252173E-01 0.34155904E+03</pdfrwt>
<pdfrwt beam="2">  1       21 0.51803173E-01 0.34155904E+03</pdfrwt>
<totfact> 0.57883753E+03</totfact>
</mgrwt>
</event>
<event>
12    1  0.1473662E-001  0.1809110E+03  0.7546771E-02  0.1169616E+00
         21   -1    0    0  504  503  0.00000000000E+00  0.00000000000E+00  0.13884684992E+04  0.13884684992E+04  0.00000000000E+00 0. -1.
         21   -1    0    0  502  504 -0.00000000000E+00 -0.00000000000E+00 -0.45686392018E+02  0.45686392018E+02  0.00000000000E+00 0. -1.
          6    2    1    2  502    0 -0.55605131424E+02 -0.16047803144E+01  0.16722802200E+03  0.24636150275E+03  0.17214607963E+03 0.  0.
         24    2    3    3    0    0  0.12161265438E+02 -0.30888768537E+02  0.14471324548E+03  0.16903853287E+03  0.80808970897E+02 0.  0.
         -6    2    1    2    0  503  0.55605131424E+02  0.16047803144E+01  0.11755540851E+04  0.11877933884E+04  0.16072093998E+03 0.  0.
        -24    2    5    5    0    0  0.77225468271E+01  0.27666026846E+02  0.10103096008E+04  0.10137251257E+04  0.78026240915E+02 0.  0.
          2    1    4    4  501    0  0.36060902352E+02 -0.44396660056E+02  0.76577607074E+02  0.95580238584E+02  0.00000000000E+00 0. -1.
         -1    1    4    4    0  501 -0.23899636914E+02  0.13507891519E+02  0.68135638407E+02  0.73458294283E+02  0.00000000000E+00 0.  1.
          5    1    3    3  502    0 -0.67766396861E+02  0.29283988222E+02  0.22514776524E+02  0.77322969884E+02  0.47000000000E+01 0. -1.
         11    1    6    6    0    0  0.81654188081E+01  0.53833132127E+02  0.55515421516E+03  0.55781796564E+03  0.00000000000E+00 0. -1.
        -12    1    6    6    0    0 -0.44287198097E+00 -0.26167105281E+02  0.45515538567E+03  0.45590716011E+03  0.00000000000E+00 0.  1.
         -5    1    5    5    0  503  0.47882584596E+02 -0.26061246532E+02  0.16524448432E+03  0.17406826269E+03  0.47000000000E+01 0.  1.
<mgrwt>
<rscale>  2 0.17813908E+03</rscale>
<asrwt>0</asrwt>
<pdfrwt beam="1">  1       21 0.21361051E+00 0.18091097E+03</pdfrwt>
<pdfrwt beam="2">  1       21 0.70286768E-02 0.18091097E+03</pdfrwt>
<totfact> 0.16708627E+04</totfact>
</mgrwt>
</event>
<event>
12    1  0.1473662E-001  0.1773492E+03  0.7546771E-02  0.1170938E+00
         21   -1    0    0  504  503  0.00000000000E+00  0.00000000000E+00  0.52078218407E+02  0.52078218407E+02  0.00000000000E+00 0. -1.
         21   -1    0    0  502  504 -0.00000000000E+00 -0.00000000000E+00 -0.62351686258E+03  0.62351686258E+03  0.00000000000E+00 0. -1.
          6    2    1    2  502    0  0.28352727934E+02 -0.12228805031E+02 -0.35771587955E+03  0.39926604586E+03  0.17464049943E+03 0.  0.
         24    2    3    3    0    0 -0.48068995233E+02 -0.10712519299E+02 -0.24409283744E+03  0.26224464391E+03  0.82252985342E+02 0.  0.
         -6    2    1    2    0  503 -0.28352727934E+02  0.12228805031E+02 -0.21372276463E+03  0.27632903513E+03  0.17241489113E+03 0.  0.
        -24    2    5    5    0    0 -0.34723210020E+02  0.54225200001E+02 -0.67450261463E+02  0.12394132101E+03  0.81644593535E+02 0.  0.
          2    1    4    4  501    0 -0.44925141526E+02 -0.96672281987E+01 -0.49196964313E+02  0.67320613038E+02  0.00000000000E+00 0. -1.
         -1    1    4    4    0  501 -0.31438537068E+01 -0.10452911003E+01 -0.19489587313E+03  0.19492403087E+03  0.00000000000E+00 0.  1.
          5    1    3    3  502    0  0.76421723167E+02 -0.15162857322E+01 -0.11362304211E+03  0.13702140195E+03  0.47000000000E+01 0. -1.
         11    1    6    6    0    0  0.50333405171E+01 -0.95841115151E+01 -0.43814912338E+02  0.45132430175E+02  0.00000000000E+00 0. -1.
        -12    1    6    6    0    0 -0.39756550537E+02  0.63809311516E+02 -0.23635349125E+02  0.78808890838E+02  0.00000000000E+00 0.  1.
         -5    1    5    5    0  503  0.63704820863E+01 -0.41996394970E+02 -0.14627250316E+03  0.15238771412E+03  0.47000000000E+01 0.  1.
<mgrwt>
<rscale>  2 0.17679881E+03</rscale>
<asrwt>0</asrwt>
<pdfrwt beam="1">  1       21 0.80120342E-02 0.17734916E+03</pdfrwt>
<pdfrwt beam="2">  1       21 0.95925664E-01 0.17734916E+03</pdfrwt>
<totfact> 0.10904469E+05</totfact>
</mgrwt>
</event>
<event>
12    1  0.1473662E-001  0.1905155E+03  0.7546771E-02  0.1158049E+00
         21   -1    0    0  504  503  0.00000000000E+00  0.00000000000E+00  0.87906626345E+02  0.87906626345E+02  0.00000000000E+00 0. -1.
         21   -1    0    0  502  504 -0.00000000000E+00 -0.00000000000E+00 -0.77329196598E+03  0.77329196598E+03  0.00000000000E+00 0. -1.
          6    2    1    2  502    0 -0.12746238605E+02  0.76963227120E+02 -0.63674858628E+03  0.66457283954E+03  0.17355832449E+03 0.  0.
         24    2    3    3    0    0  0.65493906742E+01  0.95712478535E+02 -0.61635474409E+03  0.63048685214E+03  0.91742722284E+02 0.  0.
         -6    2    1    2    0  503  0.12746238605E+02 -0.76963227120E+02 -0.48636753357E+02  0.19662575278E+03  0.17381124231E+03 0.  0.
        -24    2    5    5    0    0 -0.40833776826E+02 -0.93239817735E+02 -0.53495775198E+02  0.14022144844E+03  0.80244599175E+02 0.  0.
          4    1    4    4  501    0 -0.47074995127E+01  0.56800362411E+02 -0.54855452470E+03  0.55150748707E+03  0.00000000000E+00 0. -1.
         -3    1    4    4    0  501  0.11256890187E+02  0.38912116124E+02 -0.67800219392E+02  0.78979365074E+02  0.00000000000E+00 0.  1.
          5    1    3    3  502    0 -0.19295629279E+02 -0.18749251415E+02 -0.20393842187E+02  0.34085987400E+02  0.47000000000E+01 0. -1.
         13    1    6    6    0    0  0.19712766254E+02 -0.53946012725E+02 -0.23384086610E+02  0.62012748278E+02  0.00000000000E+00 0. -1.
        -14    1    6    6    0    0 -0.60546543080E+02 -0.39293805010E+02 -0.30111688588E+02  0.78208700160E+02  0.00000000000E+00 0.  1.
         -5    1    5    5    0  503  0.53580015431E+02  0.16276590615E+02  0.48590218416E+01  0.56404304347E+02  0.47000000000E+01 0.  1.
<mgrwt>
<rscale>  2 0.19045779E+03</rscale>
<asrwt>0</asrwt>
<pdfrwt beam="1">  1       21 0.13524096E-01 0.19051549E+03</pdfrwt>
<pdfrwt beam="2">  1       21 0.11896799E+00 0.19051549E+03</pdfrwt>
<totfact> 0.25571211E+04</totfact>
</mgrwt>
</event>
<event>
12    1  0.1473662E-001  0.2030273E+03  0.7546771E-02  0.1147451E+00
         21   -1    0    0  504  503  0.00000000000E+00  0.00000000000E+00  0.79049773215E+02  0.79049773215E+02  0.00000000000E+00 0. -1.
         21   -1    0    0  502  504 -0.00000000000E+00 -0.00000000000E+00 -0.53398220149E+03  0.53398220149E+03  0.00000000000E+00 0. -1.
          6    2    1    2  502    0 -0.33841573556E+02  0.98036052831E+02 -0.17584888405E+03  0.26859436283E+03  0.17453876924E+03 0.  0.
         24    2    3    3    0    0  0.12281326208E+00  0.10735104406E+03 -0.59555571207E+02  0.14699430837E+03  0.80846761752E+02 0.  0.
         -6    2    1    2    0  503  0.33841573556E+02 -0.98036052831E+02 -0.27908354423E+03  0.34443761188E+03  0.17318580791E+03 0.  0.
        -24    2    5    5    0    0 -0.47130010564E+02 -0.50061799633E+02 -0.17259178135E+03  0.20223876531E+03  0.79907280805E+02 0.  0.
          2    1    4    4  501    0 -0.33937872797E+02  0.28397592591E+02 -0.38044458914E+02  0.58357375961E+02  0.00000000000E+00 0. -1.
         -1    1    4    4    0  501  0.34060686059E+02  0.78953451472E+02 -0.21511112293E+02  0.88636932405E+02  0.00000000000E+00 0.  1.
          5    1    3    3  502    0 -0.33964386818E+02 -0.93149912324E+01 -0.11629331284E+03  0.12160005446E+03  0.47000000000E+01 0. -1.
         13    1    6    6    0    0 -0.95069202872E+00 -0.34371157387E+02 -0.13857116142E+03  0.14277341157E+03  0.00000000000E+00 0. -1.
        -14    1    6    6    0    0 -0.46179318535E+02 -0.15690642247E+02 -0.34020619935E+02  0.59465353739E+02  0.00000000000E+00 0.  1.
         -5    1    5    5    0  503  0.80971584120E+02 -0.47974253197E+02 -0.10649176287E+03  0.14219884657E+03  0.47000000000E+01 0.  1.
<mgrwt>
<rscale>  2 0.20273623E+03</rscale>
<asrwt>0</asrwt>
<pdfrwt beam="1">  1       21 0.12161504E-01 0.20302734E+03</pdfrwt>
<pdfrwt beam="2">  1       21 0.82151106E-01 0.20302734E+03</pdfrwt>
<totfact> 0.73852366E+04</totfact>
</mgrwt>
</event>
<event>
12    1  0.1473662E-001  0.1797749E+03  0.7546771E-02  0.1168174E+00
         21   -1    0    0  504  503  0.00000000000E+00  0.00000000000E+00  0.66216906435E+02  0.66216906435E+02  0.00000000000E+00 0.  1.
         21   -1    0    0  502  504 -0.00000000000E+00 -0.00000000000E+00 -0.98329127382E+03  0.98329127382E+03  0.00000000000E+00 0.  1.
          6    2    1    2  502    0 -0.98517904870E+01 -0.40734027977E+02 -0.83198041810E+03  0.85118178351E+03  0.17482189128E+03 0.  0.
         24    2    3    3    0    0 -0.60983529997E+02 -0.42552595588E+02 -0.71133855187E+03  0.72005470065E+03  0.83345799083E+02 0.  0.
         -6    2    1    2    0  503  0.98517904870E+01  0.40734027977E+02 -0.85093949289E+02  0.19832639675E+03  0.17417250251E+03 0.  0.
        -24    2    5    5    0    0 -0.57470426464E+02  0.38157603003E+02 -0.25035737621E+02  0.10794942153E+03  0.79167145111E+02 0.  0.
          2    1    4    4  501    0 -0.47393055447E+02 -0.59899242998E+02 -0.35938900299E+03  0.36741594479E+03  0.00000000000E+00 0. -1.
         -1    1    4    4    0  501 -0.13590474551E+02  0.17346647410E+02 -0.35194954889E+03  0.35263875586E+03  0.00000000000E+00 0.  1.
          5    1    3    3  502    0  0.51131739510E+02  0.18185676113E+01 -0.12064186622E+03  0.13112708286E+03  0.47000000000E+01 0. -1.
         11    1    6    6    0    0 -0.33587622136E+02  0.42864238050E+02 -0.49388702124E+02  0.73516767896E+02  0.00000000000E+00 0. -1.
        -12    1    6    6    0    0 -0.23882804328E+02 -0.47066350469E+01  0.24352964503E+02  0.34432653632E+02  0.00000000000E+00 0.  1.
         -5    1    5    5    0  503  0.67322216951E+02  0.25764249732E+01 -0.60058211668E+02  0.90376975218E+02  0.47000000000E+01 0.  1.
<mgrwt>
<rscale>  2 0.17961683E+03</rscale>
<asrwt>0</asrwt>
<pdfrwt beam="1">  1       21 0.10187216E-01 0.17977489E+03</pdfrwt>
<pdfrwt beam="2">  1       21 0.15127559E+00 0.17977489E+03</pdfrwt>
<totfact> 0.23150456E+04</totfact>
</mgrwt>
</event>
<event>
12    1  0.1473662E-001  0.1967654E+03  0.7546771E-02  0.1154588E+00
         21   -1    0    0  504  503  0.00000000000E+00  0.00000000000E+00  0.15314959890E+03  0.15314959890E+03  0.00000000000E+00 0.  1.
         21   -1    0    0  502  504 -0.00000000000E+00 -0.00000000000E+00 -0.30687259921E+03  0.30687259921E+03  0.00000000000E+00 0.  1.
          6    2    1    2  502    0 -0.13495738648E+02 -0.94477389248E+02  0.31325101596E+02  0.18991215292E+03  0.16117460034E+03 0.  0.
         24    2    3    3    0    0 -0.26445311899E+02 -0.11182349077E+03 -0.13785187571E+02  0.13965673656E+03  0.78167288939E+02 0.  0.
         -6    2    1    2    0  503  0.13495738648E+02  0.94477389248E+02 -0.18504810191E+03  0.27011004519E+03  0.17207127724E+03 0.  0.
        -24    2    5    5    0    0 -0.10487680528E+02 -0.35130530253E+01 -0.36272328431E+02  0.90294439784E+02  0.81945537168E+02 0.  0.
          4    1    4    4  501    0 -0.53059552562E+02 -0.64145180946E+02 -0.16978652101E+02  0.84959961064E+02  0.00000000000E+00 0. -1.
         -3    1    4    4    0  501  0.26614240663E+02 -0.47678309822E+02  0.31934645298E+01  0.54696775492E+02  0.00000000000E+00 0.  1.
          5    1    3    3  502    0  0.12949573251E+02  0.17346101520E+02  0.45110289166E+02  0.50255416365E+02  0.47000000000E+01 0. -1.
         13    1    6    6    0    0 -0.20295416770E+02  0.33191172278E+02 -0.17235753634E+01  0.38942631794E+02  0.00000000000E+00 0. -1.
        -14    1    6    6    0    0  0.98077362424E+01 -0.36704225303E+02 -0.34548753068E+02  0.51351807990E+02  0.00000000000E+00 0.  1.
         -5    1    5    5    0  503  0.23983419176E+02  0.97990442273E+02 -0.14877577348E+03  0.17981560540E+03  0.47000000000E+01 0.  1.
<mgrwt>
<rscale>  2 0.19435797E+03</rscale>
<asrwt>0</asrwt>
<pdfrwt beam="1">  1       21 0.23561477E-01 0.19676544E+03</pdfrwt>
<pdfrwt beam="2">  1       21 0.47211169E-01 0.19676544E+03</pdfrwt>
<totfact> 0.72653027E+04</totfact>
</mgrwt>
</event>
<event>
12    1  0.1473662E-001  0.1957051E+03  0.7546771E-02  0.1153423E+00
         21   -1    0    0  504  503  0.00000000000E+00  0.00000000000E+00  0.52850477559E+02  0.52850477559E+02  0.00000000000E+00 0.  1.
         21   -1    0    0  502  504 -0.00000000000E+00 -0.00000000000E+00 -0.18745469954E+04  0.18745469954E+04  0.00000000000E+00 0.  1.
          6    2    1    2  502    0  0.11611179554E+02 -0.86687911102E+02 -0.16657077187E+04  0.16771650778E+04  0.17507392907E+03 0.  0.
         24    2    3    3    0    0  0.54914925656E+02 -0.42620169238E+02 -0.14228287862E+04  0.14265070515E+04  0.75156405208E+02 0.  0.
         -6    2    1    2    0  503 -0.11611179554E+02  0.86687911102E+02 -0.15598879908E+03  0.25023239510E+03  0.17502609147E+03 0.  0.
        -24    2    5    5    0    0  0.47830229465E+02  0.86114977263E+02 -0.13892640473E+03  0.18820961976E+03  0.80117381887E+02 0.  0.
          2    1    4    4  501    0  0.68442817599E+02 -0.51320019020E+02 -0.11275218597E+04  0.11307624453E+04  0.00000000000E+00 0. -1.
         -1    1    4    4    0  501 -0.13527891942E+02  0.86998497822E+01 -0.29530692645E+03  0.29574460613E+03  0.00000000000E+00 0.  1.
          5    1    3    3  502    0 -0.43303746102E+02 -0.44067741864E+02 -0.24287893254E+03  0.25065802634E+03  0.47000000000E+01 0. -1.
         13    1    6    6    0    0 -0.13848606640E+02  0.10268590929E+02 -0.60413467152E+02  0.62825272612E+02  0.00000000000E+00 0. -1.
        -14    1    6    6    0    0  0.61678836105E+02  0.75846386335E+02 -0.78512937578E+02  0.12538434715E+03  0.00000000000E+00 0.  1.
         -5    1    5    5    0  503 -0.59441409020E+02  0.57293383905E+00 -0.17062394355E+02  0.62022775337E+02  0.47000000000E+01 0.  1.
<mgrwt>
<rscale>  2 0.19569442E+03</rscale>
<asrwt>0</asrwt>
<pdfrwt beam="1">  1       21 0.81308423E-02 0.19570512E+03</pdfrwt>
<pdfrwt beam="2">  1       21 0.28839186E+00 0.19570512E+03</pdfrwt>
<totfact> 0.46283986E+03</totfact>
</mgrwt>
</event>
<event>
12    1  0.1473662E-001  0.1957629E+03  0.7546771E-02  0.1153814E+00
         21   -1    0    0  504  503  0.00000000000E+00  0.00000000000E+00  0.64763417925E+02  0.64763417925E+02  0.00000000000E+00 0. -1.
         21   -1    0    0  502  504 -0.00000000000E+00 -0.00000000000E+00 -0.31287440301E+04  0.31287440301E+04  0.00000000000E+00 0. -1.
          6    2    1    2  502    0 -0.64005306736E+01  0.89633445961E+02 -0.29700787255E+04  0.29763883861E+04  0.17159565193E+03 0.  0.
         24    2    3    3    0    0 -0.32490925121E+01 -0.21238988550E+02 -0.99371129894E+03  0.99690539221E+03  0.76789088673E+02 0.  0.
         -6    2    1    2    0  503  0.64005306736E+01 -0.89633445961E+02 -0.93901886724E+02  0.21711906198E+03  0.17391952541E+03 0.  0.
        -24    2    5    5    0    0  0.16623180202E+02 -0.11249045560E+03 -0.22336430971E+02  0.14115426810E+03  0.80592670455E+02 0.  0.
          4    1    4    4  501    0  0.10308369790E+02 -0.41891664359E+02 -0.84938703766E+03  0.85048193030E+03  0.00000000000E+00 0. -1.
         -3    1    4    4    0  501 -0.13557462302E+02  0.20652675810E+02 -0.14432426128E+03  0.14642346190E+03  0.00000000000E+00 0.  1.
          5    1    3    3  502    0 -0.31514381615E+01  0.11087243451E+03 -0.19763674265E+04  0.19794829938E+04  0.47000000000E+01 0. -1.
         11    1    6    6    0    0 -0.21430319546E+02 -0.57689978174E+02 -0.38388663314E+02  0.72533314061E+02  0.00000000000E+00 0. -1.
        -12    1    6    6    0    0  0.38053499747E+02 -0.54800477430E+02  0.16052232343E+02  0.68620954036E+02  0.00000000000E+00 0.  1.
         -5    1    5    5    0  503 -0.10222649528E+02  0.22857009644E+02 -0.71565455753E+02  0.75964793888E+02  0.47000000000E+01 0.  1.
<mgrwt>
<rscale>  2 0.19524547E+03</rscale>
<asrwt>0</asrwt>
<pdfrwt beam="1">  1       21 0.99636028E-02 0.19576292E+03</pdfrwt>
<pdfrwt beam="2">  1       21 0.48134523E+00 0.19576292E+03</pdfrwt>
<totfact> 0.20743685E+02</totfact>
</mgrwt>
</event>
<event>
12    1  0.1473662E-001  0.2625973E+03  0.7546771E-02  0.1107093E+00
         21   -1    0    0  504  503  0.00000000000E+00  0.00000000000E+00  0.19085396327E+04  0.19085396327E+04  0.00000000000E+00 0.  1.
         21   -1    0    0  502  504 -0.00000000000E+00 -0.00000000000E+00 -0.10445924582E+03  0.10445924582E+03  0.00000000000E+00 0.  1.
          6    2    1    2  502    0  0.11250155610E+03  0.14548560147E+03  0.74278921675E+02  0.26337879675E+03  0.17328696434E+03 0.  0.
         24    2    3    3    0    0  0.14673647593E+03  0.98536903088E+02  0.52496907753E+02  0.20114732444E+03  0.80394067988E+02 0.  0.
         -6    2    1    2    0  503 -0.11250155610E+03 -0.14548560147E+03  0.17298014652E+04  0.17496200818E+04  0.18744242084E+03 0.  0.
        -24    2    5    5    0    0  0.12513202957E+02 -0.42104560728E+02  0.41582335883E+03  0.42565751296E+03  0.79661021253E+02 0.  0.
          4    1    4    4  501    0  0.10994168208E+03  0.10630158382E+03  0.25947150096E+02  0.15511432809E+03  0.00000000000E+00 0. -1.
         -3    1    4    4    0  501  0.36794793843E+02 -0.77646807317E+01  0.26549757657E+02  0.46032996345E+02  0.00000000000E+00 0.  1.
          5    1    3    3  502    0 -0.34234919826E+02  0.46948698382E+02  0.21782013922E+02  0.62231472309E+02  0.47000000000E+01 0. -1.
         11    1    6    6    0    0 -0.47105982200E+01 -0.19998565706E+02  0.19441030459E+02  0.28285792038E+02  0.00000000000E+00 0. -1.
        -12    1    6    6    0    0  0.17223801177E+02 -0.22105995022E+02  0.39638232837E+03  0.39737172092E+03  0.00000000000E+00 0.  1.
         -5    1    5    5    0  503 -0.12501475906E+03 -0.10338104074E+03  0.13139781064E+04  0.13239625688E+04  0.47000000000E+01 0.  1.
<mgrwt>
<rscale>  2 0.26008400E+03</rscale>
<asrwt>0</asrwt>
<pdfrwt beam="1">  1       21 0.29362146E+00 0.26259726E+03</pdfrwt>
<pdfrwt beam="2">  1       21 0.16070655E-01 0.26259726E+03</pdfrwt>
<totfact> 0.11875693E+03</totfact>
</mgrwt>
</event>
<event>
12    1  0.1473662E-001  0.2939564E+03  0.7546771E-02  0.1088365E+00
         21   -1    0    0  504  503  0.00000000000E+00  0.00000000000E+00  0.63286001065E+03  0.63286001065E+03  0.00000000000E+00 0. -1.
         21   -1    0    0  502  504 -0.00000000000E+00 -0.00000000000E+00 -0.15882936482E+03  0.15882936482E+03  0.00000000000E+00 0.  1.
          6    2    1    2  502    0  0.22699389563E+03 -0.68331703526E+02  0.88132657273E+02  0.30688393396E+03  0.17382443237E+03 0.  0.
         24    2    3    3    0    0  0.18396032924E+03 -0.10942032482E+03  0.46335153932E+02  0.23401910073E+03  0.82485045935E+02 0.  0.
         -6    2    1    2    0  503 -0.22699389563E+03  0.68331703526E+02  0.38589798856E+03  0.48480544150E+03  0.17298441598E+03 0.  0.
        -24    2    5    5    0    0 -0.22641555986E+03  0.41833623245E+02  0.38853268139E+03  0.45775891978E+03  0.74642657691E+02 0.  0.
          2    1    4    4  501    0  0.83047826531E+02 -0.70704182489E+02  0.60961637874E+02  0.12494936657E+03  0.00000000000E+00 0. -1.
         -1    1    4    4    0  501  0.10091250271E+03 -0.38716142328E+02 -0.14626483942E+02  0.10906973417E+03  0.00000000000E+00 0.  1.
          5    1    3    3  502    0  0.43033566393E+02  0.41088621291E+02  0.41797503341E+02  0.72864833230E+02  0.47000000000E+01 0. -1.
         13    1    6    6    0    0 -0.14580239221E+03  0.55600620440E+02  0.29333310893E+03  0.33225604489E+03  0.00000000000E+00 0. -1.
        -14    1    6    6    0    0 -0.80613167642E+02 -0.13766997195E+02  0.95199572464E+02  0.12550287489E+03  0.00000000000E+00 0.  1.
         -5    1    5    5    0  503 -0.57833577422E+00  0.26498080281E+02 -0.26346928347E+01  0.27046521720E+02  0.47000000000E+01 0.  1.
<mgrwt>
<rscale>  2 0.29383237E+03</rscale>
<asrwt>0</asrwt>
<pdfrwt beam="1">  1       21 0.97363077E-01 0.29395643E+03</pdfrwt>
<pdfrwt beam="2">  1       21 0.24435287E-01 0.29395643E+03</pdfrwt>
<totfact> 0.13077832E+04</totfact>
</mgrwt>
</event>
<event>
12    1  0.1473662E-001  0.2110472E+03  0.7546771E-02  0.1140948E+00
         21   -1    0    0  504  503  0.00000000000E+00  0.00000000000E+00  0.12359122465E+03  0.12359122465E+03  0.00000000000E+00 0. -1.
         21   -1    0    0  502  504 -0.00000000000E+00 -0.00000000000E+00 -0.60108485993E+03  0.60108485993E+03  0.00000000000E+00 0. -1.
          6    2    1    2  502    0 -0.11816466895E+03 -0.15391653077E+02 -0.46853469046E+03  0.51343882216E+03  0.17290134750E+03 0.  0.
         24    2    3    3    0    0 -0.12683863045E+03 -0.55231803734E+02 -0.29965389722E+03  0.33964213768E+03  0.80160671457E+02 0.  0.
         -6    2    1    2    0  503  0.11816466895E+03  0.15391653077E+02 -0.89589448230E+01  0.21123726242E+03  0.17418704420E+03 0.  0.
        -24    2    5    5    0    0  0.12996729751E+03 -0.56869685628E+01  0.33924537996E+02  0.16179342125E+03  0.90013314828E+02 0.  0.
          4    1    4    4  501    0 -0.11352303225E+03 -0.26328346557E+02 -0.16978491576E+03  0.20593100374E+03  0.00000000000E+00 0. -1.
         -3    1    4    4    0  501 -0.13315598204E+02 -0.28903457178E+02 -0.12986898146E+03  0.13371113394E+03  0.00000000000E+00 0.  1.
          5    1    3    3  502    0  0.86739615022E+01  0.39840150657E+02 -0.16888079324E+03  0.17379668449E+03  0.47000000000E+01 0. -1.
         11    1    6    6    0    0  0.12054404899E+02 -0.34185089852E+02  0.14011998059E+02  0.38862129835E+02  0.00000000000E+00 0. -1.
        -12    1    6    6    0    0  0.11791289261E+03  0.28498121290E+02  0.19912539937E+02  0.12293129141E+03  0.00000000000E+00 0.  1.
         -5    1    5    5    0  503 -0.11802628560E+02  0.21078621640E+02 -0.42883482819E+02  0.49443841172E+02  0.47000000000E+01 0.  1.
<mgrwt>
<rscale>  2 0.21078172E+03</rscale>
<asrwt>0</asrwt>
<pdfrwt beam="1">  1       21 0.19014034E-01 0.21104719E+03</pdfrwt>
<pdfrwt beam="2">  1       21 0.92474594E-01 0.21104719E+03</pdfrwt>
<totfact> 0.24753646E+04</totfact>
</mgrwt>
</event>
<event>
12    1  0.1473662E-001  0.1972571E+03  0.7546771E-02  0.1152240E+00
         21   -1    0    0  504  503  0.00000000000E+00  0.00000000000E+00  0.47707287389E+03  0.47707287389E+03  0.00000000000E+00 0.  1.
         21   -1    0    0  502  504 -0.00000000000E+00 -0.00000000000E+00 -0.82436688373E+02  0.82436688373E+02  0.00000000000E+00 0. -1.
          6    2    1    2  502    0 -0.45946491496E+02  0.80912454747E+02  0.23138277951E+03  0.30405319661E+03  0.17393231528E+03 0.  0.
         24    2    3    3    0    0  0.36591430549E+02  0.62220472763E+02  0.97644748667E+02  0.14571858365E+03  0.80554879795E+02 0.  0.
         -6    2    1    2    0  503  0.45946491496E+02 -0.80912454747E+02  0.16325340600E+03  0.25545636565E+03  0.17305598737E+03 0.  0.
        -24    2    5    5    0    0 -0.13396952817E+02 -0.21931832158E+02  0.14998198258E+02  0.85156468859E+02  0.79788436699E+02 0.  0.
          4    1    4    4  501    0  0.29343292808E+02  0.14500716624E+02 -0.42155814140E+01  0.33001071832E+02  0.00000000000E+00 0. -1.
         -3    1    4    4    0  501  0.72481377417E+01  0.47719756139E+02  0.10186033008E+03  0.11271751182E+03  0.00000000000E+00 0.  1.
          5    1    3    3  502    0 -0.82537922045E+02  0.18691981984E+02  0.13373803084E+03  0.15833461295E+03  0.47000000000E+01 0. -1.
         11    1    6    6    0    0  0.33554554982E+02 -0.11382653664E+02  0.29884775310E+01  0.35558458381E+02  0.00000000000E+00 0. -1.
        -12    1    6    6    0    0 -0.46951507798E+02 -0.10549178494E+02  0.12009720727E+02  0.49598010478E+02  0.00000000000E+00 0.  1.
         -5    1    5    5    0  503  0.59343444313E+02 -0.58980622589E+02  0.14825520775E+03  0.17029989679E+03  0.47000000000E+01 0.  1.
<mgrwt>
<rscale>  2 0.19706373E+03</rscale>
<asrwt>0</asrwt>
<pdfrwt beam="1">  1       21 0.73395825E-01 0.19725708E+03</pdfrwt>
<pdfrwt beam="2">  1       21 0.12682568E-01 0.19725708E+03</pdfrwt>
<totfact> 0.88487853E+04</totfact>
</mgrwt>
</event>
<event>
12    1  0.1473662E-001  0.2266349E+03  0.7546771E-02  0.1131929E+00
         21   -1    0    0  504  503  0.00000000000E+00  0.00000000000E+00  0.21518669701E+03  0.21518669701E+03  0.00000000000E+00 0.  1.
         21   -1    0    0  502  504 -0.00000000000E+00 -0.00000000000E+00 -0.26056036170E+03  0.26056036170E+03  0.00000000000E+00 0.  1.
          6    2    1    2  502    0  0.44913874839E+02 -0.13212045361E+03 -0.11413578308E+03  0.25375252396E+03  0.17857854301E+03 0.  0.
         24    2    3    3    0    0  0.96668546649E+02 -0.65134977732E+02 -0.74460554121E+02  0.16014796304E+03  0.80719407264E+02 0.  0.
         -6    2    1    2    0  503 -0.44913874839E+02  0.13212045361E+03  0.68762118394E+02  0.22199453475E+03  0.15836752861E+03 0.  0.
        -24    2    5    5    0    0 -0.46271868202E+02  0.10927167727E+03 -0.96678177338E+01  0.14015777279E+03  0.73955049424E+02 0.  0.
          4    1    4    4  501    0  0.84577269249E+02 -0.98527671423E+01 -0.46741015966E+02  0.97134515325E+02  0.00000000000E+00 0. -1.
         -3    1    4    4    0  501  0.12091277400E+02 -0.55282210590E+02 -0.27719538155E+02  0.63013447711E+02  0.00000000000E+00 0.  1.
          5    1    3    3  502    0 -0.51754671811E+02 -0.66985475879E+02 -0.39675228957E+02  0.93604560924E+02  0.47000000000E+01 0. -1.
         13    1    6    6    0    0 -0.21223729506E+02  0.96351817198E+02 -0.32509878199E+02  0.10387979376E+03  0.00000000000E+00 0. -1.
        -14    1    6    6    0    0 -0.25048138696E+02  0.12919860069E+02  0.22842060466E+02  0.36277979032E+02  0.00000000000E+00 0.  1.
         -5    1    5    5    0  503  0.13579933634E+01  0.22848776344E+02  0.78429936128E+02  0.81836761956E+02  0.47000000000E+01 0.  1.
<mgrwt>
<rscale>  2 0.22264097E+03</rscale>
<asrwt>0</asrwt>
<pdfrwt beam="1">  1       21 0.33105646E-01 0.22663487E+03</pdfrwt>
<pdfrwt beam="2">  1       21 0.40086209E-01 0.22663487E+03</pdfrwt>
<totfact> 0.51866173E+04</totfact>
</mgrwt>
</event>
<event>
12    1  0.1473662E-001  0.1726148E+03  0.7546771E-02  0.1175406E+00
         21   -1    0    0  504  503  0.00000000000E+00  0.00000000000E+00  0.12499273817E+03  0.12499273817E+03  0.00000000000E+00 0. -1.
         21   -1    0    0  502  504 -0.00000000000E+00 -0.00000000000E+00 -0.26925949141E+03  0.26925949141E+03  0.00000000000E+00 0. -1.
          6    2    1    2  502    0  0.10189902043E+02  0.96263433661E+01 -0.40806166010E+01  0.17266307599E+03  0.17204472032E+03 0.  0.
         24    2    3    3    0    0 -0.24209725699E+02  0.73140789274E+02  0.21862221203E+02  0.95770032997E+02  0.52519107287E+02 0.  0.
         -6    2    1    2    0  503 -0.10189902043E+02 -0.96263433661E+01 -0.14018613664E+03  0.22158915358E+03  0.17103537496E+03 0.  0.
        -24    2    5    5    0    0  0.67300195745E+01 -0.35162587216E+02 -0.10133988211E+02  0.87895343668E+02  0.79631608161E+02 0.  0.
          4    1    4    4  501    0 -0.55889337758E+01  0.34097410498E+02 -0.16191015040E+02  0.38157811146E+02  0.00000000000E+00 0. -1.
         -3    1    4    4    0  501 -0.18620791923E+02  0.39043378776E+02  0.38053236243E+02  0.57612221851E+02  0.00000000000E+00 0.  1.
          5    1    3    3  502    0  0.34399627742E+02 -0.63514445908E+02 -0.25942837804E+02  0.76893042995E+02  0.47000000000E+01 0. -1.
         11    1    6    6    0    0 -0.32878520265E+02  0.15685034735E+00  0.36077453960E+01  0.33076238052E+02  0.00000000000E+00 0. -1.
        -12    1    6    6    0    0  0.39608539839E+02 -0.35319437563E+02 -0.13741733607E+02  0.54819105616E+02  0.00000000000E+00 0.  1.
         -5    1    5    5    0  503 -0.16919921617E+02  0.25536243850E+02 -0.13005214843E+03  0.13369380991E+03  0.47000000000E+01 0.  1.
<mgrwt>
<rscale>  2 0.17236280E+03</rscale>
<asrwt>0</asrwt>
<pdfrwt beam="1">  1       21 0.19229652E-01 0.17261485E+03</pdfrwt>
<pdfrwt beam="2">  1       21 0.41424537E-01 0.17261485E+03</pdfrwt>
<totfact> 0.14031218E+05</totfact>
</mgrwt>
</event>
<event>
12    1  0.1473662E-001  0.2290223E+03  0.7546771E-02  0.1127648E+00
         21   -1    0    0  504  503  0.00000000000E+00  0.00000000000E+00  0.20185745262E+03  0.20185745262E+03  0.00000000000E+00 0. -1.
         21   -1    0    0  502  504 -0.00000000000E+00 -0.00000000000E+00 -0.26391391513E+03  0.26391391513E+03  0.00000000000E+00 0.  1.
          6    2    1    2  502    0 -0.97204636829E+02  0.11423725523E+03 -0.66312477340E+02  0.23670953655E+03  0.17069026961E+03 0.  0.
         24    2    3    3    0    0 -0.65941794751E+02  0.14227745958E+03 -0.37774433836E+02  0.18571808352E+03  0.92049458951E+02 0.  0.
         -6    2    1    2    0  503  0.97204636829E+02 -0.11423725523E+03  0.42560148326E+01  0.22906183120E+03  0.17306737690E+03 0.  0.
        -24    2    5    5    0    0  0.81074872124E+01 -0.11213922456E+03  0.18760924603E+02  0.13864509486E+03  0.78927517393E+02 0.  0.
          4    1    4    4  501    0 -0.53460452048E+02  0.18134237184E+02 -0.47465371507E+01  0.56651567554E+02  0.00000000000E+00 0. -1.
         -3    1    4    4    0  501 -0.12481342703E+02  0.12414322240E+03 -0.33027896685E+02  0.12906651596E+03  0.00000000000E+00 0.  1.
          5    1    3    3  502    0 -0.31262842077E+02 -0.28040204355E+02 -0.28538043504E+02  0.50991453030E+02  0.47000000000E+01 0. -1.
         11    1    6    6    0    0  0.40766691986E+02 -0.58519546949E+02 -0.50513943124E+01  0.71498091828E+02  0.00000000000E+00 0. -1.
        -12    1    6    6    0    0 -0.32659204773E+02 -0.53619677615E+02  0.23812318915E+02  0.67147003031E+02  0.00000000000E+00 0.  1.
         -5    1    5    5    0  503  0.89097149616E+02 -0.20980306654E+01 -0.14504909770E+02  0.90416736337E+02  0.47000000000E+01 0.  1.
<mgrwt>
<rscale>  2 0.22857322E+03</rscale>
<asrwt>0</asrwt>
<pdfrwt beam="1">  1       21 0.31054993E-01 0.22902229E+03</pdfrwt>
<pdfrwt beam="2">  1       21 0.40602141E-01 0.22902229E+03</pdfrwt>
<totfact> 0.57270327E+04</totfact>
</mgrwt>
</event>
<event>
12    1  0.1473662E-001  0.1821899E+03  0.7546771E-02  0.1165927E+00
         21   -1    0    0  504  503  0.00000000000E+00  0.00000000000E+00  0.79774476081E+03  0.79774476081E+03  0.00000000000E+00 0. -1.
         21   -1    0    0  502  504 -0.00000000000E+00 -0.00000000000E+00 -0.88277748870E+02  0.88277748870E+02  0.00000000000E+00 0. -1.
          6    2    1    2  502    0  0.34830075647E+02 -0.56081737445E+02  0.32312373977E+02  0.18503309121E+03  0.16980830335E+03 0.  0.
         24    2    3    3    0    0  0.86204882024E+02 -0.35102625635E+02  0.38476024284E+01  0.12248849047E+03  0.79530813153E+02 0.  0.
         -6    2    1    2    0  503 -0.34830075647E+02  0.56081737445E+02  0.67715463796E+03  0.70098941847E+03  0.16878822723E+03 0.  0.
        -24    2    5    5    0    0  0.18172512645E+02 -0.27393567355E+02  0.35181803283E+03  0.36092560459E+03  0.73557569775E+02 0.  0.
          2    1    4    4  501    0  0.82641462947E+02  0.19590320350E+00 -0.12222555588E+02  0.83540652626E+02  0.00000000000E+00 0. -1.
         -1    1    4    4    0  501  0.35634190770E+01 -0.35298528839E+02  0.16070158016E+02  0.38947837839E+02  0.00000000000E+00 0.  1.
          5    1    3    3  502    0 -0.51374806377E+02 -0.20979111810E+02  0.28464771548E+02  0.62544600742E+02  0.47000000000E+01 0. -1.
         13    1    6    6    0    0 -0.56926297920E+00 -0.40454007674E+02  0.97185743118E+02  0.10527069612E+03  0.00000000000E+00 0. -1.
        -14    1    6    6    0    0  0.18741775624E+02  0.13060440319E+02  0.25463228971E+03  0.25565490846E+03  0.00000000000E+00 0.  1.
         -5    1    5    5    0  503 -0.53002588291E+02  0.83475304801E+02  0.32533660513E+03  0.34006381389E+03  0.47000000000E+01 0.  1.
<mgrwt>
<rscale>  2 0.18195183E+03</rscale>
<asrwt>0</asrwt>
<pdfrwt beam="1">  1       21 0.12272996E+00 0.18218989E+03</pdfrwt>
<pdfrwt beam="2">  1       21 0.13581193E-01 0.18218989E+03</pdfrwt>
<totfact> 0.23609909E+04</totfact>
</mgrwt>
</event>
<event>
12    1  0.1473662E-001  0.3866791E+03  0.7546771E-02  0.1048569E+00
         21   -1    0    0  504  503  0.00000000000E+00  0.00000000000E+00  0.14844879802E+03  0.14844879802E+03  0.00000000000E+00 0. -1.
         21   -1    0    0  502  504 -0.00000000000E+00 -0.00000000000E+00 -0.12430126623E+04  0.12430126623E+04  0.00000000000E+00 0.  1.
          6    2    1    2  502    0 -0.34527958225E+03  0.22969563751E+02 -0.85122301642E+03  0.93458568758E+03  0.17065811718E+03 0.  0.
         24    2    3    3    0    0 -0.28527231789E+03 -0.39547530456E+02 -0.64630874843E+03  0.71205208097E+03  0.79742493025E+02 0.  0.
         -6    2    1    2    0  503  0.34527958225E+03 -0.22969563751E+02 -0.24334084783E+03  0.45687577271E+03  0.17255466581E+03 0.  0.
        -24    2    5    5    0    0  0.22123394835E+03 -0.81424833504E+02 -0.13310132640E+03  0.28086673903E+03  0.74804402225E+02 0.  0.
          4    1    4    4  501    0 -0.16365134968E+03 -0.43137257523E+02 -0.45361974508E+03  0.48416263834E+03  0.00000000000E+00 0. -1.
         -3    1    4    4    0  501 -0.12162096821E+03  0.35897270667E+01 -0.19268900335E+03  0.22788944263E+03  0.00000000000E+00 0.  1.
          5    1    3    3  502    0 -0.60007264363E+02  0.62517094207E+02 -0.20491426799E+03  0.22253360661E+03  0.47000000000E+01 0. -1.
         13    1    6    6    0    0  0.21349008814E+03 -0.63928585659E+02 -0.13663791288E+03  0.26140925966E+03  0.00000000000E+00 0. -1.
        -14    1    6    6    0    0  0.77438602025E+01 -0.17496247845E+02  0.35365864807E+01  0.19457479370E+02  0.00000000000E+00 0.  1.
         -5    1    5    5    0  503  0.12404563390E+03  0.58455269754E+02 -0.11023952143E+03  0.17600903368E+03  0.47000000000E+01 0.  1.
<mgrwt>
<rscale>  2 0.38646825E+03</rscale>
<asrwt>0</asrwt>
<pdfrwt beam="1">  1       21 0.22838277E-01 0.38667907E+03</pdfrwt>
<pdfrwt beam="2">  1       21 0.19123272E+00 0.38667907E+03</pdfrwt>
<totfact> 0.24084175E+03</totfact>
</mgrwt>
</event>
<event>
12    1  0.1473662E-001  0.1862218E+03  0.7546771E-02  0.1162040E+00
         21   -1    0    0  504  503  0.00000000000E+00  0.00000000000E+00  0.36060513461E+02  0.36060513461E+02  0.00000000000E+00 0.  1.
         21   -1    0    0  502  504 -0.00000000000E+00 -0.00000000000E+00 -0.97925318577E+03  0.97925318577E+03  0.00000000000E+00 0.  1.
          6    2    1    2  502    0 -0.11984355481E+02 -0.65172019478E+02 -0.54552719716E+03  0.57643601338E+03  0.17403315139E+03 0.  0.
         24    2    3    3    0    0 -0.41253501255E+02 -0.10287178678E+03 -0.37509838221E+03  0.39938792298E+03  0.80792702670E+02 0.  0.
         -6    2    1    2    0  503  0.11984355481E+02  0.65172019478E+02 -0.39766547515E+03  0.43887768585E+03  0.17344963567E+03 0.  0.
        -24    2    5    5    0    0  0.54489692303E+02 -0.80998441744E+01 -0.18037875307E+03  0.20561586032E+03  0.81894159806E+02 0.  0.
          2    1    4    4  501    0 -0.36644441503E+02 -0.81265347035E+01 -0.15928993474E+03  0.16365249454E+03  0.00000000000E+00 0. -1.
         -1    1    4    4    0  501 -0.46090597523E+01 -0.94745252078E+02 -0.21580844747E+03  0.23573542844E+03  0.00000000000E+00 0.  1.
          5    1    3    3  502    0  0.29269145774E+02  0.37699767304E+02 -0.17042881494E+03  0.17704809039E+03  0.47000000000E+01 0. -1.
         11    1    6    6    0    0  0.13303487441E+02  0.34010343302E+02 -0.44832171758E+02  0.57823955712E+02  0.00000000000E+00 0. -1.
        -12    1    6    6    0    0  0.41186204862E+02 -0.42110187477E+02 -0.13554658132E+03  0.14779190460E+03  0.00000000000E+00 0.  1.
         -5    1    5    5    0  503 -0.42505336822E+02  0.73271863652E+02 -0.21728672208E+03  0.23326182553E+03  0.47000000000E+01 0.  1.
<mgrwt>
<rscale>  2 0.18608534E+03</rscale>
<asrwt>0</asrwt>
<pdfrwt beam="1">  1       21 0.55477709E-02 0.18622179E+03</pdfrwt>
<pdfrwt beam="2">  1       21 0.15065435E+00 0.18622179E+03</pdfrwt>
<totfact> 0.66834193E+04</totfact>
</mgrwt>
</event>
<event>
12    1  0.1473662E-001  0.2170188E+03  0.7546771E-02  0.1136167E+00
         21   -1    0    0  504  503  0.00000000000E+00  0.00000000000E+00  0.16952218853E+03  0.16952218853E+03  0.00000000000E+00 0. -1.
         21   -1    0    0  502  504 -0.00000000000E+00 -0.00000000000E+00 -0.37874928293E+03  0.37874928293E+03  0.00000000000E+00 0. -1.
          6    2    1    2  502    0 -0.97147516322E+02  0.86509238178E+02 -0.24628443142E+03  0.32811150177E+03  0.17343485294E+03 0.  0.
         24    2    3    3    0    0 -0.66092528008E+02  0.88806346987E+02 -0.26009223940E+03  0.29372495543E+03  0.79822220753E+02 0.  0.
         -6    2    1    2    0  503  0.97147516322E+02 -0.86509238178E+02  0.37057337024E+02  0.22015996970E+03  0.17371147864E+03 0.  0.
        -24    2    5    5    0    0  0.23787820533E+02  0.13055073443E+02  0.43607011768E+02  0.96225772018E+02  0.81372798752E+02 0.  0.
          4    1    4    4  501    0 -0.80818511112E+02  0.90868310312E+02 -0.23187457402E+03  0.26182914206E+03  0.00000000000E+00 0. -1.
         -3    1    4    4    0  501  0.14725983104E+02 -0.20619633245E+01 -0.28217665380E+02  0.31895813371E+02  0.00000000000E+00 0.  1.
          5    1    3    3  502    0 -0.31054988314E+02 -0.22971088092E+01  0.13807807973E+02  0.34386546338E+02  0.47000000000E+01 0. -1.
         13    1    6    6    0    0 -0.19028703310E+02  0.26533396284E+01  0.48235880996E+02  0.51921401910E+02  0.00000000000E+00 0. -1.
        -14    1    6    6    0    0  0.42816523843E+02  0.10401733815E+02 -0.46288692276E+01  0.44304370108E+02  0.00000000000E+00 0.  1.
         -5    1    5    5    0  503  0.73359695790E+02 -0.99564311621E+02 -0.65496747440E+01  0.12393419768E+03  0.47000000000E+01 0.  1.
<mgrwt>
<rscale>  2 0.21696345E+03</rscale>
<asrwt>0</asrwt>
<pdfrwt beam="1">  1       21 0.26080337E-01 0.21701881E+03</pdfrwt>
<pdfrwt beam="2">  1       21 0.58269120E-01 0.21701881E+03</pdfrwt>
<totfact> 0.38061834E+04</totfact>
</mgrwt>
</event>
<event>
12    1  0.1473662E-001  0.2182434E+03  0.7546771E-02  0.1135539E+00
         21   -1    0    0  504  503  0.00000000000E+00  0.00000000000E+00  0.98544216487E+02  0.98544216487E+02  0.00000000000E+00 0.  1.
         21   -1    0    0  502  504 -0.00000000000E+00 -0.00000000000E+00 -0.53725192110E+03  0.53725192110E+03  0.00000000000E+00 0.  1.
          6    2    1    2  502    0 -0.76487976986E+02  0.10447011149E+03 -0.32450475298E+03  0.39106713902E+03  0.17568653247E+03 0.  0.
         24    2    3    3    0    0 -0.91070018700E+02  0.16683048991E+02 -0.23570638262E+03  0.26526394008E+03  0.78964464608E+02 0.  0.
         -6    2    1    2    0  503  0.76487976986E+02 -0.10447011149E+03 -0.11420295163E+03  0.24472899857E+03  0.17345187736E+03 0.  0.
        -24    2    5    5    0    0  0.10672749389E+02  0.14699732281E+02 -0.33299177667E+02  0.86297289335E+02  0.77513851695E+02 0.  0.
          4    1    4    4  501    0 -0.85649073663E+02 -0.17193672082E+02 -0.16703876928E+03  0.18850288226E+03  0.00000000000E+00 0. -1.
         -3    1    4    4    0  501 -0.54209450372E+01  0.33876721073E+02 -0.68667613341E+02  0.76761057821E+02  0.00000000000E+00 0.  1.
          5    1    3    3  502    0  0.14582041714E+02  0.87787062503E+02 -0.88798370362E+02  0.12580319894E+03  0.47000000000E+01 0. -1.
         11    1    6    6    0    0  0.23452549664E+02  0.35325990800E+01  0.19583945802E+02  0.30757637672E+02  0.00000000000E+00 0. -1.
        -12    1    6    6    0    0 -0.12779800275E+02  0.11167133201E+02 -0.52883123469E+02  0.55539651663E+02  0.00000000000E+00 0.  1.
         -5    1    5    5    0  503  0.65815227597E+02 -0.11916984378E+03 -0.80903773965E+02  0.15843170923E+03  0.47000000000E+01 0.  1.
<mgrwt>
<rscale>  2 0.21779328E+03</rscale>
<asrwt>0</asrwt>
<pdfrwt beam="1">  1       21 0.15160649E-01 0.21824338E+03</pdfrwt>
<pdfrwt beam="2">  1       21 0.82654141E-01 0.21824338E+03</pdfrwt>
<totfact> 0.48526737E+04</totfact>
</mgrwt>
</event>
<event>
12    1  0.1473662E-001  0.2027368E+03  0.7546771E-02  0.1148450E+00
         21   -1    0    0  504  503  0.00000000000E+00  0.00000000000E+00  0.20785902779E+03  0.20785902779E+03  0.00000000000E+00 0.  1.
         21   -1    0    0  502  504 -0.00000000000E+00 -0.00000000000E+00 -0.42801733977E+03  0.42801733977E+03  0.00000000000E+00 0. -1.
          6    2    1    2  502    0  0.97595634418E+02  0.38745660862E+02 -0.34501285385E+03  0.39777796735E+03  0.16783118869E+03 0.  0.
         24    2    3    3    0    0  0.90027493902E+02  0.11686602337E+02 -0.12029701025E+03  0.17126357539E+03  0.81353028520E+02 0.  0.
         -6    2    1    2    0  503 -0.97595634418E+02 -0.38745660862E+02  0.12485454186E+03  0.23809840021E+03  0.17342450077E+03 0.  0.
        -24    2    5    5    0    0 -0.88738247506E+02 -0.64812056774E+02  0.35326981720E+02  0.14431575617E+03  0.86625415251E+02 0.  0.
          2    1    4    4  501    0  0.90957240945E+02  0.32156812756E+02 -0.11498279187E+03  0.15009437935E+03  0.00000000000E+00 0. -1.
         -1    1    4    4    0  501 -0.92974704321E+00 -0.20470210419E+02 -0.53142183834E+01  0.21169196045E+02  0.00000000000E+00 0.  1.
          5    1    3    3  502    0  0.75681405163E+01  0.27059058525E+02 -0.22471584360E+03  0.22651439195E+03  0.47000000000E+01 0. -1.
         13    1    6    6    0    0  0.69794963028E+01 -0.36838225149E+02  0.22617965527E+02  0.43787447577E+02  0.00000000000E+00 0. -1.
        -14    1    6    6    0    0 -0.95717743809E+02 -0.27973831625E+02  0.12709016193E+02  0.10052830859E+03  0.00000000000E+00 0.  1.
         -5    1    5    5    0  503 -0.88573869126E+01  0.26066395912E+02  0.89527560144E+02  0.93782644046E+02  0.47000000000E+01 0.  1.
<mgrwt>
<rscale>  2 0.20153526E+03</rscale>
<asrwt>0</asrwt>
<pdfrwt beam="1">  1       21 0.31978312E-01 0.20273675E+03</pdfrwt>
<pdfrwt beam="2">  1       21 0.65848821E-01 0.20273675E+03</pdfrwt>
<totfact> 0.19805044E+04</totfact>
</mgrwt>
</event>
<event>
12    1  0.1473662E-001  0.1868748E+03  0.7546771E-02  0.1161394E+00
         21   -1    0    0  504  503  0.00000000000E+00  0.00000000000E+00  0.56783050618E+02  0.56783050618E+02  0.00000000000E+00 0. -1.
         21   -1    0    0  502  504 -0.00000000000E+00 -0.00000000000E+00 -0.65044101508E+03  0.65044101508E+03  0.00000000000E+00 0. -1.
          6    2    1    2  502    0  0.57605263341E+02 -0.43568334142E+02 -0.38100557224E+03  0.42436709492E+03  0.17235318121E+03 0.  0.
         24    2    3    3    0    0  0.92396280119E+02 -0.76231948848E+02 -0.27990588837E+03  0.31247177485E+03  0.70305911089E+02 0.  0.
         -6    2    1    2    0  503 -0.57605263341E+02  0.43568334142E+02 -0.21265239222E+03  0.28285697077E+03  0.17196063472E+03 0.  0.
        -24    2    5    5    0    0 -0.81621764530E+02  0.30589398191E+02 -0.70986199486E+02  0.13850793104E+03  0.80917134878E+02 0.  0.
          2    1    4    4  501    0  0.38409105186E+02 -0.41400900341E+02 -0.21028349873E+03  0.21773480142E+03  0.00000000000E+00 0. -1.
         -1    1    4    4    0  501  0.53987174933E+02 -0.34831048506E+02 -0.69622389633E+02  0.94736973434E+02  0.00000000000E+00 0.  1.
          5    1    3    3  502    0 -0.34791016778E+02  0.32663614706E+02 -0.10109968387E+03  0.11189532007E+03  0.47000000000E+01 0. -1.
         13    1    6    6    0    0 -0.36381349992E+02  0.28409003986E+02  0.85833682366E+01  0.46950488229E+02  0.00000000000E+00 0. -1.
        -14    1    6    6    0    0 -0.45240414538E+02  0.21803942046E+01 -0.79569567722E+02  0.91557442811E+02  0.00000000000E+00 0.  1.
         -5    1    5    5    0  503  0.24016501190E+02  0.12978935951E+02 -0.14166619273E+03  0.14434903973E+03  0.47000000000E+01 0.  1.
<mgrwt>
<rscale>  2 0.18678422E+03</rscale>
<asrwt>0</asrwt>
<pdfrwt beam="1">  1       21 0.87358535E-02 0.18687478E+03</pdfrwt>
<pdfrwt beam="2">  1       21 0.10006785E+00 0.18687478E+03</pdfrwt>
<totfact> 0.84565552E+04</totfact>
</mgrwt>
</event>
<event>
12    1  0.1473662E-001  0.2529751E+03  0.7546771E-02  0.1111896E+00
         21   -1    0    0  504  503  0.00000000000E+00  0.00000000000E+00  0.11078487244E+03  0.11078487244E+03  0.00000000000E+00 0. -1.
         21   -1    0    0  502  504 -0.00000000000E+00 -0.00000000000E+00 -0.57458196323E+03  0.57458196323E+03  0.00000000000E+00 0.  1.
          6    2    1    2  502    0  0.15864245304E+03 -0.84402284345E+02 -0.25755091128E+03  0.35897154095E+03  0.17388767007E+03 0.  0.
         24    2    3    3    0    0  0.33915984143E+02 -0.18019131012E+02 -0.17014628449E+03  0.19276361733E+03  0.82055292191E+02 0.  0.
         -6    2    1    2    0  503 -0.15864245304E+03  0.84402284345E+02 -0.20624617952E+03  0.32639529472E+03  0.17805962019E+03 0.  0.
        -24    2    5    5    0    0 -0.78147958865E+02  0.91744665043E+02 -0.19784471107E+03  0.24499536340E+03  0.79724596888E+02 0.  0.
          2    1    4    4  501    0  0.37057613336E+01 -0.27967849173E+02 -0.10695654036E+02  0.30171679928E+02  0.00000000000E+00 0. -1.
         -1    1    4    4    0  501  0.30210222809E+02  0.99487181609E+01 -0.15945063045E+03  0.16259193740E+03  0.00000000000E+00 0.  1.
          5    1    3    3  502    0  0.12472646890E+03 -0.66383153333E+02 -0.87404626786E+02  0.16620792362E+03  0.47000000000E+01 0. -1.
         13    1    6    6    0    0 -0.13505909785E+02 -0.11643664382E+02 -0.84226911653E+01  0.19721213092E+02  0.00000000000E+00 0. -1.
        -14    1    6    6    0    0 -0.64642049080E+02  0.10338832943E+03 -0.18942201991E+03  0.22527415031E+03  0.00000000000E+00 0.  1.
         -5    1    5    5    0  503 -0.80494494179E+02 -0.73423806982E+01 -0.84014684423E+01  0.81399931323E+02  0.47000000000E+01 0.  1.
<mgrwt>
<rscale>  2 0.25224219E+03</rscale>
<asrwt>0</asrwt>
<pdfrwt beam="1">  1       21 0.17043826E-01 0.25297510E+03</pdfrwt>
<pdfrwt beam="2">  1       21 0.88397226E-01 0.25297510E+03</pdfrwt>
<totfact> 0.32991714E+04</totfact>
</mgrwt>
</event>
<event>
12    1  0.1473662E-001  0.2028467E+03  0.7546771E-02  0.1147517E+00
         21   -1    0    0  504  503  0.00000000000E+00  0.00000000000E+00  0.25521654118E+03  0.25521654118E+03  0.00000000000E+00 0.  1.
         21   -1    0    0  502  504 -0.00000000000E+00 -0.00000000000E+00 -0.19126268454E+03  0.19126268454E+03  0.00000000000E+00 0.  1.
          6    2    1    2  502    0 -0.74317884524E+01 -0.10544626630E+03 -0.57429197614E+02  0.21008841237E+03  0.17223496078E+03 0.  0.
         24    2    3    3    0    0  0.23004223818E+02 -0.53253334499E+02 -0.96435002547E+02  0.13801903058E+03  0.79902635354E+02 0.  0.
         -6    2    1    2    0  503  0.74317884524E+01  0.10544626630E+03  0.12138305426E+03  0.23639081335E+03  0.17312603564E+03 0.  0.
        -24    2    5    5    0    0  0.59927083721E+01  0.12428672931E+03  0.41220034036E+02  0.15389697231E+03  0.80635496185E+02 0.  0.
          4    1    4    4  501    0  0.39190278439E+02 -0.36105097915E+02 -0.18202181306E+02  0.56309638819E+02  0.00000000000E+00 0. -1.
         -3    1    4    4    0  501 -0.16186054621E+02 -0.17148236583E+02 -0.78232821242E+02  0.81709391758E+02  0.00000000000E+00 0.  1.
          5    1    3    3  502    0 -0.30436012271E+02 -0.52192931801E+02  0.39005804933E+02  0.72069381788E+02  0.47000000000E+01 0. -1.
         13    1    6    6    0    0  0.24885934512E+02  0.10648113536E+03  0.57204360689E+02  0.12340940323E+03  0.00000000000E+00 0. -1.
        -14    1    6    6    0    0 -0.18893226140E+02  0.17805593945E+02 -0.15984326653E+02  0.30487569077E+02  0.00000000000E+00 0.  1.
         -5    1    5    5    0  503  0.14390800803E+01 -0.18840463010E+02  0.80163020219E+02  0.82493841034E+02  0.47000000000E+01 0.  1.
<mgrwt>
<rscale>  2 0.20265640E+03</rscale>
<asrwt>0</asrwt>
<pdfrwt beam="1">  1       21 0.39264083E-01 0.20284667E+03</pdfrwt>
<pdfrwt beam="2">  1       21 0.29425028E-01 0.20284667E+03</pdfrwt>
<totfact> 0.68881525E+04</totfact>
</mgrwt>
</event>
<event>
12    1  0.1473662E-001  0.1804432E+03  0.7546771E-02  0.1167613E+00
         21   -1    0    0  504  503  0.00000000000E+00  0.00000000000E+00  0.32318516927E+02  0.32318516927E+02  0.00000000000E+00 0. -1.
         21   -1    0    0  502  504 -0.00000000000E+00 -0.00000000000E+00 -0.19338795394E+04  0.19338795394E+04  0.00000000000E+00 0. -1.
          6    2    1    2  502    0 -0.40694388545E+02  0.27164527772E+02 -0.16318770044E+04  0.16417150647E+04  0.17266108847E+03 0.  0.
         24    2    3    3    0    0 -0.60290675996E+01  0.30733825716E+00 -0.34171663109E+03  0.35080109705E+03  0.79086722131E+02 0.  0.
         -6    2    1    2    0  503  0.40694388545E+02 -0.27164527772E+02 -0.26968401804E+03  0.32448299156E+03  0.17368303715E+03 0.  0.
        -24    2    5    5    0    0  0.13229525896E+02 -0.77233710111E+02 -0.12063937323E+03  0.16480319369E+03  0.80412486243E+02 0.  0.
          4    1    4    4  501    0  0.34234063441E+01  0.37083878214E+02 -0.22504968760E+03  0.22811027075E+03  0.00000000000E+00 0. -1.
         -3    1    4    4    0  501 -0.94524739437E+01 -0.36776539957E+02 -0.11666694349E+03  0.12269082630E+03  0.00000000000E+00 0.  1.
          5    1    3    3  502    0 -0.34665320945E+02  0.26857189515E+02 -0.12901603733E+04  0.12909139677E+04  0.47000000000E+01 0. -1.
         13    1    6    6    0    0  0.44065645220E+02 -0.27563637016E+02 -0.42068803590E+02  0.66867925119E+02  0.00000000000E+00 0. -1.
        -14    1    6    6    0    0 -0.30836119324E+02 -0.49670073096E+02 -0.78570569643E+02  0.97935268572E+02  0.00000000000E+00 0.  1.
         -5    1    5    5    0  503  0.27464862649E+02  0.50069182339E+02 -0.14904464481E+03  0.15967979787E+03  0.47000000000E+01 0.  1.
<mgrwt>
<rscale>  2 0.18019682E+03</rscale>
<asrwt>0</asrwt>
<pdfrwt beam="1">  1       21 0.49720789E-02 0.18044318E+03</pdfrwt>
<pdfrwt beam="2">  1       21 0.29751997E+00 0.18044318E+03</pdfrwt>
<totfact> 0.97099989E+03</totfact>
</mgrwt>
</event>
<event>
12    1  0.1473662E-001  0.1853140E+03  0.7546771E-02  0.1162806E+00
         21   -1    0    0  504  503  0.00000000000E+00  0.00000000000E+00  0.62092845275E+03  0.62092845275E+03  0.00000000000E+00 0.  1.
         21   -1    0    0  502  504 -0.00000000000E+00 -0.00000000000E+00 -0.11745964156E+03  0.11745964156E+03  0.00000000000E+00 0.  1.
          6    2    1    2  502    0  0.21915431083E+02  0.61225365527E+02 -0.16895090022E+02  0.18608253685E+03  0.17352934896E+03 0.  0.
         24    2    3    3    0    0 -0.64049744876E+01  0.95156355826E+02  0.22101897351E+02  0.12695375791E+03  0.80827019174E+02 0.  0.
         -6    2    1    2    0  503 -0.21915431083E+02 -0.61225365527E+02  0.52036390122E+03  0.55230555746E+03  0.17330322446E+03 0.  0.
        -24    2    5    5    0    0  0.75896359689E+01 -0.62132669864E+01  0.10850318606E+03  0.13571436857E+03  0.80927382209E+02 0.  0.
          4    1    4    4  501    0  0.32757373514E+02  0.21252090364E+02  0.18574482601E+02  0.43240123361E+02  0.00000000000E+00 0. -1.
         -3    1    4    4    0  501 -0.39162348002E+02  0.73904265462E+02  0.35274147496E+01  0.83713634548E+02  0.00000000000E+00 0.  1.
          5    1    3    3  502    0  0.28320405571E+02 -0.33930990299E+02 -0.38996987373E+02  0.59128778937E+02  0.47000000000E+01 0. -1.
         11    1    6    6    0    0 -0.27389072009E+02  0.22068629653E+02  0.35561805010E+02  0.50018273219E+02  0.00000000000E+00 0. -1.
        -12    1    6    6    0    0  0.34978707978E+02 -0.28281896639E+02  0.72941381050E+02  0.85696095353E+02  0.00000000000E+00 0.  1.
         -5    1    5    5    0  503 -0.29505067052E+02 -0.55012098541E+02  0.41186071516E+03  0.41659118889E+03  0.47000000000E+01 0.  1.
<mgrwt>
<rscale>  2 0.18526101E+03</rscale>
<asrwt>0</asrwt>
<pdfrwt beam="1">  1       21 0.95527452E-01 0.18531397E+03</pdfrwt>
<pdfrwt beam="2">  1       21 0.18070714E-01 0.18531397E+03</pdfrwt>
<totfact> 0.25595684E+04</totfact>
</mgrwt>
</event>
<event>
12    1  0.1473662E-001  0.2960173E+03  0.7546771E-02  0.1087259E+00
         21   -1    0    0  504  503  0.00000000000E+00  0.00000000000E+00  0.16777249222E+03  0.16777249222E+03  0.00000000000E+00 0.  1.
         21   -1    0    0  502  504 -0.00000000000E+00 -0.00000000000E+00 -0.52730130241E+03  0.52730130241E+03  0.00000000000E+00 0.  1.
          6    2    1    2  502    0 -0.94914795368E+02  0.22128756073E+03 -0.14540267833E+03  0.32972980788E+03  0.17205465535E+03 0.  0.
         24    2    3    3    0    0 -0.27392651240E+02  0.34060287467E+02  0.33820862919E+01  0.81189493278E+02  0.68336189437E+02 0.  0.
         -6    2    1    2    0  503  0.94914795368E+02 -0.22128756073E+03 -0.21412613185E+03  0.36534398675E+03  0.17218950432E+03 0.  0.
        -24    2    5    5    0    0  0.11869083805E+03 -0.21863610427E+03 -0.16223343264E+03  0.30800924459E+03  0.81613399350E+02 0.  0.
          2    1    4    4  501    0  0.13424911215E+02  0.12679608862E+02  0.24353828216E+02  0.30563207796E+02  0.00000000000E+00 0. -1.
         -1    1    4    4    0  501 -0.40817562455E+02  0.21380678606E+02 -0.20971741924E+02  0.50626285482E+02  0.00000000000E+00 0.  1.
          5    1    3    3  502    0 -0.67522144128E+02  0.18722727326E+03 -0.14878476462E+03  0.24854031461E+03  0.47000000000E+01 0. -1.
         13    1    6    6    0    0  0.50391920011E+02 -0.11686220619E+03 -0.36442590055E+02  0.13237893793E+03  0.00000000000E+00 0. -1.
        -14    1    6    6    0    0  0.68298918042E+02 -0.10177389809E+03 -0.12579084258E+03  0.17563030665E+03  0.00000000000E+00 0.  1.
         -5    1    5    5    0  503 -0.23776042686E+02 -0.26514564523E+01 -0.51892699212E+02  0.57334742160E+02  0.47000000000E+01 0.  1.
<mgrwt>
<rscale>  2 0.29599767E+03</rscale>
<asrwt>0</asrwt>
<pdfrwt beam="1">  1       21 0.25811152E-01 0.29601728E+03</pdfrwt>
<pdfrwt beam="2">  1       21 0.81123279E-01 0.29601728E+03</pdfrwt>
<totfact> 0.18006632E+04</totfact>
</mgrwt>
</event>
<event>
12    1  0.1473662E-001  0.2180015E+03  0.7546771E-02  0.1135593E+00
         21   -1    0    0  504  503  0.00000000000E+00  0.00000000000E+00  0.92100990201E+02  0.92100990201E+02  0.00000000000E+00 0.  1.
         21   -1    0    0  502  504 -0.00000000000E+00 -0.00000000000E+00 -0.51369802493E+03  0.51369802493E+03  0.00000000000E+00 0.  1.
          6    2    1    2  502    0 -0.27959418774E+02 -0.12540762439E+03 -0.20368360016E+03  0.29834821961E+03  0.17611317331E+03 0.  0.
         24    2    3    3    0    0 -0.20151197301E+02 -0.18066576339E+02 -0.16142072480E+03  0.18262739368E+03  0.81016310667E+02 0.  0.
         -6    2    1    2    0  503  0.27959418774E+02  0.12540762439E+03 -0.21791343456E+03  0.30745079552E+03  0.17473100855E+03 0.  0.
        -24    2    5    5    0    0  0.42406803816E+02  0.13373633694E+03 -0.23044712973E+03  0.28606673833E+03  0.95102861953E+02 0.  0.
          2    1    4    4  501    0 -0.22853792141E+02  0.18825887140E+02 -0.18310240972E+02  0.34813427960E+02  0.00000000000E+00 0. -1.
         -1    1    4    4    0  501  0.27025948400E+01 -0.36892463479E+02 -0.14311048383E+03  0.14781396572E+03  0.00000000000E+00 0.  1.
          5    1    3    3  502    0 -0.78082214727E+01 -0.10734104805E+03 -0.42262875362E+02  0.11572082593E+03  0.47000000000E+01 0. -1.
         11    1    6    6    0    0 -0.12350982751E+01  0.43958027730E+02 -0.15450021138E+03  0.16063669875E+03  0.00000000000E+00 0. -1.
        -12    1    6    6    0    0  0.43641902091E+02  0.89778309208E+02 -0.75946918354E+02  0.12543003958E+03  0.00000000000E+00 0.  1.
         -5    1    5    5    0  503 -0.14447385042E+02 -0.83287125461E+01  0.12533695167E+02  0.21384057187E+02  0.47000000000E+01 0.  1.
<mgrwt>
<rscale>  2 0.21772219E+03</rscale>
<asrwt>0</asrwt>
<pdfrwt beam="1">  1       21 0.14169383E-01 0.21800149E+03</pdfrwt>
<pdfrwt beam="2">  1       21 0.79030466E-01 0.21800149E+03</pdfrwt>
<totfact> 0.60785797E+04</totfact>
</mgrwt>
</event>
<event>
12    1  0.1473662E-001  0.1859710E+03  0.7546771E-02  0.1163456E+00
         21   -1    0    0  504  503  0.00000000000E+00  0.00000000000E+00  0.41393542717E+03  0.41393542717E+03  0.00000000000E+00 0.  1.
         21   -1    0    0  502  504 -0.00000000000E+00 -0.00000000000E+00 -0.84039722201E+02  0.84039722201E+02  0.00000000000E+00 0.  1.
          6    2    1    2  502    0  0.43338972348E+02 -0.29527358978E+02  0.12058929240E+03  0.22164612791E+03  0.17842392531E+03 0.  0.
         24    2    3    3    0    0 -0.40633612674E+02 -0.11969521626E+02  0.75183167978E+02  0.12446856454E+03  0.89697017145E+02 0.  0.
         -6    2    1    2    0  503 -0.43338972348E+02  0.29527358978E+02  0.20930641257E+03  0.27632902146E+03  0.17262219529E+03 0.  0.
        -24    2    5    5    0    0 -0.82771715666E+01 -0.14469573782E+02  0.20224321992E+03  0.21943404227E+03  0.83493106129E+02 0.  0.
          2    1    4    4  501    0  0.28537614715E+01 -0.98333768137E+01 -0.18509817359E+02  0.21153075256E+02  0.00000000000E+00 0. -1.
         -1    1    4    4    0  501 -0.43487374146E+02 -0.21361448128E+01  0.93692985337E+02  0.10331548928E+03  0.00000000000E+00 0.  1.
          5    1    3    3  502    0  0.83972585022E+02 -0.17557837351E+02  0.45406124425E+02  0.97177563373E+02  0.47000000000E+01 0. -1.
         11    1    6    6    0    0  0.40027804381E+01 -0.19227666901E+02  0.31323420579E+01  0.19888111837E+02  0.00000000000E+00 0. -1.
        -12    1    6    6    0    0 -0.12279952005E+02  0.47580931183E+01  0.19911087786E+03  0.19954593044E+03  0.00000000000E+00 0.  1.
         -5    1    5    5    0  503 -0.35061800781E+02  0.43996932760E+02  0.70631926517E+01  0.56894979188E+02  0.47000000000E+01 0.  1.
<mgrwt>
<rscale>  2 0.18456547E+03</rscale>
<asrwt>0</asrwt>
<pdfrwt beam="1">  1       21 0.63682372E-01 0.18597104E+03</pdfrwt>
<pdfrwt beam="2">  1       21 0.12929188E-01 0.18597104E+03</pdfrwt>
<totfact> 0.11725457E+05</totfact>
</mgrwt>
</event>
<event>
12    1  0.1473662E-001  0.2171268E+03  0.7546771E-02  0.1136076E+00
         21   -1    0    0  504  503  0.00000000000E+00  0.00000000000E+00  0.48501420503E+03  0.48501420503E+03  0.00000000000E+00 0. -1.
         21   -1    0    0  502  504 -0.00000000000E+00 -0.00000000000E+00 -0.65795086935E+03  0.65795086935E+03  0.00000000000E+00 0. -1.
          6    2    1    2  502    0 -0.89026701372E+02 -0.96244237922E+02 -0.61408237305E+03  0.65128062189E+03  0.17286000308E+03 0.  0.
         24    2    3    3    0    0 -0.73430383890E+02 -0.28345847080E+02 -0.53111224817E+03  0.54283907901E+03  0.79990857140E+02 0.  0.
         -6    2    1    2    0  503  0.89026701372E+02  0.96244237922E+02  0.44114570873E+03  0.49168445249E+03  0.17307616127E+03 0.  0.
        -24    2    5    5    0    0 -0.21203070813E+02  0.16198177199E+02  0.14848297371E+03  0.16883535309E+03  0.75803903695E+02 0.  0.
          4    1    4    4  501    0 -0.82712300946E+02 -0.85843613253E+01 -0.48160523912E+03  0.48873164655E+03  0.00000000000E+00 0. -1.
         -3    1    4    4    0  501  0.92819170562E+01 -0.19761485754E+02 -0.49507009044E+02  0.54107432465E+02  0.00000000000E+00 0.  1.
          5    1    3    3  502    0 -0.15596317482E+02 -0.67898390842E+02 -0.82970124883E+02  0.10844154287E+03  0.47000000000E+01 0. -1.
         13    1    6    6    0    0  0.32273771189E+01  0.26554431725E+02  0.11180545162E+02  0.28992385163E+02  0.00000000000E+00 0. -1.
        -14    1    6    6    0    0 -0.24430447932E+02 -0.10356254527E+02  0.13730242855E+03  0.13984296793E+03  0.00000000000E+00 0.  1.
         -5    1    5    5    0  503  0.11022977218E+03  0.80046060723E+02  0.29266273502E+03  0.32284909940E+03  0.47000000000E+01 0.  1.
<mgrwt>
<rscale>  2 0.21708376E+03</rscale>
<asrwt>0</asrwt>
<pdfrwt beam="1">  1       21 0.74617570E-01 0.21712684E+03</pdfrwt>
<pdfrwt beam="2">  1       21 0.10122321E+00 0.21712684E+03</pdfrwt>
<totfact> 0.12534045E+03</totfact>
</mgrwt>
</event>
<event>
12    1  0.1473662E-001  0.1833093E+03  0.7546771E-02  0.1164829E+00
         21   -1    0    0  504  503  0.00000000000E+00  0.00000000000E+00  0.22735152480E+03  0.22735152480E+03  0.00000000000E+00 0.  1.
         21   -1    0    0  502  504 -0.00000000000E+00 -0.00000000000E+00 -0.48257166431E+03  0.48257166431E+03  0.00000000000E+00 0.  1.
          6    2    1    2  502    0  0.48187368640E+02 -0.35156967849E+02 -0.42345869915E+03  0.46111301509E+03  0.17248161615E+03 0.  0.
         24    2    3    3    0    0 -0.81191231525E+01 -0.38240410723E+02 -0.37820474847E+03  0.38865655444E+03  0.80540898725E+02 0.  0.
         -6    2    1    2    0  503 -0.48187368640E+02  0.35156967849E+02  0.16823855963E+03  0.24881017402E+03  0.17333278647E+03 0.  0.
        -24    2    5    5    0    0  0.17584444767E+02  0.34820094805E+02  0.15897812957E+03  0.18222270908E+03  0.80058842873E+02 0.  0.
          2    1    4    4  501    0 -0.10485427015E+02  0.23134285274E+02 -0.71900440089E+02  0.76254918660E+02  0.00000000000E+00 0. -1.
         -1    1    4    4    0  501  0.23663038622E+01 -0.61374695997E+02 -0.30630430838E+03  0.31240163578E+03  0.00000000000E+00 0.  1.
          5    1    3    3  502    0  0.56306491793E+02  0.30834428740E+01 -0.45253950682E+02  0.72456460652E+02  0.47000000000E+01 0. -1.
         11    1    6    6    0    0  0.55954607984E+01  0.55296239058E+02  0.66096299408E+02  0.86357999229E+02  0.00000000000E+00 0. -1.
        -12    1    6    6    0    0  0.11988983969E+02 -0.20476144253E+02  0.92881830164E+02  0.95864709851E+02  0.00000000000E+00 0.  1.
         -5    1    5    5    0  503 -0.65771813408E+02  0.33687304411E+00  0.92604300603E+01  0.66587464941E+02  0.47000000000E+01 0.  1.
<mgrwt>
<rscale>  2 0.18310778E+03</rscale>
<asrwt>0</asrwt>
<pdfrwt beam="1">  1       21 0.34977158E-01 0.18330927E+03</pdfrwt>
<pdfrwt beam="2">  1       21 0.74241793E-01 0.18330927E+03</pdfrwt>
<totfact> 0.12894199E+04</totfact>
</mgrwt>
</event>
<event>
12    1  0.1473662E-001  0.2224020E+03  0.7546771E-02  0.1132277E+00
         21   -1    0    0  504  503  0.00000000000E+00  0.00000000000E+00  0.46468516458E+03  0.46468516458E+03  0.00000000000E+00 0.  1.
         21   -1    0    0  502  504 -0.00000000000E+00 -0.00000000000E+00 -0.12967207413E+03  0.12967207413E+03  0.00000000000E+00 0.  1.
          6    2    1    2  502    0  0.18134774049E+02  0.13868503155E+03  0.40232357353E+02  0.22508993318E+03  0.17171030091E+03 0.  0.
         24    2    3    3    0    0  0.73478453597E+02  0.11171690588E+03  0.15778393814E+02  0.15867992640E+03  0.83967917261E+02 0.  0.
         -6    2    1    2    0  503 -0.18134774049E+02 -0.13868503155E+03  0.29478073310E+03  0.36926730553E+03  0.17291690004E+03 0.  0.
        -24    2    5    5    0    0 -0.53838962185E+02 -0.19531602376E+02  0.13787275090E+03  0.16898117617E+03  0.79155701754E+02 0.  0.
          2    1    4    4  501    0  0.73028420545E+02  0.76156065947E+02  0.42955047646E+02  0.11392116882E+03  0.00000000000E+00 0. -1.
         -1    1    4    4    0  501  0.45003305247E+00  0.35560839934E+02 -0.27176653832E+02  0.44758757580E+02  0.00000000000E+00 0.  1.
          5    1    3    3  502    0 -0.55343679549E+02  0.26968125665E+02  0.24453963538E+02  0.66410006781E+02  0.47000000000E+01 0. -1.
         13    1    6    6    0    0  0.19870845015E+02  0.21205736616E+01  0.19920651244E+02  0.28216655724E+02  0.00000000000E+00 0. -1.
        -14    1    6    6    0    0 -0.73709807200E+02 -0.21652176037E+02  0.11795209965E+03  0.14076452045E+03  0.00000000000E+00 0.  1.
         -5    1    5    5    0  503  0.35704188136E+02 -0.11915342917E+03  0.15690798220E+03  0.20028612936E+03  0.47000000000E+01 0.  1.
<mgrwt>
<rscale>  2 0.22216745E+03</rscale>
<asrwt>0</asrwt>
<pdfrwt beam="1">  1       21 0.71490024E-01 0.22240203E+03</pdfrwt>
<pdfrwt beam="2">  1       21 0.19949550E-01 0.22240203E+03</pdfrwt>
<totfact> 0.40410057E+04</totfact>
</mgrwt>
</event>
<event>
12    1  0.1473662E-001  0.2618653E+03  0.7546771E-02  0.1106205E+00
         21   -1    0    0  504  503  0.00000000000E+00  0.00000000000E+00  0.42386564927E+03  0.42386564927E+03  0.00000000000E+00 0.  1.
         21   -1    0    0  502  504 -0.00000000000E+00 -0.00000000000E+00 -0.20378820549E+03  0.20378820549E+03  0.00000000000E+00 0. -1.
          6    2    1    2  502    0 -0.17707827021E+03 -0.83225815415E+02 -0.33880627715E+02  0.26286879905E+03  0.17224650489E+03 0.  0.
         24    2    3    3    0    0 -0.63859732460E+02 -0.49852213523E+02  0.44960259938E+02  0.12084693397E+03  0.77583811798E+02 0.  0.
         -6    2    1    2    0  503  0.17707827021E+03  0.83225815415E+02  0.25395807149E+03  0.36478505572E+03  0.17404075576E+03 0.  0.
        -24    2    5    5    0    0  0.13985976336E+03  0.40230982309E+01  0.21571746216E+03  0.26916747436E+03  0.79625165936E+02 0.  0.
          2    1    4    4  501    0 -0.26332442756E+02  0.19343726089E+02  0.19808068981E+02  0.38209120341E+02  0.00000000000E+00 0. -1.
         -1    1    4    4    0  501 -0.37527289704E+02 -0.69195939612E+02  0.25152190958E+02  0.82637813628E+02  0.00000000000E+00 0.  1.
          5    1    3    3  502    0 -0.11321853775E+03 -0.33373601891E+02 -0.78840887653E+02  0.14202186508E+03  0.47000000000E+01 0. -1.
         13    1    6    6    0    0  0.12583370379E+03 -0.33198055460E+01  0.12614600218E+03  0.17820762044E+03  0.00000000000E+00 0. -1.
        -14    1    6    6    0    0  0.14026059568E+02  0.73429037769E+01  0.89571459976E+02  0.90959853920E+02  0.00000000000E+00 0.  1.
         -5    1    5    5    0  503  0.37218506856E+02  0.79202717184E+02  0.38240609338E+02  0.95617581356E+02  0.47000000000E+01 0.  1.
<mgrwt>
<rscale>  2 0.26156753E+03</rscale>
<asrwt>0</asrwt>
<pdfrwt beam="1">  1       21 0.65210100E-01 0.26186530E+03</pdfrwt>
<pdfrwt beam="2">  1       21 0.31352032E-01 0.26186530E+03</pdfrwt>
<totfact> 0.20394525E+04</totfact>
</mgrwt>
</event>
<event>
12    1  0.1473662E-001  0.2405864E+03  0.7546771E-02  0.1119705E+00
         21   -1    0    0  504  503  0.00000000000E+00  0.00000000000E+00  0.25369788541E+03  0.25369788541E+03  0.00000000000E+00 0.  1.
         21   -1    0    0  502  504 -0.00000000000E+00 -0.00000000000E+00 -0.25242493489E+03  0.25242493489E+03  0.00000000000E+00 0.  1.
          6    2    1    2  502    0  0.96625340695E+02 -0.13230430423E+03 -0.80563786289E+02  0.25199868276E+03  0.17370068240E+03 0.  0.
         24    2    3    3    0    0  0.86154790875E+02 -0.10691560370E+03  0.76190841046E+01  0.15951880841E+03  0.80836906723E+02 0.  0.
         -6    2    1    2    0  503 -0.96625340695E+02  0.13230430423E+03  0.81836736803E+02  0.25412413754E+03  0.17618439320E+03 0.  0.
        -24    2    5    5    0    0 -0.52375287736E+00  0.80910124463E+02  0.89536475205E+02  0.14477034078E+03  0.79968422639E+02 0.  0.
          4    1    4    4  501    0  0.13462035564E+02 -0.46376920917E+02  0.36583659701E+02  0.60583903410E+02  0.00000000000E+00 0. -1.
         -3    1    4    4    0  501  0.72692755311E+02 -0.60538682782E+02 -0.28964575596E+02  0.98934904999E+02  0.00000000000E+00 0.  1.
          5    1    3    3  502    0  0.10470549820E+02 -0.25388700532E+02 -0.88182870394E+02  0.92479874346E+02  0.47000000000E+01 0. -1.
         11    1    6    6    0    0 -0.13564735230E+02 -0.12254728241E+02  0.68451943773E+01  0.19520171418E+02  0.00000000000E+00 0. -1.
        -12    1    6    6    0    0  0.13040982352E+02  0.93164852704E+02  0.82691280828E+02  0.12525016936E+03  0.00000000000E+00 0.  1.
         -5    1    5    5    0  503 -0.96101587818E+02  0.51394179769E+02 -0.76997384023E+01  0.10935379676E+03  0.47000000000E+01 0.  1.
<mgrwt>
<rscale>  2 0.24013192E+03</rscale>
<asrwt>0</asrwt>
<pdfrwt beam="1">  1       21 0.39030444E-01 0.24058642E+03</pdfrwt>
<pdfrwt beam="2">  1       21 0.38834605E-01 0.24058642E+03</pdfrwt>
<totfact> 0.39546635E+04</totfact>
</mgrwt>
</event>
<event>
12    1  0.1473662E-001  0.1940121E+03  0.7546771E-02  0.1156367E+00
         21   -1    0    0  504  503  0.00000000000E+00  0.00000000000E+00  0.81326120165E+02  0.81326120165E+02  0.00000000000E+00 0. -1.
         21   -1    0    0  502  504 -0.00000000000E+00 -0.00000000000E+00 -0.47165138299E+03  0.47165138299E+03  0.00000000000E+00 0. -1.
          6    2    1    2  502    0  0.26109403546E+02 -0.66448654974E+02 -0.26128330841E+03  0.32543762751E+03  0.18039832993E+03 0.  0.
         24    2    3    3    0    0 -0.33533521177E+02  0.90849001075E+01 -0.74549045886E+02  0.11530821211E+03  0.80817022253E+02 0.  0.
         -6    2    1    2    0  503 -0.26109403546E+02  0.66448654974E+02 -0.12904195442E+03  0.22753987565E+03  0.17327851659E+03 0.  0.
        -24    2    5    5    0    0 -0.15865361208E+02  0.10931558789E+03 -0.66945988539E+02  0.15124758692E+03  0.78692183397E+02 0.  0.
          4    1    4    4  501    0 -0.32915580581E+02 -0.31511703440E+02 -0.27753500770E+02  0.53354284773E+02  0.00000000000E+00 0. -1.
         -3    1    4    4    0  501 -0.61794059625E+00  0.40596603547E+02 -0.46795545116E+02  0.61953927340E+02  0.00000000000E+00 0.  1.
          5    1    3    3  502    0  0.59642924723E+02 -0.75533555082E+02 -0.18673426252E+03  0.21012941539E+03  0.47000000000E+01 0. -1.
         11    1    6    6    0    0 -0.45883556879E+02  0.69383903695E+02 -0.27551327231E+02  0.87627064974E+02  0.00000000000E+00 0. -1.
        -12    1    6    6    0    0  0.30018195670E+02  0.39931684192E+02 -0.39394661308E+02  0.63620521951E+02  0.00000000000E+00 0.  1.
         -5    1    5    5    0  503 -0.10244042337E+02 -0.42866932913E+02 -0.62095965878E+02  0.76292288726E+02  0.47000000000E+01 0.  1.
<mgrwt>
<rscale>  2 0.19234010E+03</rscale>
<asrwt>0</asrwt>
<pdfrwt beam="1">  1       21 0.12511711E-01 0.19401207E+03</pdfrwt>
<pdfrwt beam="2">  1       21 0.72561751E-01 0.19401207E+03</pdfrwt>
<totfact> 0.93135030E+04</totfact>
</mgrwt>
</event>
<event>
12    1  0.1473662E-001  0.1761076E+03  0.7546771E-02  0.1171863E+00
         21   -1    0    0  504  503  0.00000000000E+00  0.00000000000E+00  0.64102413998E+02  0.64102413998E+02  0.00000000000E+00 0.  1.
         21   -1    0    0  502  504 -0.00000000000E+00 -0.00000000000E+00 -0.48142927732E+03  0.48142927732E+03  0.00000000000E+00 0.  1.
          6    2    1    2  502    0 -0.19604124321E+02 -0.25776686596E+02 -0.21413566430E+03  0.27664409378E+03  0.17213109143E+03 0.  0.
         24    2    3    3    0    0 -0.54783327819E+02  0.24413083286E+02 -0.69269476445E+02  0.11927544460E+03  0.76362030330E+02 0.  0.
         -6    2    1    2    0  503  0.19604124321E+02  0.25776686596E+02 -0.20319119902E+03  0.26888759754E+03  0.17310435433E+03 0.  0.
        -24    2    5    5    0    0  0.24294684652E+02  0.22408396040E+02 -0.22141735480E+02  0.87685100353E+02  0.78141234047E+02 0.  0.
          4    1    4    4  501    0 -0.75395526936E+01  0.28331978291E+01  0.16866989957E+02  0.18691367392E+02  0.00000000000E+00 0. -1.
         -3    1    4    4    0  501 -0.47243775125E+02  0.21579885457E+02 -0.86136466402E+02  0.10058407721E+03  0.00000000000E+00 0.  1.
          5    1    3    3  502    0  0.35179203498E+02 -0.50189769882E+02 -0.14486618785E+03  0.15736864917E+03  0.47000000000E+01 0. -1.
         13    1    6    6    0    0  0.46611353376E+01  0.48282626161E+02 -0.25899564838E+02  0.54988413602E+02  0.00000000000E+00 0. -1.
        -14    1    6    6    0    0  0.19633549314E+02 -0.25874230121E+02  0.37578293579E+01  0.32696686751E+02  0.00000000000E+00 0.  1.
         -5    1    5    5    0  503 -0.46905603306E+01  0.33682905560E+01 -0.18104946354E+03  0.18120249719E+03  0.47000000000E+01 0.  1.
<mgrwt>
<rscale>  2 0.17586794E+03</rscale>
<asrwt>0</asrwt>
<pdfrwt beam="1">  1       21 0.98619093E-02 0.17610757E+03</pdfrwt>
<pdfrwt beam="2">  1       21 0.74066047E-01 0.17610757E+03</pdfrwt>
<totfact> 0.13676411E+05</totfact>
</mgrwt>
</event>
<event>
12    1  0.1473662E-001  0.1808684E+03  0.7546771E-02  0.1167053E+00
         21   -1    0    0  504  503  0.00000000000E+00  0.00000000000E+00  0.90034189562E+03  0.90034189562E+03  0.00000000000E+00 0. -1.
         21   -1    0    0  502  504 -0.00000000000E+00 -0.00000000000E+00 -0.52491392927E+02  0.52491392927E+02  0.00000000000E+00 0. -1.
          6    2    1    2  502    0  0.13732825693E+02 -0.48587903480E+02  0.15930778237E+03  0.24102355653E+03  0.17367789270E+03 0.  0.
         24    2    3    3    0    0 -0.32102083638E+02 -0.82159488398E+02  0.82459254854E+02  0.14533825772E+03  0.80888535264E+02 0.  0.
         -6    2    1    2    0  503 -0.13732825693E+02  0.48587903480E+02  0.68854272033E+03  0.71180973202E+03  0.17329928454E+03 0.  0.
        -24    2    5    5    0    0 -0.32982591719E+02 -0.14497909687E+01  0.61220460127E+03  0.61840778997E+03  0.80893557409E+02 0.  0.
          2    1    4    4  501    0 -0.14595553280E+02 -0.96162338890E+02  0.66950794500E+02  0.11807893326E+03  0.00000000000E+00 0. -1.
         -1    1    4    4    0  501 -0.17506530358E+02  0.14002850492E+02  0.15508460354E+02  0.27259324453E+02  0.00000000000E+00 0.  1.
          5    1    3    3  502    0  0.45834909331E+02  0.33571584917E+02  0.76848527517E+02  0.95685298812E+02  0.47000000000E+01 0. -1.
         13    1    6    6    0    0 -0.42537890644E+02  0.31541882215E+02  0.35938402531E+03  0.36326469705E+03  0.00000000000E+00 0. -1.
        -14    1    6    6    0    0  0.95552989249E+01 -0.32991673184E+02  0.25282057597E+03  0.25514309293E+03  0.00000000000E+00 0.  1.
         -5    1    5    5    0  503  0.19249766026E+02  0.50037694449E+02  0.76338119052E+02  0.93401942047E+02  0.47000000000E+01 0.  1.
<mgrwt>
<rscale>  2 0.18077747E+03</rscale>
<asrwt>0</asrwt>
<pdfrwt beam="1">  1       21 0.13851413E+00 0.18086842E+03</pdfrwt>
<pdfrwt beam="2">  1       21 0.80755996E-02 0.18086842E+03</pdfrwt>
<totfact> 0.43709909E+04</totfact>
</mgrwt>
</event>
<event>
12    1  0.1473662E-001  0.1827801E+03  0.7546771E-02  0.1167417E+00
         21   -1    0    0  504  503  0.00000000000E+00  0.00000000000E+00  0.23572389460E+04  0.23572389460E+04  0.00000000000E+00 0.  1.
         21   -1    0    0  502  504 -0.00000000000E+00 -0.00000000000E+00 -0.27174113089E+02  0.27174113089E+02  0.00000000000E+00 0.  1.
          6    2    1    2  502    0 -0.74542888418E+01  0.22900033240E+02  0.33328763257E+03  0.38011738285E+03  0.18118664623E+03 0.  0.
         24    2    3    3    0    0 -0.20972688029E+02  0.63415419277E+02  0.31759553369E+03  0.33437270458E+03  0.80478652472E+02 0.  0.
         -6    2    1    2    0  503  0.74542888418E+01 -0.22900033240E+02  0.19967772003E+04  0.20042956763E+04  0.17176143939E+03 0.  0.
        -24    2    5    5    0    0  0.58591185907E+02 -0.46742954831E+02  0.15500184934E+04  0.15539636882E+04  0.81412429838E+02 0.  0.
          2    1    4    4  501    0 -0.18294285701E+01  0.34385935742E+02  0.28380322320E+03  0.28588460763E+03  0.00000000000E+00 0. -1.
         -1    1    4    4    0  501 -0.19143259459E+02  0.29029483535E+02  0.33792310495E+02  0.48488096948E+02  0.00000000000E+00 0.  1.
          5    1    3    3  502    0  0.13518399187E+02 -0.40515386037E+02  0.15692098881E+02  0.45744678265E+02  0.47000000000E+01 0. -1.
         11    1    6    6    0    0 -0.36990993983E+01 -0.26992674299E+02  0.15224851022E+03  0.15466705101E+03  0.00000000000E+00 0. -1.
        -12    1    6    6    0    0  0.62290285305E+02 -0.19750280532E+02  0.13977699831E+04  0.13992966372E+04  0.00000000000E+00 0.  1.
         -5    1    5    5    0  503 -0.51136897065E+02  0.23842921592E+02  0.44675870699E+03  0.45033198801E+03  0.47000000000E+01 0.  1.
<mgrwt>
<rscale>  2 0.18039938E+03</rscale>
<asrwt>0</asrwt>
<pdfrwt beam="1">  1       21 0.36265198E+00 0.18278014E+03</pdfrwt>
<pdfrwt beam="2">  1       21 0.41806346E-02 0.18278014E+03</pdfrwt>
<totfact> 0.54232788E+03</totfact>
</mgrwt>
</event>
<event>
12    1  0.1473662E-001  0.2540199E+03  0.7546771E-02  0.1111114E+00
         21   -1    0    0  504  503  0.00000000000E+00  0.00000000000E+00  0.12070502031E+03  0.12070502031E+03  0.00000000000E+00 0. -1.
         21   -1    0    0  502  504 -0.00000000000E+00 -0.00000000000E+00 -0.55575798647E+03  0.55575798647E+03  0.00000000000E+00 0. -1.
          6    2    1    2  502    0  0.18030262867E+03  0.35018409713E+02 -0.14414372577E+03  0.29025799118E+03  0.17244408034E+03 0.  0.
         24    2    3    3    0    0  0.16650042319E+03  0.81182463247E+02 -0.12849383820E+03  0.23937941322E+03  0.80491327210E+02 0.  0.
         -6    2    1    2    0  503 -0.18030262867E+03 -0.35018409713E+02 -0.29090924039E+03  0.38620501560E+03  0.17547307773E+03 0.  0.
        -24    2    5    5    0    0 -0.56209055487E+02  0.39042874851E+02 -0.15749539893E+03  0.18946754619E+03  0.80058393565E+02 0.  0.
          4    1    4    4  501    0  0.10646537157E+03  0.32601534156E+02 -0.32131777619E+02  0.11588868153E+03  0.00000000000E+00 0. -1.
         -3    1    4    4    0  501  0.60035051618E+02  0.48580929091E+02 -0.96362060581E+02  0.12349073169E+03  0.00000000000E+00 0.  1.
          5    1    3    3  502    0  0.13802205479E+02 -0.46164053535E+02 -0.15649887569E+02  0.50878577965E+02  0.47000000000E+01 0. -1.
         13    1    6    6    0    0 -0.59985265890E+02  0.35588420325E+02 -0.16570928009E+03  0.17978969184E+03  0.00000000000E+00 0. -1.
        -14    1    6    6    0    0  0.37762104030E+01  0.34544545266E+01  0.82138811598E+01  0.96778543485E+01  0.00000000000E+00 0.  1.
         -5    1    5    5    0  503 -0.12409357318E+03 -0.74061284564E+02 -0.13341384146E+03  0.19673746941E+03  0.47000000000E+01 0.  1.
<mgrwt>
<rscale>  2 0.25349761E+03</rscale>
<asrwt>0</asrwt>
<pdfrwt beam="1">  1       21 0.18570003E-01 0.25401994E+03</pdfrwt>
<pdfrwt beam="2">  1       21 0.85501228E-01 0.25401994E+03</pdfrwt>
<totfact> 0.30372038E+04</totfact>
</mgrwt>
</event>
<event>
12    1  0.1473662E-001  0.3249276E+03  0.7546771E-02  0.1073506E+00
         21   -1    0    0  504  503  0.00000000000E+00  0.00000000000E+00  0.21154702424E+04  0.21154702424E+04  0.00000000000E+00 0. -1.
         21   -1    0    0  502  504 -0.00000000000E+00 -0.00000000000E+00 -0.51789042223E+02  0.51789042223E+02  0.00000000000E+00 0.  1.
          6    2    1    2  502    0  0.68276801124E+02  0.26701449812E+03  0.81642109768E+03  0.87836995060E+03  0.17038749247E+03 0.  0.
         24    2    3    3    0    0 -0.15514614033E+02  0.84322297812E+02  0.23546358032E+03  0.26360888458E+03  0.81826604576E+02 0.  0.
         -6    2    1    2    0  503 -0.68276801124E+02 -0.26701449812E+03  0.12472601025E+04  0.12888893340E+04  0.17210313279E+03 0.  0.
        -24    2    5    5    0    0 -0.13280562301E+02 -0.69764092737E+02  0.62370529143E+03  0.63255481481E+03  0.77935237328E+02 0.  0.
          2    1    4    4  501    0 -0.14015738241E+02  0.18154052776E+02  0.16632088139E+03  0.16789474720E+03  0.00000000000E+00 0. -1.
         -1    1    4    4    0  501 -0.14988757919E+01  0.66168245036E+02  0.69142698933E+02  0.95714137385E+02  0.00000000000E+00 0.  1.
          5    1    3    3  502    0  0.83791415157E+02  0.18269220030E+03  0.58095751736E+03  0.61476106601E+03  0.47000000000E+01 0. -1.
         11    1    6    6    0    0  0.24934488828E+02 -0.80154191613E+01  0.84066059978E+02  0.88051565106E+02  0.00000000000E+00 0. -1.
        -12    1    6    6    0    0 -0.38215051129E+02 -0.61748673576E+02  0.53963923145E+03  0.54450324971E+03  0.00000000000E+00 0.  1.
         -5    1    5    5    0  503 -0.54996238823E+02 -0.19725040538E+03  0.62355481105E+03  0.65633451920E+03  0.47000000000E+01 0.  1.
<mgrwt>
<rscale>  2 0.32470101E+03</rscale>
<asrwt>0</asrwt>
<pdfrwt beam="1">  1       21 0.32545689E+00 0.32492761E+03</pdfrwt>
<pdfrwt beam="2">  1       21 0.79675466E-02 0.32492761E+03</pdfrwt>
<totfact> 0.25849712E+03</totfact>
</mgrwt>
</event>
<event>
12    1  0.1473662E-001  0.2871987E+03  0.7546771E-02  0.1092165E+00
         21   -1    0    0  504  503  0.00000000000E+00  0.00000000000E+00  0.65393095372E+03  0.65393095372E+03  0.00000000000E+00 0.  1.
         21   -1    0    0  502  504 -0.00000000000E+00 -0.00000000000E+00 -0.12603948328E+03  0.12603948328E+03  0.00000000000E+00 0.  1.
          6    2    1    2  502    0 -0.89083317252E+02 -0.20819025390E+03  0.30058941306E+03  0.41573683113E+03  0.17664681794E+03 0.  0.
         24    2    3    3    0    0 -0.11442313697E+03 -0.12891582560E+03  0.26166436440E+03  0.32373796778E+03  0.81400785157E+02 0.  0.
         -6    2    1    2    0  503  0.89083317252E+02  0.20819025390E+03  0.22730205737E+03  0.36423360586E+03  0.17239743364E+03 0.  0.
        -24    2    5    5    0    0  0.10457214688E+03  0.18972308422E+03  0.24381943025E+03  0.33463877852E+03  0.74866647686E+02 0.  0.
          4    1    4    4  501    0 -0.36099778512E+02 -0.51271448525E+02  0.16703804645E+03  0.17841991034E+03  0.00000000000E+00 0. -1.
         -3    1    4    4    0  501 -0.78323358457E+02 -0.77644377079E+02  0.94626317948E+02  0.14531805745E+03  0.00000000000E+00 0.  1.
          5    1    3    3  502    0  0.25339819717E+02 -0.79274428292E+02  0.38925048660E+02  0.91998863349E+02  0.47000000000E+01 0. -1.
         13    1    6    6    0    0 -0.10573888213E+02  0.33523061493E+02  0.37541806473E+02  0.51429466233E+02  0.00000000000E+00 0. -1.
        -14    1    6    6    0    0  0.11514603509E+03  0.15620002273E+03  0.20627762377E+03  0.28320931229E+03  0.00000000000E+00 0.  1.
         -5    1    5    5    0  503 -0.15488829624E+02  0.18467169674E+02 -0.16517372871E+02  0.29594827343E+02  0.47000000000E+01 0.  1.
<mgrwt>
<rscale>  2 0.28654805E+03</rscale>
<asrwt>0</asrwt>
<pdfrwt beam="1">  1       21 0.10060476E+00 0.28719874E+03</pdfrwt>
<pdfrwt beam="2">  1       21 0.19390690E-01 0.28719874E+03</pdfrwt>
<totfact> 0.18824638E+04</totfact>
</mgrwt>
</event>
<event>
12    1  0.1473662E-001  0.1964605E+03  0.7546771E-02  0.1153281E+00
         21   -1    0    0  504  503  0.00000000000E+00  0.00000000000E+00  0.74117013327E+03  0.74117013327E+03  0.00000000000E+00 0. -1.
         21   -1    0    0  502  504 -0.00000000000E+00 -0.00000000000E+00 -0.71521626873E+02  0.71521626873E+02  0.00000000000E+00 0. -1.
          6    2    1    2  502    0 -0.21247492439E+02 -0.89629317109E+02  0.54864785194E+03  0.58195836748E+03  0.17081043766E+03 0.  0.
         24    2    3    3    0    0 -0.71929876380E+01 -0.69775081394E+02  0.15781493398E+03  0.19034097825E+03  0.80023956161E+02 0.  0.
         -6    2    1    2    0  503  0.21247492439E+02  0.89629317109E+02  0.12100065445E+03  0.23073339267E+03  0.17352772024E+03 0.  0.
        -24    2    5    5    0    0  0.38452558996E+02  0.78546208055E+02  0.11036699526E+02  0.11878246143E+03  0.79620087375E+02 0.  0.
          2    1    4    4  501    0  0.27896226088E+02 -0.13735872888E+01  0.57797961355E+02  0.64192604783E+02  0.00000000000E+00 0. -1.
         -1    1    4    4    0  501 -0.35089213726E+02 -0.68401494105E+02  0.10001697263E+03  0.12614837347E+03  0.00000000000E+00 0.  1.
          5    1    3    3  502    0 -0.14054504801E+02 -0.19854235715E+02  0.39083291796E+03  0.39161738922E+03  0.47000000000E+01 0. -1.
         11    1    6    6    0    0  0.17595374924E+02  0.70974098067E+02 -0.24301793472E+02  0.77055155448E+02  0.00000000000E+00 0. -1.
        -12    1    6    6    0    0  0.20857184072E+02  0.75721099877E+01  0.35338492998E+02  0.41727305981E+02  0.00000000000E+00 0.  1.
         -5    1    5    5    0  503 -0.17205066557E+02  0.11083109054E+02  0.10996395493E+03  0.11195093124E+03  0.47000000000E+01 0.  1.
<mgrwt>
<rscale>  2 0.19585879E+03</rscale>
<asrwt>0</asrwt>
<pdfrwt beam="1">  1       21 0.11402617E+00 0.19646053E+03</pdfrwt>
<pdfrwt beam="2">  1       21 0.11003328E-01 0.19646053E+03</pdfrwt>
<totfact> 0.40912417E+04</totfact>
</mgrwt>
</event>
<event>
12    1  0.1473662E-001  0.2118393E+03  0.7546771E-02  0.1140306E+00
         21   -1    0    0  504  503  0.00000000000E+00  0.00000000000E+00  0.12807238947E+04  0.12807238947E+04  0.00000000000E+00 0.  1.
         21   -1    0    0  502  504 -0.00000000000E+00 -0.00000000000E+00 -0.96260689048E+02  0.96260689048E+02  0.00000000000E+00 0. -1.
          6    2    1    2  502    0  0.10230376487E+03 -0.63706522524E+02  0.11415218426E+04  0.11608368588E+04  0.17304772254E+03 0.  0.
         24    2    3    3    0    0 -0.45882621613E+00 -0.56527134499E+02  0.73717296770E+03  0.74354583760E+03  0.78999372388E+02 0.  0.
         -6    2    1    2    0  503 -0.10230376487E+03  0.63706522524E+02  0.42941363092E+02  0.21614772500E+03  0.17421623644E+03 0.  0.
        -24    2    5    5    0    0 -0.69452591104E+02  0.88082026525E+02 -0.21074875240E+02  0.14003245988E+03  0.81134663659E+02 0.  0.
          4    1    4    4  501    0 -0.34129930983E+01 -0.47323174408E+02  0.17581039150E+03  0.18210004151E+03  0.00000000000E+00 0. -1.
         -3    1    4    4    0  501  0.29541668821E+01 -0.92039600918E+01  0.56136257620E+03  0.56144579608E+03  0.00000000000E+00 0.  1.
          5    1    3    3  502    0  0.10276259109E+03 -0.71793880252E+01  0.40434887489E+03  0.41729102118E+03  0.47000000000E+01 0. -1.
         13    1    6    6    0    0 -0.80506136714E+01 -0.94114586185E+01 -0.21501890662E+02  0.24813690492E+02  0.00000000000E+00 0. -1.
        -14    1    6    6    0    0 -0.61401977432E+02  0.97493485143E+02  0.42701542204E+00  0.11521876939E+03  0.00000000000E+00 0.  1.
         -5    1    5    5    0  503 -0.32851173766E+02 -0.24375504000E+02  0.64016238332E+02  0.76115265113E+02  0.47000000000E+01 0.  1.
<mgrwt>
<rscale>  2 0.21159888E+03</rscale>
<asrwt>0</asrwt>
<pdfrwt beam="1">  1       21 0.19703443E+00 0.21183927E+03</pdfrwt>
<pdfrwt beam="2">  1       21 0.14809338E-01 0.21183927E+03</pdfrwt>
<totfact> 0.55389554E+03</totfact>
</mgrwt>
</event>
<event>
12    1  0.1473662E-001  0.3067545E+03  0.7546771E-02  0.1083092E+00
         21   -1    0    0  504  503  0.00000000000E+00  0.00000000000E+00  0.57338367570E+03  0.57338367570E+03  0.00000000000E+00 0.  1.
         21   -1    0    0  502  504 -0.00000000000E+00 -0.00000000000E+00 -0.33172214871E+03  0.33172214871E+03  0.00000000000E+00 0. -1.
          6    2    1    2  502    0  0.99603265533E+02 -0.21833524940E+03 -0.20658100309E+03  0.36194866422E+03  0.17532835782E+03 0.  0.
         24    2    3    3    0    0  0.21066623755E+02 -0.66869159446E+02 -0.16607311588E+02  0.10656253701E+03  0.78514230389E+02 0.  0.
         -6    2    1    2    0  503 -0.99603265533E+02  0.21833524940E+03  0.44824253008E+03  0.54315716019E+03  0.19106868727E+03 0.  0.
        -24    2    5    5    0    0 -0.10516953903E+03  0.73015044353E+02  0.15809423114E+03  0.21856962073E+03  0.79919112508E+02 0.  0.
          4    1    4    4  501    0  0.49132102999E+02 -0.52907264616E+02 -0.26543525303E+01  0.72250866996E+02  0.00000000000E+00 0. -1.
         -3    1    4    4    0  501 -0.28065479244E+02 -0.13961894830E+02 -0.13952959057E+02  0.34311670010E+02  0.00000000000E+00 0.  1.
          5    1    3    3  502    0  0.78536641778E+02 -0.15146608995E+03 -0.18997369151E+03  0.25538612721E+03  0.47000000000E+01 0. -1.
         11    1    6    6    0    0 -0.11032615884E+03  0.71662207955E+02  0.16424043105E+03  0.21043348727E+03  0.00000000000E+00 0. -1.
        -12    1    6    6    0    0  0.51566198101E+01  0.13528363981E+01 -0.61461999154E+01  0.81361334542E+01  0.00000000000E+00 0.  1.
         -5    1    5    5    0  503  0.55662734924E+01  0.14532020505E+03  0.29014829894E+03  0.32458753946E+03  0.47000000000E+01 0.  1.
<mgrwt>
<rscale>  2 0.30433889E+03</rscale>
<asrwt>0</asrwt>
<pdfrwt beam="1">  1       21 0.88212873E-01 0.30675452E+03</pdfrwt>
<pdfrwt beam="2">  1       21 0.51034177E-01 0.30675452E+03</pdfrwt>
<totfact> 0.37267127E+03</totfact>
</mgrwt>
</event>
<event>
12    1  0.1473662E-001  0.7368061E+03  0.7546771E-02  0.9657142E-01
         21   -1    0    0  504  503  0.00000000000E+00  0.00000000000E+00  0.15662691623E+04  0.15662691623E+04  0.00000000000E+00 0. -1.
         21   -1    0    0  502  504 -0.00000000000E+00 -0.00000000000E+00 -0.34654840209E+03  0.34654840209E+03  0.00000000000E+00 0.  1.
          6    2    1    2  502    0  0.56823218848E+03  0.43207774732E+03  0.66079244622E+03  0.98971200855E+03  0.18249439204E+03 0.  0.
         24    2    3    3    0    0  0.13431147067E+03  0.67773135248E+02  0.14656425117E+03  0.22455988883E+03  0.79456245418E+02 0.  0.
         -6    2    1    2    0  503 -0.56823218848E+03 -0.43207774732E+03  0.55892831401E+03  0.92310555586E+03  0.17362029634E+03 0.  0.
        -24    2    5    5    0    0 -0.28692145136E+03 -0.24473613254E+03  0.37716785742E+03  0.53931972362E+03  0.79940464060E+02 0.  0.
          2    1    4    4  501    0  0.21689392891E+02 -0.11657375645E+02  0.51660899674E+02  0.57229124806E+02  0.00000000000E+00 0. -1.
         -1    1    4    4    0  501  0.11262207778E+03  0.79430510894E+02  0.94903351495E+02  0.16733076402E+03  0.00000000000E+00 0.  1.
          5    1    3    3  502    0  0.43392071781E+03  0.36430461208E+03  0.51422819505E+03  0.76515211972E+03  0.47000000000E+01 0. -1.
         13    1    6    6    0    0 -0.21086528114E+03 -0.14013347429E+03  0.28043006818E+03  0.37781289092E+03  0.00000000000E+00 0. -1.
        -14    1    6    6    0    0 -0.76056170224E+02 -0.10460265825E+03  0.96737789237E+02  0.16150683270E+03  0.00000000000E+00 0.  1.
         -5    1    5    5    0  503 -0.28131073712E+03 -0.18734161479E+03  0.18176045659E+03  0.38378583224E+03  0.47000000000E+01 0.  1.
<mgrwt>
<rscale>  2 0.73626858E+03</rscale>
<asrwt>0</asrwt>
<pdfrwt beam="1">  1       21 0.24096448E+00 0.73680608E+03</pdfrwt>
<pdfrwt beam="2">  1       21 0.53315140E-01 0.73680608E+03</pdfrwt>
<totfact> 0.17683031E+02</totfact>
</mgrwt>
</event>
<event>
12    1  0.1473662E-001  0.3377746E+03  0.7546771E-02  0.1067792E+00
         21   -1    0    0  504  503  0.00000000000E+00  0.00000000000E+00  0.23914268542E+03  0.23914268542E+03  0.00000000000E+00 0. -1.
         21   -1    0    0  502  504 -0.00000000000E+00 -0.00000000000E+00 -0.73402601012E+03  0.73402601012E+03  0.00000000000E+00 0.  1.
          6    2    1    2  502    0 -0.16202670142E+03 -0.24062057706E+03 -0.53555385943E+03  0.63295435455E+03  0.17222765316E+03 0.  0.
         24    2    3    3    0    0 -0.57011110266E+02 -0.12923490238E+03 -0.16438271557E+03  0.23142583633E+03  0.81143785066E+02 0.  0.
         -6    2    1    2    0  503  0.16202670142E+03  0.24062057706E+03  0.40670534733E+02  0.34021434100E+03  0.17303407570E+03 0.  0.
        -24    2    5    5    0    0  0.72554006326E+02  0.11022852259E+03  0.82171370360E+02  0.17665438137E+03  0.83906050592E+02 0.  0.
          4    1    4    4  501    0 -0.46085673184E+02 -0.13988984987E+03 -0.14420051878E+03  0.20612338292E+03  0.00000000000E+00 0. -1.
         -3    1    4    4    0  501 -0.10925437082E+02  0.10654947487E+02 -0.20182196788E+02  0.25302453410E+02  0.00000000000E+00 0.  1.
          5    1    3    3  502    0 -0.10501559115E+03 -0.11138567468E+03 -0.37117114386E+03  0.40152851822E+03  0.47000000000E+01 0. -1.
         13    1    6    6    0    0  0.54686655185E+02  0.12124451487E+03  0.80784852514E+02  0.15561829917E+03  0.00000000000E+00 0. -1.
        -14    1    6    6    0    0  0.17867351141E+02 -0.11015992281E+02  0.13865178466E+01  0.21036082204E+02  0.00000000000E+00 0.  1.
         -5    1    5    5    0  503  0.89472695089E+02  0.13039205447E+03 -0.41500835627E+02  0.16355995963E+03  0.47000000000E+01 0.  1.
<mgrwt>
<rscale>  2 0.33767149E+03</rscale>
<asrwt>0</asrwt>
<pdfrwt beam="1">  1       21 0.36791183E-01 0.33777464E+03</pdfrwt>
<pdfrwt beam="2">  1       21 0.11292708E+00 0.33777464E+03</pdfrwt>
<totfact> 0.39856797E+03</totfact>
</mgrwt>
</event>
<event>
12    1  0.1473662E-001  0.1747370E+03  0.7546771E-02  0.1173305E+00
         21   -1    0    0  504  503  0.00000000000E+00  0.00000000000E+00  0.14143427840E+03  0.14143427840E+03  0.00000000000E+00 0.  1.
         21   -1    0    0  502  504 -0.00000000000E+00 -0.00000000000E+00 -0.31478298257E+03  0.31478298257E+03  0.00000000000E+00 0.  1.
          6    2    1    2  502    0  0.21545156726E+02  0.11673011582E+02 -0.21571472702E+03  0.27760736620E+03  0.17301026945E+03 0.  0.
         24    2    3    3    0    0  0.53606654172E+02  0.39310957471E+02 -0.20940893558E+03  0.23455334574E+03  0.82122743199E+02 0.  0.
         -6    2    1    2    0  503 -0.21545156726E+02 -0.11673011582E+02  0.42366022859E+02  0.17860989477E+03  0.17177357667E+03 0.  0.
        -24    2    5    5    0    0  0.21718087024E+02 -0.42761863573E+02 -0.20215357426E+02  0.96288912417E+02  0.81010133306E+02 0.  0.
          4    1    4    4  501    0  0.17819113831E+02  0.47110246877E+02 -0.49928008433E+02  0.70920393432E+02  0.00000000000E+00 0. -1.
         -3    1    4    4    0  501  0.35787540341E+02 -0.77992894056E+01 -0.15948092715E+03  0.16363295231E+03  0.00000000000E+00 0.  1.
          5    1    3    3  502    0 -0.32061497446E+02 -0.27637945889E+02 -0.63057914460E+01  0.43054020454E+02  0.47000000000E+01 0. -1.
         11    1    6    6    0    0 -0.17033152035E+02  0.23628680886E+00 -0.32884855019E+02  0.37035088623E+02  0.00000000000E+00 0. -1.
        -12    1    6    6    0    0  0.38751239059E+02 -0.42998150382E+02  0.12669497593E+02  0.59253823794E+02  0.00000000000E+00 0.  1.
         -5    1    5    5    0  503 -0.43263243750E+02  0.31088851991E+02  0.62581380285E+02  0.82320982357E+02  0.47000000000E+01 0.  1.
<mgrwt>
<rscale>  2 0.17443006E+03</rscale>
<asrwt>0</asrwt>
<pdfrwt beam="1">  1       21 0.21759120E-01 0.17473696E+03</pdfrwt>
<pdfrwt beam="2">  1       21 0.48428151E-01 0.17473696E+03</pdfrwt>
<totfact> 0.80847021E+04</totfact>
</mgrwt>
</event>
<event>
12    1  0.1473662E-001  0.2209206E+03  0.7546771E-02  0.1133235E+00
         21   -1    0    0  504  503  0.00000000000E+00  0.00000000000E+00  0.22553649976E+03  0.22553649976E+03  0.00000000000E+00 0.  1.
         21   -1    0    0  502  504 -0.00000000000E+00 -0.00000000000E+00 -0.75798203675E+03  0.75798203675E+03  0.00000000000E+00 0.  1.
          6    2    1    2  502    0  0.10287613561E+03  0.90227955923E+02 -0.68193915122E+03  0.71677102764E+03  0.17319098358E+03 0.  0.
         24    2    3    3    0    0  0.23183341717E+02  0.10223450198E+03 -0.51373488151E+03  0.53019700776E+03  0.78714533777E+02 0.  0.
         -6    2    1    2    0  503 -0.10287613561E+03 -0.90227955923E+02  0.14949361423E+03  0.26674750887E+03  0.17343964219E+03 0.  0.
        -24    2    5    5    0    0  0.15164870872E+02 -0.10772883081E+02  0.60729883197E+02  0.98974216119E+02  0.75906181730E+02 0.  0.
          2    1    4    4  501    0 -0.18085816981E+01  0.58731709377E+02 -0.41802598986E+03  0.42213553849E+03  0.00000000000E+00 0. -1.
         -1    1    4    4    0  501  0.24991923415E+02  0.43502792607E+02 -0.95708891643E+02  0.10806146927E+03  0.00000000000E+00 0.  1.
          5    1    3    3  502    0  0.79692793894E+02 -0.12006546061E+02 -0.16820426971E+03  0.18657401989E+03  0.47000000000E+01 0. -1.
         11    1    6    6    0    0  0.21860118701E+01 -0.30257701865E+02 -0.35689652350E+01  0.30545780116E+02  0.00000000000E+00 0. -1.
        -12    1    6    6    0    0  0.12978859002E+02  0.19484818784E+02  0.64298848432E+02  0.68428436002E+02  0.00000000000E+00 0.  1.
         -5    1    5    5    0  503 -0.11804100648E+03 -0.79455072842E+02  0.88763731037E+02  0.16777329275E+03  0.47000000000E+01 0.  1.
<mgrwt>
<rscale>  2 0.22087175E+03</rscale>
<asrwt>0</asrwt>
<pdfrwt beam="1">  1       21 0.34697922E-01 0.22092056E+03</pdfrwt>
<pdfrwt beam="2">  1       21 0.11661262E+00 0.22092056E+03</pdfrwt>
<totfact> 0.44366966E+03</totfact>
</mgrwt>
</event>
<event>
12    1  0.1473662E-001  0.1931817E+03  0.7546771E-02  0.1155739E+00
         21   -1    0    0  504  503  0.00000000000E+00  0.00000000000E+00  0.61460647683E+03  0.61460647683E+03  0.00000000000E+00 0. -1.
         21   -1    0    0  502  504 -0.00000000000E+00 -0.00000000000E+00 -0.86578443508E+02  0.86578443508E+02  0.00000000000E+00 0. -1.
          6    2    1    2  502    0  0.85280856588E+02 -0.39530229467E+00  0.72055084814E+02  0.20618225177E+03  0.17333841159E+03 0.  0.
         24    2    3    3    0    0  0.34549279197E+02  0.33984594777E+02 -0.10862453050E+02  0.10296850098E+03  0.90199301174E+02 0.  0.
         -6    2    1    2    0  503 -0.85280856588E+02  0.39530229467E+00  0.45597294851E+03  0.49500266857E+03  0.17275222532E+03 0.  0.
        -24    2    5    5    0    0 -0.81200555725E+02 -0.53002770445E+02  0.39073912149E+03  0.41047134174E+03  0.80042722365E+02 0.  0.
          4    1    4    4  501    0  0.42739524181E+02  0.52266521435E+02 -0.31239643909E+02  0.74393356839E+02  0.00000000000E+00 0. -1.
         -3    1    4    4    0  501 -0.81902449846E+01 -0.18281926658E+02  0.20377190859E+02  0.28575144139E+02  0.00000000000E+00 0.  1.
          5    1    3    3  502    0  0.50731577392E+02 -0.34379897071E+02  0.82917537864E+02  0.10321375079E+03  0.47000000000E+01 0. -1.
         13    1    6    6    0    0 -0.22840219965E+02 -0.26356325220E+01  0.24061580210E+03  0.24171178380E+03  0.00000000000E+00 0. -1.
        -14    1    6    6    0    0 -0.58360335760E+02 -0.50367137923E+02  0.15012331939E+03  0.16875955794E+03  0.00000000000E+00 0.  1.
         -5    1    5    5    0  503 -0.40803008636E+01  0.53398072739E+02  0.65233827019E+02  0.84531326826E+02  0.47000000000E+01 0.  1.
<mgrwt>
<rscale>  2 0.19305016E+03</rscale>
<asrwt>0</asrwt>
<pdfrwt beam="1">  1       21 0.94554840E-01 0.19318174E+03</pdfrwt>
<pdfrwt beam="2">  1       21 0.13319761E-01 0.19318174E+03</pdfrwt>
<totfact> 0.45558164E+04</totfact>
</mgrwt>
</event>
<event>
12    1  0.1473662E-001  0.1844291E+03  0.7546771E-02  0.1164399E+00
         21   -1    0    0  504  503  0.00000000000E+00  0.00000000000E+00  0.20833480121E+03  0.20833480121E+03  0.00000000000E+00 0. -1.
         21   -1    0    0  502  504 -0.00000000000E+00 -0.00000000000E+00 -0.19334684874E+03  0.19334684874E+03  0.00000000000E+00 0. -1.
          6    2    1    2  502    0 -0.61323568895E+02  0.55939366584E+01  0.90664607477E+02  0.20550947865E+03  0.17384534086E+03 0.  0.
         24    2    3    3    0    0  0.20961932953E+02 -0.24033536146E+02  0.38590199857E+01  0.82196904360E+02  0.75659933639E+02 0.  0.
         -6    2    1    2    0  503  0.61323568895E+02 -0.55939366584E+01 -0.75676654999E+02  0.19617217130E+03  0.17019016555E+03 0.  0.
        -24    2    5    5    0    0 -0.10270999854E+02 -0.46785893429E+02 -0.60635977667E+02  0.11208369675E+03  0.81188792499E+02 0.  0.
          4    1    4    4  501    0  0.85187953713E+01  0.23895921734E+02 -0.14693814779E+02  0.29317113481E+02  0.00000000000E+00 0. -1.
         -3    1    4    4    0  501  0.12443137581E+02 -0.47929457880E+02  0.18552834764E+02  0.52879790879E+02  0.00000000000E+00 0.  1.
          5    1    3    3  502    0 -0.82285501848E+02  0.29627472805E+02  0.86805587492E+02  0.12331257429E+03  0.47000000000E+01 0. -1.
         11    1    6    6    0    0  0.34312200257E+02 -0.11732676415E+02 -0.14811605530E+02  0.39170989785E+02  0.00000000000E+00 0. -1.
        -12    1    6    6    0    0 -0.44583200111E+02 -0.35053217015E+02 -0.45824372137E+02  0.72912706965E+02  0.00000000000E+00 0.  1.
         -5    1    5    5    0  503  0.71594568749E+02  0.41191956771E+02 -0.15040677332E+02  0.84088474546E+02  0.47000000000E+01 0.  1.
<mgrwt>
<rscale>  2 0.18356264E+03</rscale>
<asrwt>0</asrwt>
<pdfrwt beam="1">  1       21 0.32051508E-01 0.18442905E+03</pdfrwt>
<pdfrwt beam="2">  1       21 0.29745669E-01 0.18442905E+03</pdfrwt>
<totfact> 0.10174906E+05</totfact>
</mgrwt>
</event>
<event>
12    1  0.1473662E-001  0.1773966E+03  0.7546771E-02  0.1171911E+00
         21   -1    0    0  504  503  0.00000000000E+00  0.00000000000E+00  0.11727084655E+03  0.11727084655E+03  0.00000000000E+00 0. -1.
         21   -1    0    0  502  504 -0.00000000000E+00 -0.00000000000E+00 -0.27077588718E+03  0.27077588718E+03  0.00000000000E+00 0. -1.
          6    2    1    2  502    0  0.26231578423E+02 -0.24072118544E+02 -0.11848743933E+03  0.21332800707E+03  0.17378723407E+03 0.  0.
         24    2    3    3    0    0 -0.19565641200E+02  0.10659754772E+02 -0.19373201242E+01  0.83290671526E+02  0.80231777162E+02 0.  0.
         -6    2    1    2    0  503 -0.26231578423E+02  0.24072118544E+02 -0.35017601296E+02  0.17471872666E+03  0.16743010018E+03 0.  0.
        -24    2    5    5    0    0 -0.43814213845E+02  0.35550972061E+02 -0.78996100348E+02  0.12575842105E+03  0.79945229036E+02 0.  0.
          2    1    4    4  501    0  0.32651774620E+01  0.42819322096E+02  0.50408230890E+01  0.43238473909E+02  0.00000000000E+00 0. -1.
         -1    1    4    4    0  501 -0.22830818662E+02 -0.32159567324E+02 -0.69781432132E+01  0.40052197617E+02  0.00000000000E+00 0.  1.
          5    1    3    3  502    0  0.45797219622E+02 -0.34731873316E+02 -0.11655011920E+03  0.13003733554E+03  0.47000000000E+01 0. -1.
         13    1    6    6    0    0 -0.64542610126E+02  0.16881442751E+02 -0.39916654696E+02  0.77743623232E+02  0.00000000000E+00 0. -1.
        -14    1    6    6    0    0  0.20728396281E+02  0.18669529310E+02 -0.39079445652E+02  0.48014797818E+02  0.00000000000E+00 0.  1.
         -5    1    5    5    0  503  0.17582635422E+02 -0.11478853516E+02  0.43978499052E+02  0.48960305609E+02  0.47000000000E+01 0.  1.
<mgrwt>
<rscale>  2 0.17581998E+03</rscale>
<asrwt>0</asrwt>
<pdfrwt beam="1">  1       21 0.18041669E-01 0.17739663E+03</pdfrwt>
<pdfrwt beam="2">  1       21 0.41657828E-01 0.17739663E+03</pdfrwt>
<totfact> 0.15584847E+05</totfact>
</mgrwt>
</event>
<event>
12    1  0.1473662E-001  0.2342585E+03  0.7546771E-02  0.1124452E+00
         21   -1    0    0  504  503  0.00000000000E+00  0.00000000000E+00  0.32535978501E+03  0.32535978501E+03  0.00000000000E+00 0.  1.
         21   -1    0    0  502  504 -0.00000000000E+00 -0.00000000000E+00 -0.16736065539E+03  0.16736065539E+03  0.00000000000E+00 0.  1.
          6    2    1    2  502    0  0.82769631400E+02  0.13412281713E+03  0.52061612001E+02  0.23562166427E+03  0.16723461146E+03 0.  0.
         24    2    3    3    0    0  0.78652810402E+02  0.76327251561E+02 -0.26395939124E+02  0.13797458063E+03  0.79549515286E+02 0.  0.
         -6    2    1    2    0  503 -0.82769631400E+02 -0.13412281713E+03  0.10593751762E+03  0.25709877613E+03  0.17331266859E+03 0.  0.
        -24    2    5    5    0    0 -0.11295037376E+03 -0.61989325180E+02  0.93861405859E+02  0.17783945274E+03  0.78844429555E+02 0.  0.
          2    1    4    4  501    0  0.45938401123E+02  0.69192181500E+01  0.17418896727E+02  0.49614818761E+02  0.00000000000E+00 0. -1.
         -1    1    4    4    0  501  0.32714409280E+02  0.69408033411E+02 -0.43814835852E+02  0.88359761867E+02  0.00000000000E+00 0.  1.
          5    1    3    3  502    0  0.41168209974E+01  0.57795565570E+02  0.78457551126E+02  0.97647083639E+02  0.47000000000E+01 0. -1.
         11    1    6    6    0    0 -0.86583918618E+02 -0.66394163921E+02  0.37351978669E+02  0.11532619077E+03  0.00000000000E+00 0. -1.
        -12    1    6    6    0    0 -0.26366455138E+02  0.44048387409E+01  0.56509427190E+02  0.62513261971E+02  0.00000000000E+00 0.  1.
         -5    1    5    5    0  503  0.30180742356E+02 -0.72133491951E+02  0.12076111759E+02  0.79259323398E+02  0.47000000000E+01 0.  1.
<mgrwt>
<rscale>  2 0.23313531E+03</rscale>
<asrwt>0</asrwt>
<pdfrwt beam="1">  1       21 0.50055351E-01 0.23425845E+03</pdfrwt>
<pdfrwt beam="2">  1       21 0.25747793E-01 0.23425845E+03</pdfrwt>
<totfact> 0.53411036E+04</totfact>
</mgrwt>
</event>
<event>
12    1  0.1473662E-001  0.1766058E+03  0.7546771E-02  0.1171237E+00
         21   -1    0    0  504  503  0.00000000000E+00  0.00000000000E+00  0.84181075174E+02  0.84181075174E+02  0.00000000000E+00 0.  1.
         21   -1    0    0  502  504 -0.00000000000E+00 -0.00000000000E+00 -0.37071354933E+03  0.37071354933E+03  0.00000000000E+00 0.  1.
          6    2    1    2  502    0 -0.25819959039E+02 -0.23765917533E+02 -0.13056878994E+03  0.21927990294E+03  0.17263828604E+03 0.  0.
         24    2    3    3    0    0  0.94918099798E+01 -0.51199665116E+02 -0.14401577949E+03  0.17234970940E+03  0.79071976228E+02 0.  0.
         -6    2    1    2    0  503  0.25819959039E+02  0.23765917533E+02 -0.15596368422E+03  0.23561472157E+03  0.17308419079E+03 0.  0.
        -24    2    5    5    0    0 -0.24393650235E+02  0.63148898950E+02 -0.58188396273E+02  0.11876215328E+03  0.78330875014E+02 0.  0.
          2    1    4    4  501    0  0.42037694635E+02 -0.37930631530E+02 -0.10848714266E+03  0.12237385628E+03  0.00000000000E+00 0. -1.
         -1    1    4    4    0  501 -0.32545884655E+02 -0.13269033586E+02 -0.35528636829E+02  0.49975853121E+02  0.00000000000E+00 0.  1.
          5    1    3    3  502    0 -0.35311769019E+02  0.27433747583E+02  0.13446989551E+02  0.46930193540E+02  0.47000000000E+01 0. -1.
         11    1    6    6    0    0  0.12075712134E+02  0.65585725482E+02 -0.33278546048E+02  0.74530341725E+02  0.00000000000E+00 0. -1.
        -12    1    6    6    0    0 -0.36469362369E+02 -0.24368265324E+01 -0.24909850225E+02  0.44231811555E+02  0.00000000000E+00 0.  1.
         -5    1    5    5    0  503  0.50213609273E+02 -0.39382981418E+02 -0.97775287948E+02  0.11685256829E+03  0.47000000000E+01 0.  1.
<mgrwt>
<rscale>  2 0.17649650E+03</rscale>
<asrwt>0</asrwt>
<pdfrwt beam="1">  1       21 0.12950935E-01 0.17660585E+03</pdfrwt>
<pdfrwt beam="2">  1       21 0.57032852E-01 0.17660585E+03</pdfrwt>
<totfact> 0.14859179E+05</totfact>
</mgrwt>
</event>
<event>
12    1  0.1473662E-001  0.1813897E+03  0.7546771E-02  0.1166644E+00
         21   -1    0    0  504  503  0.00000000000E+00  0.00000000000E+00  0.14427674199E+04  0.14427674199E+04  0.00000000000E+00 0. -1.
         21   -1    0    0  502  504 -0.00000000000E+00 -0.00000000000E+00 -0.27725895044E+02  0.27725895044E+02  0.00000000000E+00 0. -1.
          6    2    1    2  502    0 -0.49066306799E+02 -0.21993647656E+02  0.39602411935E+03  0.43558846576E+03  0.17323678996E+03 0.  0.
         24    2    3    3    0    0 -0.12091275679E+01 -0.70347646565E+02  0.18193768632E+03  0.21090310882E+03  0.80178215503E+02 0.  0.
         -6    2    1    2    0  503  0.49066306799E+02  0.21993647656E+02  0.10190174055E+04  0.10349048492E+04  0.17245391018E+03 0.  0.
        -24    2    5    5    0    0  0.60357472377E+02 -0.69119643946E+01  0.97995309181E+03  0.98479361857E+03  0.76286363924E+02 0.  0.
          4    1    4    4  501    0 -0.28207807772E+02 -0.68249615060E+02  0.98029738178E+02  0.12273353227E+03  0.00000000000E+00 0. -1.
         -3    1    4    4    0  501  0.26998680204E+02 -0.20980315049E+01  0.83907948144E+02  0.88169576559E+02  0.00000000000E+00 0.  1.
          5    1    3    3  502    0 -0.47857179231E+02  0.48353998909E+02  0.21408643303E+03  0.22468535694E+03  0.47000000000E+01 0. -1.
         11    1    6    6    0    0  0.34792663937E+02 -0.18653000356E+02  0.17704906728E+03  0.18139690216E+03  0.00000000000E+00 0. -1.
        -12    1    6    6    0    0  0.25564808440E+02  0.11741035961E+02  0.80290402452E+03  0.80339671642E+03  0.00000000000E+00 0.  1.
         -5    1    5    5    0  503 -0.11291165578E+02  0.28905612050E+02  0.39064313694E+02  0.50111230602E+02  0.47000000000E+01 0.  1.
<mgrwt>
<rscale>  2 0.18120248E+03</rscale>
<asrwt>0</asrwt>
<pdfrwt beam="1">  1       21 0.22196416E+00 0.18138966E+03</pdfrwt>
<pdfrwt beam="2">  1       21 0.42655235E-02 0.18138966E+03</pdfrwt>
<totfact> 0.34713664E+04</totfact>
</mgrwt>
</event>
<event>
12    1  0.1473662E-001  0.2748971E+03  0.7546771E-02  0.1099158E+00
         21   -1    0    0  504  503  0.00000000000E+00  0.00000000000E+00  0.26748159715E+03  0.26748159715E+03  0.00000000000E+00 0. -1.
         21   -1    0    0  502  504 -0.00000000000E+00 -0.00000000000E+00 -0.62601281980E+03  0.62601281980E+03  0.00000000000E+00 0.  1.
          6    2    1    2  502    0 -0.54828790412E+02  0.20748184582E+03 -0.51311468726E+03  0.58211263742E+03  0.17179501667E+03 0.  0.
         24    2    3    3    0    0 -0.37329771579E+02  0.14204558252E+03 -0.47695237971E+03  0.50518460155E+03  0.78469419352E+02 0.  0.
         -6    2    1    2    0  503  0.54828790412E+02 -0.20748184582E+03  0.15458346461E+03  0.31138177954E+03  0.16434005140E+03 0.  0.
        -24    2    5    5    0    0  0.24354950505E+02 -0.22039387096E+03  0.12724968158E+03  0.26820075354E+03  0.81071207992E+02 0.  0.
          2    1    4    4  501    0 -0.11045683984E+02  0.11367619254E+02 -0.16745639347E+03  0.16820485610E+03  0.00000000000E+00 0. -1.
         -1    1    4    4    0  501 -0.26284087595E+02  0.13067796327E+03 -0.30949598624E+03  0.33697974545E+03  0.00000000000E+00 0.  1.
          5    1    3    3  502    0 -0.17499018833E+02  0.65436263301E+02 -0.36162307553E+02  0.76928035868E+02  0.47000000000E+01 0. -1.
         13    1    6    6    0    0  0.20407782263E+02 -0.42930705831E+02  0.64085905921E+02  0.79790515839E+02  0.00000000000E+00 0. -1.
        -14    1    6    6    0    0  0.39471682417E+01 -0.17746316513E+03  0.63163775662E+02  0.18841023770E+03  0.00000000000E+00 0.  1.
         -5    1    5    5    0  503  0.30473839908E+02  0.12912025135E+02  0.27333783027E+02  0.43181025999E+02  0.47000000000E+01 0.  1.
<mgrwt>
<rscale>  2 0.27374080E+03</rscale>
<asrwt>0</asrwt>
<pdfrwt beam="1">  1       21 0.41151015E-01 0.27489715E+03</pdfrwt>
<pdfrwt beam="2">  1       21 0.96309663E-01 0.27489715E+03</pdfrwt>
<totfact> 0.48250440E+03</totfact>
</mgrwt>
</event>
<event>
12    1  0.1473662E-001  0.1985062E+03  0.7546771E-02  0.1152190E+00
         21   -1    0    0  504  503  0.00000000000E+00  0.00000000000E+00  0.53695179781E+02  0.53695179781E+02  0.00000000000E+00 0.  1.
         21   -1    0    0  502  504 -0.00000000000E+00 -0.00000000000E+00 -0.11713657338E+04  0.11713657338E+04  0.00000000000E+00 0.  1.
          6    2    1    2  502    0  0.52370958824E+02 -0.81748200322E+02 -0.93690375789E+03  0.95658123637E+03  0.16683382347E+03 0.  0.
         24    2    3    3    0    0  0.96435659775E+02 -0.58168898020E+02 -0.76106738691E+03  0.77372008488E+03  0.82071585545E+02 0.  0.
         -6    2    1    2    0  503 -0.52370958824E+02  0.81748200322E+02 -0.18076679618E+03  0.26847967726E+03  0.17314507476E+03 0.  0.
        -24    2    5    5    0    0 -0.46850324779E+00  0.42029859981E+02 -0.16820037460E+02  0.91923620582E+02  0.80001935823E+02 0.  0.
          2    1    4    4  501    0  0.29478726147E+02 -0.45459999349E+02 -0.16270829300E+03  0.17149226061E+03  0.00000000000E+00 0. -1.
         -1    1    4    4    0  501  0.66956933628E+02 -0.12708898670E+02 -0.59835909391E+03  0.60222782427E+03  0.00000000000E+00 0.  1.
          5    1    3    3  502    0 -0.44064700951E+02 -0.23579302302E+02 -0.17583637097E+03  0.18286115149E+03  0.47000000000E+01 0. -1.
         11    1    6    6    0    0  0.39397016603E+02  0.26566542019E+02 -0.67511218227E+01  0.47994621760E+02  0.00000000000E+00 0. -1.
        -12    1    6    6    0    0 -0.39865519851E+02  0.15463317962E+02 -0.10068915638E+02  0.43928998822E+02  0.00000000000E+00 0.  1.
         -5    1    5    5    0  503 -0.51902455576E+02  0.39718340341E+02 -0.16394675872E+03  0.17655605667E+03  0.47000000000E+01 0.  1.
<mgrwt>
<rscale>  2 0.19712170E+03</rscale>
<asrwt>0</asrwt>
<pdfrwt beam="1">  1       21 0.82607976E-02 0.19850618E+03</pdfrwt>
<pdfrwt beam="2">  1       21 0.18021010E+00 0.19850618E+03</pdfrwt>
<totfact> 0.20494003E+04</totfact>
</mgrwt>
</event>
<event>
12    1  0.1473662E-001  0.1798397E+03  0.7546771E-02  0.1168099E+00
         21   -1    0    0  504  503  0.00000000000E+00  0.00000000000E+00  0.19904905816E+03  0.19904905816E+03  0.00000000000E+00 0. -1.
         21   -1    0    0  502  504 -0.00000000000E+00 -0.00000000000E+00 -0.16213944549E+03  0.16213944549E+03  0.00000000000E+00 0. -1.
          6    2    1    2  502    0 -0.77797434288E+01  0.43789009315E+02  0.24438771504E+02  0.18091697410E+03  0.17365395538E+03 0.  0.
         24    2    3    3    0    0 -0.12078115060E+01  0.18248466691E+01  0.74248996945E+02  0.11528672349E+03  0.88166468640E+02 0.  0.
         -6    2    1    2    0  503  0.77797434288E+01 -0.43789009315E+02  0.12470841158E+02  0.18027152955E+03  0.17425355303E+03 0.  0.
        -24    2    5    5    0    0 -0.30375280644E+01  0.29768219371E+02  0.47025017720E+02  0.98151127870E+02  0.80789344281E+02 0.  0.
          2    1    4    4  501    0 -0.16803634397E+02 -0.39731598513E+02  0.43684761887E+02  0.61394791884E+02  0.00000000000E+00 0. -1.
         -1    1    4    4    0  501  0.15595822891E+02  0.41556445183E+02  0.30564235058E+02  0.53891931609E+02  0.00000000000E+00 0.  1.
          5    1    3    3  502    0 -0.65719319228E+01  0.41964162646E+02 -0.49810225442E+02  0.65630250604E+02  0.47000000000E+01 0. -1.
         11    1    6    6    0    0  0.11887772241E+02  0.11567552403E+01  0.61596189928E+02  0.62743508232E+02  0.00000000000E+00 0. -1.
        -12    1    6    6    0    0 -0.14925300306E+02  0.28611464130E+02 -0.14571172209E+02  0.35407619638E+02  0.00000000000E+00 0.  1.
         -5    1    5    5    0  503  0.10817271493E+02 -0.73557228686E+02 -0.34554176561E+02  0.82120401681E+02  0.47000000000E+01 0.  1.
<mgrwt>
<rscale>  2 0.17969425E+03</rscale>
<asrwt>0</asrwt>
<pdfrwt beam="1">  1       21 0.30622932E-01 0.17983966E+03</pdfrwt>
<pdfrwt beam="2">  1       21 0.24944530E-01 0.17983966E+03</pdfrwt>
<totfact> 0.15635099E+05</totfact>
</mgrwt>
</event>
<event>
12    1  0.1473662E-001  0.1736707E+03  0.7546771E-02  0.1176317E+00
         21   -1    0    0  504  503  0.00000000000E+00  0.00000000000E+00  0.31507007917E+02  0.31507007917E+02  0.00000000000E+00 0. -1.
         21   -1    0    0  502  504 -0.00000000000E+00 -0.00000000000E+00 -0.99498436717E+03  0.99498436717E+03  0.00000000000E+00 0. -1.
          6    2    1    2  502    0 -0.13145911727E+02 -0.14673892069E+02 -0.34335521640E+03  0.38477826322E+03  0.17254961348E+03 0.  0.
         24    2    3    3    0    0  0.10061052679E+01  0.40329613197E+02 -0.30142203510E+03  0.31402413351E+03  0.78284246400E+02 0.  0.
         -6    2    1    2    0  503  0.13145911727E+02  0.14673892069E+02 -0.62012214285E+03  0.64171311187E+03  0.16387833227E+03 0.  0.
        -24    2    5    5    0    0 -0.44548115405E+02  0.18614073667E+02 -0.49295496150E+03  0.50193576102E+03  0.81264357492E+02 0.  0.
          2    1    4    4  501    0  0.57231762170E+01  0.44147177734E+02 -0.72871912772E+02  0.85393464146E+02  0.00000000000E+00 0. -1.
         -1    1    4    4    0  501 -0.47170709492E+01 -0.38175645370E+01 -0.22855012233E+03  0.22863066937E+03  0.00000000000E+00 0.  1.
          5    1    3    3  502    0 -0.14152016995E+02 -0.55003505266E+02 -0.41933181302E+02  0.70754129708E+02  0.47000000000E+01 0. -1.
         13    1    6    6    0    0 -0.32873541001E+02  0.47997801342E+02 -0.23702165803E+03  0.24405680692E+03  0.00000000000E+00 0. -1.
        -14    1    6    6    0    0 -0.11674574404E+02 -0.29383727675E+02 -0.25593330347E+03  0.25787895410E+03  0.00000000000E+00 0.  1.
         -5    1    5    5    0  503  0.57694027132E+02 -0.39401815978E+01 -0.12716718135E+03  0.13977735085E+03  0.47000000000E+01 0.  1.
<mgrwt>
<rscale>  2 0.17147635E+03</rscale>
<asrwt>0</asrwt>
<pdfrwt beam="1">  1       21 0.48472326E-02 0.17367069E+03</pdfrwt>
<pdfrwt beam="2">  1       21 0.15307450E+00 0.17367069E+03</pdfrwt>
<totfact> 0.81109557E+04</totfact>
</mgrwt>
</event>
<event>
12    1  0.1473662E-001  0.1783919E+03  0.7546771E-02  0.1169429E+00
         21   -1    0    0  504  503  0.00000000000E+00  0.00000000000E+00  0.16465850173E+04  0.16465850173E+04  0.00000000000E+00 0.  1.
         21   -1    0    0  502  504 -0.00000000000E+00 -0.00000000000E+00 -0.10927692798E+03  0.10927692798E+03  0.00000000000E+00 0.  1.
          6    2    1    2  502    0 -0.43524485578E+02 -0.97199226747E+01 -0.28076346970E+02  0.18034548543E+03  0.17247421579E+03 0.  0.
         24    2    3    3    0    0 -0.78344303468E+02  0.27090238683E+02  0.12029605011E+02  0.11555362574E+03  0.79600364996E+02 0.  0.
         -6    2    1    2    0  503  0.43524485578E+02  0.97199226747E+01  0.15653844363E+04  0.15755164598E+04  0.17272760093E+03 0.  0.
        -24    2    5    5    0    0 -0.31013282347E+02  0.38992106363E+02  0.98219374737E+03  0.98683470437E+03  0.81584118166E+02 0.  0.
          4    1    4    4  501    0 -0.35878302234E+02  0.42383555042E+02 -0.21268832019E+02  0.59464119640E+02  0.00000000000E+00 0. -1.
         -3    1    4    4    0  501 -0.42466001235E+02 -0.15293316359E+02  0.33298437030E+02  0.56089506102E+02  0.00000000000E+00 0.  1.
          5    1    3    3  502    0  0.34819817891E+02 -0.36810161358E+02 -0.40105951981E+02  0.64791859685E+02  0.47000000000E+01 0. -1.
         13    1    6    6    0    0  0.19241858132E+02  0.35536479466E+02  0.28881207588E+03  0.29162562585E+03  0.00000000000E+00 0. -1.
        -14    1    6    6    0    0 -0.50255140479E+02  0.34556268973E+01  0.69338167149E+03  0.69520907853E+03  0.00000000000E+00 0.  1.
         -5    1    5    5    0  503  0.74537767925E+02 -0.29272183689E+02  0.58319068890E+03  0.58868175546E+03  0.47000000000E+01 0.  1.
<mgrwt>
<rscale>  2 0.17833057E+03</rscale>
<asrwt>0</asrwt>
<pdfrwt beam="1">  1       21 0.25332075E+00 0.17839193E+03</pdfrwt>
<pdfrwt beam="2">  1       21 0.16811836E-01 0.17839193E+03</pdfrwt>
<totfact> 0.20591455E+03</totfact>
</mgrwt>
</event>
<event>
12    1  0.1473662E-001  0.1932259E+03  0.7546771E-02  0.1155686E+00
         21   -1    0    0  504  503  0.00000000000E+00  0.00000000000E+00  0.44678784527E+03  0.44678784527E+03  0.00000000000E+00 0. -1.
         21   -1    0    0  502  504 -0.00000000000E+00 -0.00000000000E+00 -0.96152177905E+02  0.96152177905E+02  0.00000000000E+00 0. -1.
          6    2    1    2  502    0  0.76671472106E+02  0.38359434079E+02  0.27413235275E+03  0.33512040362E+03  0.17264755219E+03 0.  0.
         24    2    3    3    0    0  0.10771688436E+03 -0.30229157035E+01  0.23343965891E+03  0.26913326981E+03  0.79539784842E+02 0.  0.
         -6    2    1    2    0  503 -0.76671472106E+02 -0.38359434079E+02  0.76503314614E+02  0.20781961956E+03  0.17316545934E+03 0.  0.
        -24    2    5    5    0    0 -0.70146938143E+02  0.37805455525E+02  0.25865751231E+02  0.11600506310E+03  0.80238969211E+02 0.  0.
          4    1    4    4  501    0  0.11088157882E+03 -0.37505401981E+01  0.15493454526E+03  0.19056102537E+03  0.00000000000E+00 0. -1.
         -3    1    4    4    0  501 -0.31646944588E+01  0.72762449462E+00  0.78505113648E+02  0.78572244446E+02  0.00000000000E+00 0.  1.
          5    1    3    3  502    0 -0.31045412256E+02  0.41382349783E+02  0.40692693846E+02  0.65987133807E+02  0.47000000000E+01 0. -1.
         11    1    6    6    0    0 -0.29354312526E+02  0.22301145906E+02  0.53042423545E+02  0.64595011170E+02  0.00000000000E+00 0. -1.
        -12    1    6    6    0    0 -0.40792625617E+02  0.15504309620E+02 -0.27176672313E+02  0.51410051931E+02  0.00000000000E+00 0.  1.
         -5    1    5    5    0  503 -0.65245339633E+01 -0.76164889605E+02  0.50637563383E+02  0.91814556457E+02  0.47000000000E+01 0.  1.
<mgrwt>
<rscale>  2 0.19310977E+03</rscale>
<asrwt>0</asrwt>
<pdfrwt beam="1">  1       21 0.68736590E-01 0.19322587E+03</pdfrwt>
<pdfrwt beam="2">  1       21 0.14792643E-01 0.19322587E+03</pdfrwt>
<totfact> 0.77587317E+04</totfact>
</mgrwt>
</event>
<event>
12    1  0.1473662E-001  0.3288854E+03  0.7546771E-02  0.1071756E+00
         21   -1    0    0  504  503  0.00000000000E+00  0.00000000000E+00  0.16352722217E+03  0.16352722217E+03  0.00000000000E+00 0.  1.
         21   -1    0    0  502  504 -0.00000000000E+00 -0.00000000000E+00 -0.87136940725E+03  0.87136940725E+03  0.00000000000E+00 0.  1.
          6    2    1    2  502    0 -0.16853947666E+03  0.22221297205E+03 -0.60971847625E+03  0.69276417321E+03  0.17430266570E+03 0.  0.
         24    2    3    3    0    0 -0.15076577919E+02  0.60287081366E+02 -0.14983639114E+03  0.18160423977E+03  0.81653661327E+02 0.  0.
         -6    2    1    2    0  503  0.16853947666E+03 -0.22221297205E+03 -0.98123708823E+02  0.34213245621E+03  0.17216908903E+03 0.  0.
        -24    2    5    5    0    0  0.49476338163E+02 -0.28916100294E+02 -0.47258729576E+02  0.10943297685E+03  0.80362553514E+02 0.  0.
          4    1    4    4  501    0  0.15869268230E+02  0.31381415346E+02 -0.11603438941E+02  0.37030618392E+02  0.00000000000E+00 0. -1.
         -3    1    4    4    0  501 -0.30945846149E+02  0.28905666020E+02 -0.13823295220E+03  0.14457362137E+03  0.00000000000E+00 0.  1.
          5    1    3    3  502    0 -0.15346289874E+03  0.16192589068E+03 -0.45988208511E+03  0.51115993345E+03  0.47000000000E+01 0. -1.
         13    1    6    6    0    0 -0.34564923040E+01  0.21720563645E+02  0.47737465493E+00  0.21999047949E+02  0.00000000000E+00 0. -1.
        -14    1    6    6    0    0  0.52932830467E+02 -0.50636663939E+02 -0.47736104230E+02  0.87433928902E+02  0.00000000000E+00 0.  1.
         -5    1    5    5    0  503  0.11906313850E+03 -0.19329687175E+03 -0.50864979247E+02  0.23269947936E+03  0.47000000000E+01 0.  1.
<mgrwt>
<rscale>  2 0.32860356E+03</rscale>
<asrwt>0</asrwt>
<pdfrwt beam="1">  1       21 0.25158035E-01 0.32888536E+03</pdfrwt>
<pdfrwt beam="2">  1       21 0.13405683E+00 0.32888536E+03</pdfrwt>
<totfact> 0.54970367E+03</totfact>
</mgrwt>
</event>
<event>
12    1  0.1473662E-001  0.2838337E+03  0.7546771E-02  0.1094176E+00
         21   -1    0    0  504  503  0.00000000000E+00  0.00000000000E+00  0.27185411797E+03  0.27185411797E+03  0.00000000000E+00 0.  1.
         21   -1    0    0  502  504 -0.00000000000E+00 -0.00000000000E+00 -0.29281650211E+03  0.29281650211E+03  0.00000000000E+00 0.  1.
          6    2    1    2  502    0  0.15819954381E+03 -0.16088046370E+03  0.44123586569E+01  0.27970491031E+03  0.16524451179E+03 0.  0.
         24    2    3    3    0    0  0.13236023108E+03 -0.16779450419E+03 -0.36754579530E+02  0.23038675100E+03  0.77800575265E+02 0.  0.
         -6    2    1    2    0  503 -0.15819954381E+03  0.16088046370E+03 -0.25374742804E+02  0.28496570977E+03  0.17219744164E+03 0.  0.
        -24    2    5    5    0    0 -0.22910076626E+02  0.62832103073E+02 -0.44206138271E+02  0.11675919263E+03  0.84886875394E+02 0.  0.
          2    1    4    4  501    0  0.35167620397E+02 -0.21104721492E+02 -0.35763984947E+02  0.54417216145E+02  0.00000000000E+00 0. -1.
         -1    1    4    4    0  501  0.97192610683E+02 -0.14668978269E+03 -0.99059458306E+00  0.17596953485E+03  0.00000000000E+00 0.  1.
          5    1    3    3  502    0  0.25839312732E+02  0.69140404824E+01  0.41166938187E+02  0.49318159312E+02  0.47000000000E+01 0. -1.
         11    1    6    6    0    0 -0.53614048159E+01  0.48243387485E+02  0.17004636133E+02  0.51432740036E+02  0.00000000000E+00 0. -1.
        -12    1    6    6    0    0 -0.17548671810E+02  0.14588715588E+02 -0.61210774404E+02  0.65326452590E+02  0.00000000000E+00 0.  1.
         -5    1    5    5    0  503 -0.13528946719E+03  0.98048360632E+02  0.18831395467E+02  0.16820651714E+03  0.47000000000E+01 0.  1.
<mgrwt>
<rscale>  2 0.28278704E+03</rscale>
<asrwt>0</asrwt>
<pdfrwt beam="1">  1       21 0.41823710E-01 0.28383372E+03</pdfrwt>
<pdfrwt beam="2">  1       21 0.45048693E-01 0.28383372E+03</pdfrwt>
<totfact> 0.24891948E+04</totfact>
</mgrwt>
</event>
<event>
12    1  0.1473662E-001  0.3798965E+03  0.7546771E-02  0.1050984E+00
         21   -1    0    0  504  503  0.00000000000E+00  0.00000000000E+00  0.17359428852E+04  0.17359428852E+04  0.00000000000E+00 0.  1.
         21   -1    0    0  502  504 -0.00000000000E+00 -0.00000000000E+00 -0.86842728062E+02  0.86842728062E+02  0.00000000000E+00 0. -1.
          6    2    1    2  502    0  0.15945976484E+03 -0.29845074896E+03  0.10134029259E+04  0.10822234619E+04  0.17240030511E+03 0.  0.
         24    2    3    3    0    0  0.18449011313E+03 -0.23300680752E+03  0.86179659980E+03  0.91514265538E+03  0.80398545311E+02 0.  0.
         -6    2    1    2    0  503 -0.15945976484E+03  0.29845074896E+03  0.63569723121E+03  0.74056215129E+03  0.17268776446E+03 0.  0.
        -24    2    5    5    0    0 -0.13341914880E+03  0.22529877640E+03  0.58957435241E+03  0.65012579398E+03  0.80656202914E+02 0.  0.
          4    1    4    4  501    0  0.36868941597E+02 -0.34821160136E+02  0.75696425942E+02  0.91114109490E+02  0.00000000000E+00 0. -1.
         -3    1    4    4    0  501  0.14762117153E+03 -0.19818564738E+03  0.78610017385E+03  0.82402854589E+03  0.00000000000E+00 0.  1.
          5    1    3    3  502    0 -0.25030348283E+02 -0.65443941443E+02  0.15160632609E+03  0.16708080655E+03  0.47000000000E+01 0. -1.
         13    1    6    6    0    0 -0.58801959143E+02  0.69816822911E+02  0.12661689874E+03  0.15608939171E+03  0.00000000000E+00 0. -1.
        -14    1    6    6    0    0 -0.74617189652E+02  0.15548195349E+03  0.46295745368E+03  0.49403640227E+03  0.00000000000E+00 0.  1.
         -5    1    5    5    0  503 -0.26040616049E+02  0.73151972563E+02  0.46122878796E+02  0.90436357304E+02  0.47000000000E+01 0.  1.
<mgrwt>
<rscale>  2 0.37986382E+03</rscale>
<asrwt>0</asrwt>
<pdfrwt beam="1">  1       21 0.26706811E+00 0.37989647E+03</pdfrwt>
<pdfrwt beam="2">  1       21 0.13360421E-01 0.37989647E+03</pdfrwt>
<totfact> 0.21972286E+03</totfact>
</mgrwt>
</event>
<event>
12    1  0.1473662E-001  0.2209905E+03  0.7546771E-02  0.1133310E+00
         21   -1    0    0  504  503  0.00000000000E+00  0.00000000000E+00  0.60964910679E+03  0.60964910679E+03  0.00000000000E+00 0.  1.
         21   -1    0    0  502  504 -0.00000000000E+00 -0.00000000000E+00 -0.88983369149E+02  0.88983369149E+02  0.00000000000E+00 0.  1.
          6    2    1    2  502    0 -0.12648354314E+03  0.52763223525E+02  0.14757250598E+03  0.26500205324E+03  0.17223936618E+03 0.  0.
         24    2    3    3    0    0 -0.11680178191E+03 -0.13323250669E+02  0.70966002536E+02  0.16325823308E+03  0.88300123932E+02 0.  0.
         -6    2    1    2    0  503  0.12648354314E+03 -0.52763223525E+02  0.37309323167E+03  0.43363042270E+03  0.17336302816E+03 0.  0.
        -24    2    5    5    0    0  0.15318071690E+03 -0.14100233124E+02  0.28167509677E+03  0.33073760807E+03  0.79895911337E+02 0.  0.
          4    1    4    4  501    0 -0.57591716100E+02 -0.20438951979E+02  0.82347337429E+02  0.10254579710E+03  0.00000000000E+00 0. -1.
         -3    1    4    4    0  501 -0.59210065814E+02  0.71157013096E+01 -0.11381334893E+02  0.60712435981E+02  0.00000000000E+00 0.  1.
          5    1    3    3  502    0 -0.96817612236E+01  0.66086474194E+02  0.76606503442E+02  0.10174382016E+03  0.47000000000E+01 0. -1.
         11    1    6    6    0    0  0.83667656196E+02  0.32380243517E+02  0.14679936556E+03  0.17204304866E+03  0.00000000000E+00 0. -1.
        -12    1    6    6    0    0  0.69513060706E+02 -0.46480476642E+02  0.13487573121E+03  0.15869455941E+03  0.00000000000E+00 0.  1.
         -5    1    5    5    0  503 -0.26697173765E+02 -0.38662990400E+02  0.91418134896E+02  0.10289281463E+03  0.47000000000E+01 0.  1.
<mgrwt>
<rscale>  2 0.22077003E+03</rscale>
<asrwt>0</asrwt>
<pdfrwt beam="1">  1       21 0.93792167E-01 0.22099046E+03</pdfrwt>
<pdfrwt beam="2">  1       21 0.13689750E-01 0.22099046E+03</pdfrwt>
<totfact> 0.43564030E+04</totfact>
</mgrwt>
</event>
<event>
12    1  0.1473662E-001  0.2376040E+03  0.7546771E-02  0.1121580E+00
         21   -1    0    0  504  503  0.00000000000E+00  0.00000000000E+00  0.66962743972E+03  0.66962743972E+03  0.00000000000E+00 0. -1.
         21   -1    0    0  502  504 -0.00000000000E+00 -0.00000000000E+00 -0.10304069931E+03  0.10304069931E+03  0.00000000000E+00 0.  1.
          6    2    1    2  502    0 -0.15733512600E+03  0.38934119033E+02  0.11640104021E+03  0.26362703775E+03  0.17227827887E+03 0.  0.
         24    2    3    3    0    0 -0.17419239476E+03  0.23372624025E+02  0.61033606709E+02  0.20351073106E+03  0.82475733171E+02 0.  0.
         -6    2    1    2    0  503  0.15733512600E+03 -0.38934119033E+02  0.45018570020E+03  0.50904110128E+03  0.17373966337E+03 0.  0.
        -24    2    5    5    0    0  0.78381075452E+02 -0.61908406082E+02  0.37823161461E+03  0.39967455979E+03  0.81880130213E+02 0.  0.
          4    1    4    4  501    0 -0.16696857138E+03  0.31411543959E+02  0.75113365385E+02  0.18576115466E+03  0.00000000000E+00 0. -1.
         -3    1    4    4    0  501 -0.72238233860E+01 -0.80389199343E+01 -0.14079758676E+02  0.17749576400E+02  0.00000000000E+00 0.  1.
          5    1    3    3  502    0  0.16857268760E+02  0.15561495008E+02  0.55367433503E+02  0.60116306686E+02  0.47000000000E+01 0. -1.
         13    1    6    6    0    0  0.92269302979E+02 -0.58360066053E+02  0.28226742301E+03  0.30264569991E+03  0.00000000000E+00 0. -1.
        -14    1    6    6    0    0 -0.13888227527E+02 -0.35483400298E+01  0.95964191602E+02  0.97028859885E+02  0.00000000000E+00 0.  1.
         -5    1    5    5    0  503  0.78954050550E+02  0.22974287050E+02  0.71954085593E+02  0.10936654149E+03  0.47000000000E+01 0.  1.
<mgrwt>
<rscale>  2 0.23733697E+03</rscale>
<asrwt>0</asrwt>
<pdfrwt beam="1">  1       21 0.10301960E+00 0.23760404E+03</pdfrwt>
<pdfrwt beam="2">  1       21 0.15852416E-01 0.23760404E+03</pdfrwt>
<totfact> 0.26456422E+04</totfact>
</mgrwt>
</event>
<event>
12    1  0.1473662E-001  0.1840473E+03  0.7546771E-02  0.1164274E+00
         21   -1    0    0  504  503  0.00000000000E+00  0.00000000000E+00  0.91378371699E+03  0.91378371699E+03  0.00000000000E+00 0. -1.
         21   -1    0    0  502  504 -0.00000000000E+00 -0.00000000000E+00 -0.50735278874E+02  0.50735278874E+02  0.00000000000E+00 0. -1.
          6    2    1    2  502    0 -0.70634442219E+01  0.57096956373E+02  0.17746687037E+03  0.25466301951E+03  0.17334592224E+03 0.  0.
         24    2    3    3    0    0  0.56821883172E+01 -0.18421962515E+02  0.27838395366E+02  0.86507351184E+02  0.79604582691E+02 0.  0.
         -6    2    1    2    0  503  0.70634442219E+01 -0.57096956373E+02  0.68558156775E+03  0.70985597635E+03  0.17482410148E+03 0.  0.
        -24    2    5    5    0    0  0.38722973286E+02 -0.86070022486E+02  0.61556619295E+03  0.62760023462E+03  0.77799737510E+02 0.  0.
          4    1    4    4  501    0  0.41072938951E+02 -0.36174585426E+01  0.41964149230E+01  0.41444929950E+02  0.00000000000E+00 0. -1.
         -3    1    4    4    0  501 -0.35390750633E+02 -0.14804503973E+02  0.23641980443E+02  0.45062421235E+02  0.00000000000E+00 0.  1.
          5    1    3    3  502    0 -0.12745632539E+02  0.75518918888E+02  0.14962847501E+03  0.16815566833E+03  0.47000000000E+01 0. -1.
         11    1    6    6    0    0  0.70807281529E+01 -0.34362399550E+02  0.44859663699E+03  0.44996650313E+03  0.00000000000E+00 0. -1.
        -12    1    6    6    0    0  0.31642245133E+02 -0.51707622936E+02  0.16696955596E+03  0.17763373149E+03  0.00000000000E+00 0.  1.
         -5    1    5    5    0  503 -0.31659529064E+02  0.28973066113E+02  0.70015374794E+02  0.82255741733E+02  0.47000000000E+01 0.  1.
<mgrwt>
<rscale>  2 0.18369545E+03</rscale>
<asrwt>0</asrwt>
<pdfrwt beam="1">  1       21 0.14058210E+00 0.18404733E+03</pdfrwt>
<pdfrwt beam="2">  1       21 0.78054282E-02 0.18404733E+03</pdfrwt>
<totfact> 0.44554616E+04</totfact>
</mgrwt>
</event>
<event>
12    1  0.1473662E-001  0.1774162E+03  0.7546771E-02  0.1170699E+00
         21   -1    0    0  504  503  0.00000000000E+00  0.00000000000E+00  0.51395258266E+03  0.51395258266E+03  0.00000000000E+00 0.  1.
         21   -1    0    0  502  504 -0.00000000000E+00 -0.00000000000E+00 -0.61713065766E+02  0.61713065766E+02  0.00000000000E+00 0.  1.
          6    2    1    2  502    0 -0.19520432868E+02  0.12940919368E+02  0.18879302625E+03  0.25804866081E+03  0.17434961972E+03 0.  0.
         24    2    3    3    0    0 -0.28528000005E+02  0.63098729611E+01  0.21164481426E+03  0.23217587090E+03  0.90875994323E+02 0.  0.
         -6    2    1    2    0  503  0.19520432868E+02 -0.12940919368E+02  0.26344649065E+03  0.31761698761E+03  0.17586353428E+03 0.  0.
        -24    2    5    5    0    0 -0.24783950110E+02  0.52234280610E+02  0.16548729764E+03  0.19180451392E+03  0.77847682197E+02 0.  0.
          2    1    4    4  501    0 -0.26308429431E+02  0.46334766992E+02  0.96214132846E+02  0.10998274160E+03  0.00000000000E+00 0. -1.
         -1    1    4    4    0  501 -0.22195705744E+01 -0.40024894031E+02  0.11543068142E+03  0.12219312930E+03  0.00000000000E+00 0.  1.
          5    1    3    3  502    0  0.90075671379E+01  0.66310464065E+01 -0.22851788017E+02  0.25872789911E+02  0.47000000000E+01 0. -1.
         13    1    6    6    0    0 -0.16320459836E+02  0.23038823016E+02  0.15799427774E+03  0.16049715441E+03  0.00000000000E+00 0. -1.
        -14    1    6    6    0    0 -0.84634902738E+01  0.29195457594E+02  0.74930198983E+01  0.31307359501E+02  0.00000000000E+00 0.  1.
         -5    1    5    5    0  503  0.44304382977E+02 -0.65175199977E+02  0.97959193003E+02  0.12581247369E+03  0.47000000000E+01 0.  1.
<mgrwt>
<rscale>  2 0.17703984E+03</rscale>
<asrwt>0</asrwt>
<pdfrwt beam="1">  1       21 0.79069625E-01 0.17741617E+03</pdfrwt>
<pdfrwt beam="2">  1       21 0.94943181E-02 0.17741617E+03</pdfrwt>
<totfact> 0.12627229E+05</totfact>
</mgrwt>
</event>
<event>
12    1  0.1473662E-001  0.1904286E+03  0.7546771E-02  0.1158149E+00
         21   -1    0    0  504  503  0.00000000000E+00  0.00000000000E+00  0.20982675486E+03  0.20982675486E+03  0.00000000000E+00 0.  1.
         21   -1    0    0  502  504 -0.00000000000E+00 -0.00000000000E+00 -0.19248843293E+03  0.19248843293E+03  0.00000000000E+00 0. -1.
          6    2    1    2  502    0  0.45294681811E+02  0.67561955551E+02 -0.56105638340E+02  0.19852180329E+03  0.17218257081E+03 0.  0.
         24    2    3    3    0    0 -0.20143001526E+02  0.91347658233E+02 -0.44383877279E+02  0.12775924444E+03  0.74848919855E+02 0.  0.
         -6    2    1    2    0  503 -0.45294681811E+02 -0.67561955551E+02  0.73443960271E+02  0.20379338450E+03  0.17181822437E+03 0.  0.
        -24    2    5    5    0    0 -0.73081012372E+02  0.55231324114E+01  0.59133798395E+02  0.12416687521E+03  0.80927544292E+02 0.  0.
          4    1    4    4  501    0 -0.39687716054E+01  0.95184316243E+02 -0.53019493624E+02  0.10902693204E+03  0.00000000000E+00 0. -1.
         -3    1    4    4    0  501 -0.16174229920E+02 -0.38366580103E+01  0.86356163449E+01  0.18732312400E+02  0.00000000000E+00 0.  1.
          5    1    3    3  502    0  0.65437683337E+02 -0.23785702682E+02 -0.11721761061E+02  0.70762558849E+02  0.47000000000E+01 0. -1.
         11    1    6    6    0    0 -0.46798035556E+01 -0.10255446002E+02 -0.17135042175E+02  0.20510592492E+02  0.00000000000E+00 0. -1.
        -12    1    6    6    0    0 -0.68401208816E+02  0.15778578414E+02  0.76268840570E+02  0.10365628271E+03  0.00000000000E+00 0.  1.
         -5    1    5    5    0  503  0.27786330561E+02 -0.73085087962E+02  0.14310161876E+02  0.79626509288E+02  0.47000000000E+01 0.  1.
<mgrwt>
<rscale>  2 0.19034623E+03</rscale>
<asrwt>0</asrwt>
<pdfrwt beam="1">  1       21 0.32281039E-01 0.19042863E+03</pdfrwt>
<pdfrwt beam="2">  1       21 0.29613605E-01 0.19042863E+03</pdfrwt>
<totfact> 0.10098381E+05</totfact>
</mgrwt>
</event>
<event>
12    1  0.1473662E-001  0.1842092E+03  0.7546771E-02  0.1165303E+00
         21   -1    0    0  504  503  0.00000000000E+00  0.00000000000E+00  0.18250981062E+04  0.18250981062E+04  0.00000000000E+00 0. -1.
         21   -1    0    0  502  504 -0.00000000000E+00 -0.00000000000E+00 -0.18991499988E+02  0.18991499988E+02  0.00000000000E+00 0. -1.
          6    2    1    2  502    0 -0.59657509947E+01  0.39497724743E+02  0.70308678699E+03  0.72681775021E+03  0.17982589228E+03 0.  0.
         24    2    3    3    0    0 -0.29068545609E+01  0.57491890621E+02  0.70117706766E+03  0.70787351941E+03  0.78242392414E+02 0.  0.
         -6    2    1    2    0  503  0.59657509947E+01 -0.39497724743E+02  0.11030198192E+04  0.11172718559E+04  0.17334364170E+03 0.  0.
        -24    2    5    5    0    0  0.18444599503E+02  0.46682965322E+02  0.57411092320E+03  0.58122191120E+03  0.75472216237E+02 0.  0.
          4    1    4    4  501    0  0.48895790627E+00  0.42042266313E+02  0.68070442638E+03  0.68200169159E+03  0.00000000000E+00 0. -1.
         -3    1    4    4    0  501 -0.33958124672E+01  0.15449624308E+02  0.20472641284E+02  0.25871827820E+02  0.00000000000E+00 0.  1.
          5    1    3    3  502    0 -0.30588964338E+01 -0.17994165877E+02  0.19097193332E+01  0.18944230809E+02  0.47000000000E+01 0. -1.
         13    1    6    6    0    0  0.33504704693E+02  0.75126074625E+01  0.11041314781E+03  0.11562900897E+03  0.00000000000E+00 0. -1.
        -14    1    6    6    0    0 -0.15060105190E+02  0.39170357859E+02  0.46369777539E+03  0.46559290223E+03  0.00000000000E+00 0.  1.
         -5    1    5    5    0  503 -0.12478848508E+02 -0.86180690065E+02  0.52890889598E+03  0.53604994473E+03  0.47000000000E+01 0.  1.
<mgrwt>
<rscale>  2 0.18260778E+03</rscale>
<asrwt>0</asrwt>
<pdfrwt beam="1">  1       21 0.28078419E+00 0.18420915E+03</pdfrwt>
<pdfrwt beam="2">  1       21 0.29217707E-02 0.18420915E+03</pdfrwt>
<totfact> 0.29339462E+04</totfact>
</mgrwt>
</event>
<event>
12    1  0.1473662E-001  0.1800065E+03  0.7546771E-02  0.1168046E+00
         21   -1    0    0  504  503  0.00000000000E+00  0.00000000000E+00  0.43812810437E+03  0.43812810437E+03  0.00000000000E+00 0.  1.
         21   -1    0    0  502  504 -0.00000000000E+00 -0.00000000000E+00 -0.19077702249E+03  0.19077702249E+03  0.00000000000E+00 0.  1.
          6    2    1    2  502    0  0.41585389142E+02  0.30192843750E+01 -0.12296919974E+03  0.21715342415E+03  0.17405667142E+03 0.  0.
         24    2    3    3    0    0  0.29759148851E+02 -0.49806699463E+02 -0.12836877765E+03  0.16254857116E+03  0.81099819109E+02 0.  0.
         -6    2    1    2    0  503 -0.41585389142E+02 -0.30192843750E+01  0.37032028161E+03  0.41175170271E+03  0.17511108773E+03 0.  0.
        -24    2    5    5    0    0 -0.20531418351E+02 -0.20320490171E+02  0.68430045034E+02  0.10859760601E+03  0.79223150069E+02 0.  0.
          2    1    4    4  501    0 -0.15301133122E+02 -0.15644110702E+02 -0.93697684112E+02  0.96219119110E+02  0.00000000000E+00 0. -1.
         -1    1    4    4    0  501  0.45060281973E+02 -0.34162588760E+02 -0.34671093540E+02  0.66329452052E+02  0.00000000000E+00 0.  1.
          5    1    3    3  502    0  0.11826240291E+02  0.52825983838E+02  0.53995779100E+01  0.54604852984E+02  0.47000000000E+01 0. -1.
         13    1    6    6    0    0 -0.21575194624E+02 -0.49165347894E+02  0.33498912603E+02  0.63284260303E+02  0.00000000000E+00 0. -1.
        -14    1    6    6    0    0  0.10437762721E+01  0.28844857723E+02  0.34931132431E+02  0.45313345704E+02  0.00000000000E+00 0.  1.
         -5    1    5    5    0  503 -0.21053970790E+02  0.17301205796E+02  0.30189023658E+03  0.30315409671E+03  0.47000000000E+01 0.  1.
<mgrwt>
<rscale>  2 0.17974959E+03</rscale>
<asrwt>0</asrwt>
<pdfrwt beam="1">  1       21 0.67404323E-01 0.18000654E+03</pdfrwt>
<pdfrwt beam="2">  1       21 0.29350311E-01 0.18000654E+03</pdfrwt>
<totfact> 0.22554507E+04</totfact>
</mgrwt>
</event>
<event>
12    1  0.1473662E-001  0.2118552E+03  0.7546771E-02  0.1140188E+00
         21   -1    0    0  504  503  0.00000000000E+00  0.00000000000E+00  0.12188798034E+04  0.12188798034E+04  0.00000000000E+00 0.  1.
         21   -1    0    0  502  504 -0.00000000000E+00 -0.00000000000E+00 -0.43519693160E+02  0.43519693160E+02  0.00000000000E+00 0.  1.
          6    2    1    2  502    0  0.83064608346E+02  0.10009656682E+03  0.33921305511E+03  0.39993513029E+03  0.16722308404E+03 0.  0.
         24    2    3    3    0    0  0.70749086500E+00  0.21400089802E+02  0.10794188619E+03  0.14208968459E+03  0.89886390997E+02 0.  0.
         -6    2    1    2    0  503 -0.83064608346E+02 -0.10009656682E+03  0.83614705508E+03  0.86246436622E+03  0.16668483263E+03 0.  0.
        -24    2    5    5    0    0 -0.68089733344E+02 -0.68318242017E+02  0.29841582083E+03  0.32356634331E+03  0.79621494717E+02 0.  0.
          4    1    4    4  501    0 -0.22104257029E+02  0.19390002600E+02 -0.23009852913E+01  0.29493472379E+02  0.00000000000E+00 0. -1.
         -3    1    4    4    0  501  0.22811747894E+02  0.20100872019E+01  0.11024287148E+03  0.11259621221E+03  0.00000000000E+00 0.  1.
          5    1    3    3  502    0  0.82357117481E+02  0.78696477017E+02  0.23127116892E+03  0.25784544570E+03  0.47000000000E+01 0. -1.
         13    1    6    6    0    0 -0.12110296380E+02  0.11909719528E+02  0.11711884227E+02  0.20631745679E+02  0.00000000000E+00 0. -1.
        -14    1    6    6    0    0 -0.55979436964E+02 -0.80227961545E+02  0.28670393661E+03  0.30293459763E+03  0.00000000000E+00 0.  1.
         -5    1    5    5    0  503 -0.14974875002E+02 -0.31778324802E+02  0.53773123425E+03  0.53889802291E+03  0.47000000000E+01 0.  1.
<mgrwt>
<rscale>  2 0.21174894E+03</rscale>
<asrwt>0</asrwt>
<pdfrwt beam="1">  1       21 0.18751994E+00 0.21185517E+03</pdfrwt>
<pdfrwt beam="2">  1       21 0.66953383E-02 0.21185517E+03</pdfrwt>
<totfact> 0.26106235E+04</totfact>
</mgrwt>
</event>
<event>
12    1  0.1473662E-001  0.1963099E+03  0.7546771E-02  0.1152900E+00
         21   -1    0    0  504  503  0.00000000000E+00  0.00000000000E+00  0.90026251720E+03  0.90026251720E+03  0.00000000000E+00 0.  1.
         21   -1    0    0  502  504 -0.00000000000E+00 -0.00000000000E+00 -0.43989487947E+02  0.43989487947E+02  0.00000000000E+00 0. -1.
          6    2    1    2  502    0  0.43764972292E+02  0.81545644395E+02  0.50580460561E+03  0.54254849736E+03  0.17307659581E+03 0.  0.
         24    2    3    3    0    0  0.87114662389E+02  0.22753597600E+02  0.27656800677E+03  0.30190933046E+03  0.80948692682E+02 0.  0.
         -6    2    1    2    0  503 -0.43764972292E+02 -0.81545644395E+02  0.35046842365E+03  0.40170350779E+03  0.17312575567E+03 0.  0.
        -24    2    5    5    0    0 -0.70848700735E+02 -0.25874360863E+02  0.12083629600E+03  0.16382575724E+03  0.80922477466E+02 0.  0.
          2    1    4    4  501    0  0.66972578242E+02  0.16782708454E+02  0.86464515903E+02  0.11064853388E+03  0.00000000000E+00 0. -1.
         -1    1    4    4    0  501  0.20142084147E+02  0.59708891459E+01  0.19010349087E+03  0.19126079658E+03  0.00000000000E+00 0.  1.
          5    1    3    3  502    0 -0.43349690096E+02  0.58792046794E+02  0.22923659884E+03  0.24063916690E+03  0.47000000000E+01 0. -1.
         11    1    6    6    0    0 -0.66470122486E+02  0.15839102341E+02  0.81101089444E+02  0.10604971030E+03  0.00000000000E+00 0. -1.
        -12    1    6    6    0    0 -0.43785782483E+01 -0.41713463204E+02  0.39735206557E+02  0.57776046940E+02  0.00000000000E+00 0.  1.
         -5    1    5    5    0  503  0.27083728442E+02 -0.55671283531E+02  0.22963212765E+03  0.23787775055E+03  0.47000000000E+01 0.  1.
<mgrwt>
<rscale>  2 0.19629910E+03</rscale>
<asrwt>0</asrwt>
<pdfrwt beam="1">  1       21 0.13850191E+00 0.19630994E+03</pdfrwt>
<pdfrwt beam="2">  1       21 0.67676142E-02 0.19630994E+03</pdfrwt>
<totfact> 0.58875330E+04</totfact>
</mgrwt>
</event>
<event>
12    1  0.1473662E-001  0.2026778E+03  0.7546771E-02  0.1147705E+00
         21   -1    0    0  504  503  0.00000000000E+00  0.00000000000E+00  0.43760136359E+02  0.43760136359E+02  0.00000000000E+00 0.  1.
         21   -1    0    0  502  504 -0.00000000000E+00 -0.00000000000E+00 -0.95905814361E+03  0.95905814361E+03  0.00000000000E+00 0.  1.
          6    2    1    2  502    0 -0.10256253507E+03 -0.18867982048E+02 -0.37570733694E+03  0.42641877098E+03  0.17263224168E+03 0.  0.
         24    2    3    3    0    0 -0.64254028631E+02 -0.79752348850E+02 -0.23909206156E+03  0.27195106804E+03  0.79393653153E+02 0.  0.
         -6    2    1    2    0  503  0.10256253507E+03  0.18867982048E+02 -0.53959067031E+03  0.57639950899E+03  0.17379075963E+03 0.  0.
        -24    2    5    5    0    0 -0.39827439240E+01 -0.30036395070E+02 -0.22372747269E+03  0.23944968456E+03  0.79775448094E+02 0.  0.
          2    1    4    4  501    0  0.11415556129E+02 -0.43022306220E+02 -0.99025090213E+02  0.10856888249E+03  0.00000000000E+00 0. -1.
         -1    1    4    4    0  501 -0.75669584760E+02 -0.36730042630E+02 -0.14006697135E+03  0.16338218554E+03  0.00000000000E+00 0.  1.
          5    1    3    3  502    0 -0.38308506434E+02  0.60884366802E+02 -0.13661527538E+03  0.15446770294E+03  0.47000000000E+01 0. -1.
         13    1    6    6    0    0  0.20036365807E+02 -0.31308651128E+01 -0.98365416491E+01  0.22539206346E+02  0.00000000000E+00 0. -1.
        -14    1    6    6    0    0 -0.24019109731E+02 -0.26905529957E+02 -0.21389093104E+03  0.21691047821E+03  0.00000000000E+00 0.  1.
         -5    1    5    5    0  503  0.10654527899E+03  0.48904377118E+02 -0.31586319761E+03  0.33694982443E+03  0.47000000000E+01 0.  1.
<mgrwt>
<rscale>  2 0.20242924E+03</rscale>
<asrwt>0</asrwt>
<pdfrwt beam="1">  1       21 0.67323289E-02 0.20267783E+03</pdfrwt>
<pdfrwt beam="2">  1       21 0.14754740E+00 0.20267783E+03</pdfrwt>
<totfact> 0.50214202E+04</totfact>
</mgrwt>
</event>
<event>
12    1  0.1473662E-001  0.2074352E+03  0.7546771E-02  0.1143658E+00
         21   -1    0    0  504  503  0.00000000000E+00  0.00000000000E+00  0.15991357197E+04  0.15991357197E+04  0.00000000000E+00 0.  1.
         21   -1    0    0  502  504 -0.00000000000E+00 -0.00000000000E+00 -0.29728187763E+02  0.29728187763E+02  0.00000000000E+00 0.  1.
          6    2    1    2  502    0  0.70061379510E+02  0.90587009645E+02  0.53220495577E+03  0.57112171390E+03  0.17269422088E+03 0.  0.
         24    2    3    3    0    0  0.43326378962E+02  0.11982244033E+03  0.49199770287E+03  0.51448088192E+03  0.79964028857E+02 0.  0.
         -6    2    1    2    0  503 -0.70061379510E+02 -0.90587009645E+02  0.10372025762E+04  0.10577421936E+04  0.17295884141E+03 0.  0.
        -24    2    5    5    0    0  0.10858183522E+01 -0.42737719065E+02  0.25133319594E+03  0.26719538840E+03  0.79983176789E+02 0.  0.
          2    1    4    4  501    0  0.15037248569E+02  0.55090265172E+02  0.36247363886E+03  0.36694440319E+03  0.00000000000E+00 0. -1.
         -1    1    4    4    0  501  0.28289130393E+02  0.64732175160E+02  0.12952406400E+03  0.14753647873E+03  0.00000000000E+00 0.  1.
          5    1    3    3  502    0  0.26735000548E+02 -0.29235430687E+02  0.40207252906E+02  0.56640831986E+02  0.47000000000E+01 0. -1.
         13    1    6    6    0    0  0.21590983389E+02  0.82954829909E+01  0.15114012047E+03  0.15289971098E+03  0.00000000000E+00 0. -1.
        -14    1    6    6    0    0 -0.20505165037E+02 -0.51033202056E+02  0.10019307547E+03  0.11429567742E+03  0.00000000000E+00 0.  1.
         -5    1    5    5    0  503 -0.71147197862E+02 -0.47849290580E+02  0.78586938026E+03  0.79054680519E+03  0.47000000000E+01 0.  1.
<mgrwt>
<rscale>  2 0.20738004E+03</rscale>
<asrwt>0</asrwt>
<pdfrwt beam="1">  1       21 0.24602081E+00 0.20743520E+03</pdfrwt>
<pdfrwt beam="2">  1       21 0.45735686E-02 0.20743520E+03</pdfrwt>
<totfact> 0.21680852E+04</totfact>
</mgrwt>
</event>
<event>
12    1  0.1473662E-001  0.1782095E+03  0.7546771E-02  0.1169669E+00
         21   -1    0    0  504  503  0.00000000000E+00  0.00000000000E+00  0.37801233880E+03  0.37801233880E+03  0.00000000000E+00 0. -1.
         21   -1    0    0  502  504 -0.00000000000E+00 -0.00000000000E+00 -0.97088531041E+02  0.97088531041E+02  0.00000000000E+00 0. -1.
          6    2    1    2  502    0  0.37394684312E+02  0.15678027449E+02  0.52684773880E+02  0.18583406579E+03  0.17353515970E+03 0.  0.
         24    2    3    3    0    0  0.45761529445E+02  0.71044330705E+02  0.55162805874E+02  0.12958762345E+03  0.81293311515E+02 0.  0.
         -6    2    1    2    0  503 -0.37394684312E+02 -0.15678027449E+02  0.22823903387E+03  0.28926680404E+03  0.17302619564E+03 0.  0.
        -24    2    5    5    0    0 -0.10791951798E+02 -0.48603179441E+02  0.22667779381E+03  0.24664875057E+03  0.83510769834E+02 0.  0.
          4    1    4    4  501    0  0.66039236070E+01  0.76102769614E+02  0.45596492853E+02  0.88962258910E+02  0.00000000000E+00 0. -1.
         -3    1    4    4    0  501  0.39157605838E+02 -0.50584389085E+01  0.95663130203E+01  0.40625364540E+02  0.00000000000E+00 0.  1.
          5    1    3    3  502    0 -0.83668451337E+01 -0.55366303256E+02 -0.24780319935E+01  0.56246442344E+02  0.47000000000E+01 0. -1.
         11    1    6    6    0    0  0.25629960297E+02 -0.13018956539E+02  0.23330126058E+02  0.37022734583E+02  0.00000000000E+00 0. -1.
        -12    1    6    6    0    0 -0.36421912095E+02 -0.35584222903E+02  0.20334766775E+03  0.20962601599E+03  0.00000000000E+00 0.  1.
         -5    1    5    5    0  503 -0.26602732513E+02  0.32925151992E+02  0.15612400643E+01  0.42618053468E+02  0.47000000000E+01 0.  1.
<mgrwt>
<rscale>  2 0.17808544E+03</rscale>
<asrwt>0</asrwt>
<pdfrwt beam="1">  1       21 0.58155744E-01 0.17820947E+03</pdfrwt>
<pdfrwt beam="2">  1       21 0.14936697E-01 0.17820947E+03</pdfrwt>
<totfact> 0.11010516E+05</totfact>
</mgrwt>
</event>
<event>
12    1  0.1473662E-001  0.2003852E+03  0.7546771E-02  0.1149839E+00
         21   -1    0    0  504  503  0.00000000000E+00  0.00000000000E+00  0.12886775036E+02  0.12886775036E+02  0.00000000000E+00 0. -1.
         21   -1    0    0  502  504 -0.00000000000E+00 -0.00000000000E+00 -0.32336154911E+04  0.32336154911E+04  0.00000000000E+00 0. -1.
          6    2    1    2  502    0  0.78093937290E+02  0.57275185649E+02 -0.19508687476E+04  0.19609290238E+04  0.17313190376E+03 0.  0.
         24    2    3    3    0    0 -0.21384047383E+02  0.88537344761E+01 -0.63249108081E+03  0.63790889218E+03  0.79668822835E+02 0.  0.
         -6    2    1    2    0  503 -0.78093937290E+02 -0.57275185649E+02 -0.12698599684E+04  0.12855732423E+04  0.17542836703E+03 0.  0.
        -24    2    5    5    0    0 -0.41191676466E+02 -0.84868799917E+02 -0.53572950843E+03  0.54998313450E+03  0.81091766623E+02 0.  0.
          2    1    4    4  501    0 -0.86657340893E+01  0.35832815508E+02 -0.14879089281E+03  0.15328997162E+03  0.00000000000E+00 0. -1.
         -1    1    4    4    0  501 -0.12718313294E+02 -0.26979081032E+02 -0.48370018799E+03  0.48461892057E+03  0.00000000000E+00 0.  1.
          5    1    3    3  502    0  0.99477984674E+02  0.48421451172E+02 -0.13183776668E+04  0.13230201316E+04  0.47000000000E+01 0. -1.
         11    1    6    6    0    0 -0.13436155088E+02 -0.41390561283E+02 -0.77682795151E+02  0.89041144924E+02  0.00000000000E+00 0. -1.
        -12    1    6    6    0    0 -0.27755521378E+02 -0.43478238634E+02 -0.45804671328E+03  0.46094198957E+03  0.00000000000E+00 0.  1.
         -5    1    5    5    0  503 -0.36902260825E+02  0.27593614269E+02 -0.73413046001E+03  0.73559010782E+03  0.47000000000E+01 0.  1.
<mgrwt>
<rscale>  2 0.19988145E+03</rscale>
<asrwt>0</asrwt>
<pdfrwt beam="1">  1       21 0.19825810E-02 0.20038518E+03</pdfrwt>
<pdfrwt beam="2">  1       21 0.49747925E+00 0.20038518E+03</pdfrwt>
<totfact> 0.24346071E+03</totfact>
</mgrwt>
</event>
<event>
12    1  0.1473662E-001  0.2186507E+03  0.7546771E-02  0.1134945E+00
         21   -1    0    0  504  503  0.00000000000E+00  0.00000000000E+00  0.12340841525E+04  0.12340841525E+04  0.00000000000E+00 0.  1.
         21   -1    0    0  502  504 -0.00000000000E+00 -0.00000000000E+00 -0.45333571408E+02  0.45333571408E+02  0.00000000000E+00 0. -1.
          6    2    1    2  502    0  0.31630825258E+00  0.13146450083E+03  0.34917431884E+03  0.41183693575E+03  0.17436726092E+03 0.  0.
         24    2    3    3    0    0  0.11342976727E+02  0.16366186737E+03  0.27508977492E+03  0.33017380161E+03  0.80165360664E+02 0.  0.
         -6    2    1    2    0  503 -0.31630825258E+00 -0.13146450083E+03  0.83957626224E+03  0.86758078814E+03  0.17471436351E+03 0.  0.
        -24    2    5    5    0    0  0.14691712082E+02 -0.40933605102E+02  0.18904936367E+03  0.21059645080E+03  0.81974366451E+02 0.  0.
          2    1    4    4  501    0  0.91134845945E+01  0.18368780245E+02  0.17121311739E+01  0.20576663537E+02  0.00000000000E+00 0. -1.
         -1    1    4    4    0  501  0.22294921329E+01  0.14529308713E+03  0.27337764375E+03  0.30959713807E+03  0.00000000000E+00 0.  1.
          5    1    3    3  502    0 -0.11026668475E+02 -0.32197366540E+02  0.74084543923E+02  0.81663134143E+02  0.47000000000E+01 0. -1.
         13    1    6    6    0    0  0.14988612327E+02 -0.64378000716E+02  0.16098474063E+03  0.17402664219E+03  0.00000000000E+00 0. -1.
        -14    1    6    6    0    0 -0.29690024494E+00  0.23444395615E+02  0.28064623039E+02  0.36569808610E+02  0.00000000000E+00 0.  1.
         -5    1    5    5    0  503 -0.15008020335E+02 -0.90530895731E+02  0.65052689857E+03  0.65698433735E+03  0.47000000000E+01 0.  1.
<mgrwt>
<rscale>  2 0.21858134E+03</rscale>
<asrwt>0</asrwt>
<pdfrwt beam="1">  1       21 0.18985907E+00 0.21865069E+03</pdfrwt>
<pdfrwt beam="2">  1       21 0.69743965E-02 0.21865069E+03</pdfrwt>
<totfact> 0.23364630E+04</totfact>
</mgrwt>
</event>
<event>
12    1  0.1473662E-001  0.1896302E+03  0.7546771E-02  0.1158936E+00
         21   -1    0    0  504  503  0.00000000000E+00  0.00000000000E+00  0.25239739854E+03  0.25239739854E+03  0.00000000000E+00 0.  1.
         21   -1    0    0  502  504 -0.00000000000E+00 -0.00000000000E+00 -0.28195396082E+03  0.28195396082E+03  0.00000000000E+00 0. -1.
          6    2    1    2  502    0  0.58231851145E+02  0.54215738039E+02 -0.20302122415E+03  0.27780787868E+03  0.17213165095E+03 0.  0.
         24    2    3    3    0    0  0.95955616494E+01  0.62922447407E+02 -0.19648220020E+03  0.22774647360E+03  0.95978602044E+02 0.  0.
         -6    2    1    2    0  503 -0.58231851145E+02 -0.54215738039E+02  0.17346466188E+03  0.25654348069E+03  0.17144758331E+03 0.  0.
        -24    2    5    5    0    0  0.53739682321E+01  0.26269266809E+02  0.58398600589E+02  0.10231694366E+03  0.79620389945E+02 0.  0.
          2    1    4    4  501    0  0.50661756198E+02  0.51193019815E+02 -0.13270846004E+03  0.15099296071E+03  0.00000000000E+00 0. -1.
         -1    1    4    4    0  501 -0.41066194548E+02  0.11729427591E+02 -0.63773740168E+02  0.76753512893E+02  0.00000000000E+00 0.  1.
          5    1    3    3  502    0  0.48636289496E+02 -0.87067093675E+01 -0.65390239487E+01  0.50061405076E+02  0.47000000000E+01 0. -1.
         11    1    6    6    0    0  0.35686341364E+02 -0.60855448103E+01  0.11993084164E+02  0.38136372184E+02  0.00000000000E+00 0. -1.
        -12    1    6    6    0    0 -0.30312373132E+02  0.32354811620E+02  0.46405516425E+02  0.64180571472E+02  0.00000000000E+00 0.  1.
         -5    1    5    5    0  503 -0.63605819377E+02 -0.80485004848E+02  0.11506606129E+03  0.15422653703E+03  0.47000000000E+01 0.  1.
<mgrwt>
<rscale>  2 0.18947479E+03</rscale>
<asrwt>0</asrwt>
<pdfrwt beam="1">  1       21 0.38830369E-01 0.18963017E+03</pdfrwt>
<pdfrwt beam="2">  1       21 0.43377532E-01 0.18963017E+03</pdfrwt>
<totfact> 0.32722749E+04</totfact>
</mgrwt>
</event>
<event>
12    1  0.1473662E-001  0.1809202E+03  0.7546771E-02  0.1168396E+00
         21   -1    0    0  504  503  0.00000000000E+00  0.00000000000E+00  0.18346100427E+04  0.18346100427E+04  0.00000000000E+00 0.  1.
         21   -1    0    0  502  504 -0.00000000000E+00 -0.00000000000E+00 -0.80606309809E+02  0.80606309809E+02  0.00000000000E+00 0.  1.
          6    2    1    2  502    0 -0.19283613051E+02  0.34687039914E+02  0.31236745077E+02  0.18359696154E+03  0.17651362999E+03 0.  0.
         24    2    3    3    0    0 -0.41244537270E+02  0.60259463634E+02 -0.31420205304E+02  0.11229328366E+03  0.79311017158E+02 0.  0.
         -6    2    1    2    0  503  0.19283613051E+02 -0.34687039914E+02  0.17227669879E+04  0.17316193910E+04  0.17030728819E+03 0.  0.
        -24    2    5    5    0    0  0.76912848628E+01 -0.80965370546E+02  0.86191987697E+03  0.86943849104E+03  0.80017924817E+02 0.  0.
          2    1    4    4  501    0 -0.37460871539E+02  0.26300923114E+02 -0.54416303905E+02  0.71106888441E+02  0.00000000000E+00 0. -1.
         -1    1    4    4    0  501 -0.37836657315E+01  0.33958540519E+02  0.22996098601E+02  0.41186395223E+02  0.00000000000E+00 0.  1.
          5    1    3    3  502    0  0.21960924219E+02 -0.25572423719E+02  0.62656950381E+02  0.71303677875E+02  0.47000000000E+01 0. -1.
         13    1    6    6    0    0  0.10698017614E+02 -0.14496469823E+02  0.30972304986E+02  0.35831255830E+02  0.00000000000E+00 0. -1.
        -14    1    6    6    0    0 -0.30067327517E+01 -0.66468900724E+02  0.83094757198E+03  0.83360723521E+03  0.00000000000E+00 0.  1.
         -5    1    5    5    0  503  0.11592328188E+02  0.46278330632E+02  0.86084711089E+03  0.86218089998E+03  0.47000000000E+01 0.  1.
<mgrwt>
<rscale>  2 0.17938836E+03</rscale>
<asrwt>0</asrwt>
<pdfrwt beam="1">  1       21 0.28224767E+00 0.18092018E+03</pdfrwt>
<pdfrwt beam="2">  1       21 0.12400972E-01 0.18092018E+03</pdfrwt>
<totfact> 0.24248420E+03</totfact>
</mgrwt>
</event>
<event>
12    1  0.1473662E-001  0.1929656E+03  0.7546771E-02  0.1155875E+00
         21   -1    0    0  504  503  0.00000000000E+00  0.00000000000E+00  0.98953865870E+02  0.98953865870E+02  0.00000000000E+00 0.  1.
         21   -1    0    0  502  504 -0.00000000000E+00 -0.00000000000E+00 -0.59172099639E+03  0.59172099639E+03  0.00000000000E+00 0.  1.
          6    2    1    2  502    0 -0.54879287559E+02  0.66412539236E+02 -0.45490368607E+03  0.49402957174E+03  0.17235281427E+03 0.  0.
         24    2    3    3    0    0  0.15665214187E+02  0.87144227626E+02 -0.30139662418E+03  0.32375673868E+03  0.78351677895E+02 0.  0.
         -6    2    1    2    0  503  0.54879287559E+02 -0.66412539236E+02 -0.37863444455E+02  0.19664529052E+03  0.17266548088E+03 0.  0.
        -24    2    5    5    0    0  0.99974064221E+02 -0.52110587954E+02 -0.51899781730E+01  0.13895880951E+03  0.81069648898E+02 0.  0.
          4    1    4    4  501    0  0.38910336203E+01  0.97910640281E+02 -0.22035561853E+03  0.24116017963E+03  0.00000000000E+00 0. -1.
         -3    1    4    4    0  501  0.11774180567E+02 -0.10766412655E+02 -0.81041005651E+02  0.82596559047E+02  0.00000000000E+00 0.  1.
          5    1    3    3  502    0 -0.70544501747E+02 -0.20731688390E+02 -0.15350706189E+03  0.17027283306E+03  0.47000000000E+01 0. -1.
         11    1    6    6    0    0  0.68446818488E+02 -0.41641896162E+01 -0.31939955001E+02  0.75646997044E+02  0.00000000000E+00 0. -1.
        -12    1    6    6    0    0  0.31527245733E+02 -0.47946398337E+02  0.26749976828E+02  0.63311812463E+02  0.00000000000E+00 0.  1.
         -5    1    5    5    0  503 -0.45094776662E+02 -0.14301951283E+02 -0.32673466282E+02  0.57686481012E+02  0.47000000000E+01 0.  1.
<mgrwt>
<rscale>  2 0.19289565E+03</rscale>
<asrwt>0</asrwt>
<pdfrwt beam="1">  1       21 0.15223671E-01 0.19296562E+03</pdfrwt>
<pdfrwt beam="2">  1       21 0.91034001E-01 0.19296562E+03</pdfrwt>
<totfact> 0.39064276E+04</totfact>
</mgrwt>
</event>
<event>
12    1  0.1473662E-001  0.1812866E+03  0.7546771E-02  0.1167292E+00
         21   -1    0    0  504  503  0.00000000000E+00  0.00000000000E+00  0.18265493214E+03  0.18265493214E+03  0.00000000000E+00 0. -1.
         21   -1    0    0  502  504 -0.00000000000E+00 -0.00000000000E+00 -0.24840882255E+03  0.24840882255E+03  0.00000000000E+00 0.  1.
          6    2    1    2  502    0 -0.17970530167E+02  0.45613667227E+02 -0.14827460455E+03  0.23187917380E+03  0.17140316886E+03 0.  0.
         24    2    3    3    0    0  0.38202326296E+02  0.28629529615E+02 -0.11520162319E+02  0.82990899570E+02  0.66900729228E+02 0.  0.
         -6    2    1    2    0  503  0.17970530167E+02 -0.45613667227E+02  0.82520714148E+02  0.19918458088E+03  0.17453160862E+03 0.  0.
        -24    2    5    5    0    0 -0.18069571790E+02  0.24191977050E+02  0.83344703810E+02  0.12047952462E+03  0.81591758298E+02 0.  0.
          4    1    4    4  501    0  0.39635687963E+02  0.35858537874E+02  0.14960770014E+02  0.55503577706E+02  0.00000000000E+00 0. -1.
         -3    1    4    4    0  501 -0.14333616675E+01 -0.72290082585E+01 -0.26480932332E+02  0.27487321864E+02  0.00000000000E+00 0.  1.
          5    1    3    3  502    0 -0.56172856463E+02  0.16984137611E+02 -0.13675444223E+03  0.14888827423E+03  0.47000000000E+01 0. -1.
         11    1    6    6    0    0 -0.83829653644E+01 -0.10136682174E+02  0.83781396260E+02  0.84807716589E+02  0.00000000000E+00 0. -1.
        -12    1    6    6    0    0 -0.96866064254E+01  0.34328659224E+02 -0.43669244975E+00  0.35671808035E+02  0.00000000000E+00 0.  1.
         -5    1    5    5    0  503  0.36040101956E+02 -0.69805644277E+02 -0.82398966252E+00  0.78705056260E+02  0.47000000000E+01 0.  1.
<mgrwt>
<rscale>  2 0.18052940E+03</rscale>
<asrwt>0</asrwt>
<pdfrwt beam="1">  1       21 0.28100759E-01 0.18128659E+03</pdfrwt>
<pdfrwt beam="2">  1       21 0.38216742E-01 0.18128659E+03</pdfrwt>
<totfact> 0.80256790E+04</totfact>
</mgrwt>
</event>
<event>
12    1  0.1473662E-001  0.3033978E+03  0.7546771E-02  0.1083862E+00
         21   -1    0    0  504  503  0.00000000000E+00  0.00000000000E+00  0.73302679180E+03  0.73302679180E+03  0.00000000000E+00 0. -1.
         21   -1    0    0  502  504 -0.00000000000E+00 -0.00000000000E+00 -0.14725576824E+03  0.14725576824E+03  0.00000000000E+00 0.  1.
          6    2    1    2  502    0 -0.49683863045E+01  0.24582991481E+03  0.46674164474E+03  0.55668483072E+03  0.17774477754E+03 0.  0.
         24    2    3    3    0    0 -0.71946669492E+02  0.13678744656E+03  0.28963994804E+03  0.33813632060E+03  0.80979892710E+02 0.  0.
         -6    2    1    2    0  503  0.49683863045E+01 -0.24582991481E+03  0.11902937882E+03  0.32359772932E+03  0.17346603564E+03 0.  0.
        -24    2    5    5    0    0  0.26093712256E+01 -0.39371470799E+02  0.62086542540E+02  0.10936600744E+03  0.80927518734E+02 0.  0.
          4    1    4    4  501    0 -0.31059359372E+02  0.65361567406E+02  0.21564211417E+03  0.22746063331E+03  0.00000000000E+00 0. -1.
         -3    1    4    4    0  501 -0.40887310119E+02  0.71425879157E+02  0.73997833864E+02  0.11067568730E+03  0.00000000000E+00 0.  1.
          5    1    3    3  502    0  0.66978283187E+02  0.10904246825E+03  0.17710169670E+03  0.21854851012E+03  0.47000000000E+01 0. -1.
         13    1    6    6    0    0  0.17109855909E+02 -0.61343128313E+02  0.42759571035E+02  0.76707936197E+02  0.00000000000E+00 0. -1.
        -14    1    6    6    0    0 -0.14500484683E+02  0.21971657515E+02  0.19326971505E+02  0.32658071246E+02  0.00000000000E+00 0.  1.
         -5    1    5    5    0  503  0.23590150789E+01 -0.20645844401E+03  0.56942836284E+02  0.21423172188E+03  0.47000000000E+01 0.  1.
<mgrwt>
<rscale>  2 0.30277422E+03</rscale>
<asrwt>0</asrwt>
<pdfrwt beam="1">  1       21 0.11277335E+00 0.30339782E+03</pdfrwt>
<pdfrwt beam="2">  1       21 0.22654734E-01 0.30339782E+03</pdfrwt>
<totfact> 0.10535893E+04</totfact>
</mgrwt>
</event>
<event>
12    1  0.1473662E-001  0.3175122E+03  0.7546771E-02  0.1076869E+00
         21   -1    0    0  504  503  0.00000000000E+00  0.00000000000E+00  0.94828719996E+03  0.94828719996E+03  0.00000000000E+00 0.  1.
         21   -1    0    0  502  504 -0.00000000000E+00 -0.00000000000E+00 -0.48604641877E+03  0.48604641877E+03  0.00000000000E+00 0.  1.
          6    2    1    2  502    0 -0.26345052684E+03  0.36804151958E+02 -0.40299374937E+03  0.51268033827E+03  0.17226851579E+03 0.  0.
         24    2    3    3    0    0 -0.13766104857E+03  0.86415458199E+02 -0.22428475152E+03  0.28853023129E+03  0.80795104395E+02 0.  0.
         -6    2    1    2    0  503  0.26345052684E+03 -0.36804151958E+02  0.86523453055E+03  0.92165328045E+03  0.17335873449E+03 0.  0.
        -24    2    5    5    0    0  0.15320573302E+03  0.30537450779E+02  0.62247185658E+03  0.64661762477E+03  0.78984858695E+02 0.  0.
          4    1    4    4  501    0 -0.79707656687E+02  0.91634845503E+02 -0.17019426971E+03  0.20908454005E+03  0.00000000000E+00 0. -1.
         -3    1    4    4    0  501 -0.57953391878E+02 -0.52193873036E+01 -0.54090481810E+02  0.79445691239E+02  0.00000000000E+00 0.  1.
          5    1    3    3  502    0 -0.12578947827E+03 -0.49611306241E+02 -0.17870899785E+03  0.22415010699E+03  0.47000000000E+01 0. -1.
         11    1    6    6    0    0  0.68124084532E+00  0.22263537458E+02  0.75363515389E+02  0.78586186070E+02  0.00000000000E+00 0. -1.
        -12    1    6    6    0    0  0.15252449217E+03  0.82739133215E+01  0.54710834119E+03  0.56803143870E+03  0.00000000000E+00 0.  1.
         -5    1    5    5    0  503  0.11024479382E+03 -0.67341602737E+02  0.24276267397E+03  0.27503565568E+03  0.47000000000E+01 0.  1.
<mgrwt>
<rscale>  2 0.31736358E+03</rscale>
<asrwt>0</asrwt>
<pdfrwt beam="1">  1       21 0.14589034E+00 0.31751217E+03</pdfrwt>
<pdfrwt beam="2">  1       21 0.74776373E-01 0.31751217E+03</pdfrwt>
<totfact> 0.46069946E+02</totfact>
</mgrwt>
</event>
<event>
12    1  0.1473662E-001  0.1974574E+03  0.7546771E-02  0.1155032E+00
         21   -1    0    0  504  503  0.00000000000E+00  0.00000000000E+00  0.38175124005E+03  0.38175124005E+03  0.00000000000E+00 0. -1.
         21   -1    0    0  502  504 -0.00000000000E+00 -0.00000000000E+00 -0.11556087140E+03  0.11556087140E+03  0.00000000000E+00 0. -1.
          6    2    1    2  502    0  0.55802809629E+02  0.27655398622E+02  0.32309745443E+02  0.20008336954E+03  0.18737838851E+03 0.  0.
         24    2    3    3    0    0  0.46189518911E+02 -0.57784690993E+02  0.62457841471E+00  0.10833118111E+03  0.79137301773E+02 0.  0.
         -6    2    1    2    0  503 -0.55802809629E+02 -0.27655398622E+02  0.23388062320E+03  0.29722874191E+03  0.17252827153E+03 0.  0.
        -24    2    5    5    0    0 -0.76601014831E+02 -0.12165838656E+02  0.24477909744E+03  0.26870930033E+03  0.79196959755E+02 0.  0.
          4    1    4    4  501    0 -0.12961863379E+01 -0.51621747164E+02 -0.21058203939E+02  0.55766771760E+02  0.00000000000E+00 0. -1.
         -3    1    4    4    0  501  0.47485705249E+02 -0.61629438287E+01  0.21682782354E+02  0.52564409350E+02  0.00000000000E+00 0.  1.
          5    1    3    3  502    0  0.96132907179E+01  0.85440089615E+02  0.31685167029E+02  0.91752188429E+02  0.47000000000E+01 0. -1.
         11    1    6    6    0    0 -0.19712791606E+02  0.32589457894E+02  0.74083557573E+02  0.83300902885E+02  0.00000000000E+00 0. -1.
        -12    1    6    6    0    0 -0.56888223225E+02 -0.44755296550E+02  0.17069553987E+03  0.18540839744E+03  0.00000000000E+00 0.  1.
         -5    1    5    5    0  503  0.20798205202E+02 -0.15489559966E+02 -0.10898474242E+02  0.28519441586E+02  0.47000000000E+01 0.  1.
<mgrwt>
<rscale>  2 0.19385179E+03</rscale>
<asrwt>0</asrwt>
<pdfrwt beam="1">  1       21 0.58730959E-01 0.19745743E+03</pdfrwt>
<pdfrwt beam="2">  1       21 0.17778596E-01 0.19745743E+03</pdfrwt>
<totfact> 0.77760294E+04</totfact>
</mgrwt>
</event>
<event>
12    1  0.1473662E-001  0.1896887E+03  0.7546771E-02  0.1158982E+00
         21   -1    0    0  504  503  0.00000000000E+00  0.00000000000E+00  0.33329315333E+03  0.33329315333E+03  0.00000000000E+00 0.  1.
         21   -1    0    0  502  504 -0.00000000000E+00 -0.00000000000E+00 -0.10795981049E+03  0.10795981049E+03  0.00000000000E+00 0.  1.
          6    2    1    2  502    0  0.70051541177E+02  0.30348440955E+02  0.12883952595E+03  0.22843173109E+03  0.17249111870E+03 0.  0.
         24    2    3    3    0    0  0.67034880693E+01 -0.21462391318E+02  0.91832053113E+01  0.83390139663E+02  0.79774765057E+02 0.  0.
         -6    2    1    2    0  503 -0.70051541177E+02 -0.30348440955E+02  0.96493816888E+02  0.21282123273E+03  0.17364784512E+03 0.  0.
        -24    2    5    5    0    0 -0.14843030219E+02  0.46987943937E+02  0.39041770746E+02  0.10168292378E+03  0.79918550440E+02 0.  0.
          4    1    4    4  501    0 -0.25924261317E+02 -0.38192477329E+02  0.35929132881E+01  0.46299478131E+02  0.00000000000E+00 0. -1.
         -3    1    4    4    0  501  0.32627749387E+02  0.16730086011E+02  0.55902920232E+01  0.37090661532E+02  0.00000000000E+00 0.  1.
          5    1    3    3  502    0  0.63348053108E+02  0.51810832273E+02  0.11965632064E+03  0.14504159142E+03  0.47000000000E+01 0. -1.
         13    1    6    6    0    0  0.22735281075E+02 -0.11810440519E+01 -0.84689046684E+01  0.24290125914E+02  0.00000000000E+00 0. -1.
        -14    1    6    6    0    0 -0.37578311294E+02  0.48168987989E+02  0.47510675414E+02  0.77392797868E+02  0.00000000000E+00 0.  1.
         -5    1    5    5    0  503 -0.55208510957E+02 -0.77336384892E+02  0.57452046143E+02  0.11113830895E+03  0.47000000000E+01 0.  1.
<mgrwt>
<rscale>  2 0.18942361E+03</rscale>
<asrwt>0</asrwt>
<pdfrwt beam="1">  1       21 0.51275869E-01 0.18968875E+03</pdfrwt>
<pdfrwt beam="2">  1       21 0.16609202E-01 0.18968875E+03</pdfrwt>
<totfact> 0.11783088E+05</totfact>
</mgrwt>
</event>
<event>
12    1  0.1473662E-001  0.1787129E+03  0.7546771E-02  0.1169215E+00
         21   -1    0    0  504  503  0.00000000000E+00  0.00000000000E+00  0.79128933370E+02  0.79128933370E+02  0.00000000000E+00 0.  1.
         21   -1    0    0  502  504 -0.00000000000E+00 -0.00000000000E+00 -0.60627305928E+03  0.60627305928E+03  0.00000000000E+00 0.  1.
          6    2    1    2  502    0  0.39898159012E+02  0.13631650032E+02 -0.46210506898E+03  0.49522214540E+03  0.17299188865E+03 0.  0.
         24    2    3    3    0    0  0.62294342169E+02 -0.34312986648E+02 -0.39622367247E+03  0.41058925810E+03  0.80823103866E+02 0.  0.
         -6    2    1    2    0  503 -0.39898159012E+02 -0.13631650032E+02 -0.65039056933E+02  0.19017984726E+03  0.17366810416E+03 0.  0.
        -24    2    5    5    0    0 -0.19305908403E+02  0.56991443690E+02 -0.50765842951E+02  0.11509671474E+03  0.83960348851E+02 0.  0.
          2    1    4    4  501    0  0.70759751419E+02 -0.40984471145E+02 -0.23157862890E+03  0.24559179681E+03  0.00000000000E+00 0. -1.
         -1    1    4    4    0  501 -0.84654092500E+01  0.66714844965E+01 -0.16464504358E+03  0.16499746129E+03  0.00000000000E+00 0.  1.
          5    1    3    3  502    0 -0.22396183157E+02  0.47944636680E+02 -0.65881396508E+02  0.84632887297E+02  0.47000000000E+01 0. -1.
         11    1    6    6    0    0 -0.17025203853E+02 -0.13229302448E+02 -0.37997020439E+02  0.43688048386E+02  0.00000000000E+00 0. -1.
        -12    1    6    6    0    0 -0.22807045502E+01  0.70220746139E+02 -0.12768822512E+02  0.71408666350E+02  0.00000000000E+00 0.  1.
         -5    1    5    5    0  503 -0.20592250609E+02 -0.70623093722E+02 -0.14273213982E+02  0.75083132523E+02  0.47000000000E+01 0.  1.
<mgrwt>
<rscale>  2 0.17854839E+03</rscale>
<asrwt>0</asrwt>
<pdfrwt beam="1">  1       21 0.12173682E-01 0.17871289E+03</pdfrwt>
<pdfrwt beam="2">  1       21 0.93272780E-01 0.17871289E+03</pdfrwt>
<totfact> 0.55672254E+04</totfact>
</mgrwt>
</event>
<event>
12    1  0.1473662E-001  0.2611097E+03  0.7546771E-02  0.1106545E+00
         21   -1    0    0  504  503  0.00000000000E+00  0.00000000000E+00  0.77084936017E+03  0.77084936017E+03  0.00000000000E+00 0. -1.
         21   -1    0    0  502  504 -0.00000000000E+00 -0.00000000000E+00 -0.91180371720E+02  0.91180371720E+02  0.00000000000E+00 0. -1.
          6    2    1    2  502    0 -0.20732333288E+02  0.19395716848E+03  0.26289322302E+03  0.37021644018E+03  0.17291082391E+03 0.  0.
         24    2    3    3    0    0 -0.41550642508E+02  0.20995652295E+03  0.22063556808E+03  0.32024464070E+03  0.89824153627E+02 0.  0.
         -6    2    1    2    0  503  0.20732333288E+02 -0.19395716848E+03  0.41677576543E+03  0.49181329171E+03  0.17357725198E+03 0.  0.
        -24    2    5    5    0    0  0.36568620600E+02 -0.21266068546E+03  0.39973804391E+03  0.46159767492E+03  0.81976085457E+02 0.  0.
          4    1    4    4  501    0 -0.49545472377E+02  0.20719320885E+03  0.22571935758E+03  0.31037559185E+03  0.00000000000E+00 0. -1.
         -3    1    4    4    0  501  0.79948298693E+01  0.27633140932E+01 -0.50837895075E+01  0.98690488484E+01  0.00000000000E+00 0.  1.
          5    1    3    3  502    0  0.20818309220E+02 -0.15999354472E+02  0.42257654941E+02  0.49971799482E+02  0.47000000000E+01 0. -1.
         11    1    6    6    0    0 -0.19092098275E+02 -0.46816567541E+02  0.13621788153E+03  0.14529834982E+03  0.00000000000E+00 0. -1.
        -12    1    6    6    0    0  0.55660718875E+02 -0.16584411792E+03  0.26352016238E+03  0.31629932510E+03  0.00000000000E+00 0.  1.
         -5    1    5    5    0  503 -0.15836287313E+02  0.18703516985E+02  0.17037721521E+02  0.30215616791E+02  0.47000000000E+01 0.  1.
<mgrwt>
<rscale>  2 0.26099899E+03</rscale>
<asrwt>0</asrwt>
<pdfrwt beam="1">  1       21 0.11859221E+00 0.26110970E+03</pdfrwt>
<pdfrwt beam="2">  1       21 0.14027750E-01 0.26110970E+03</pdfrwt>
<totfact> 0.23202464E+04</totfact>
</mgrwt>
</event>
<event>
12    1  0.1473662E-001  0.2372385E+03  0.7546771E-02  0.1122327E+00
         21   -1    0    0  504  503  0.00000000000E+00  0.00000000000E+00  0.13185437612E+03  0.13185437612E+03  0.00000000000E+00 0. -1.
         21   -1    0    0  502  504 -0.00000000000E+00 -0.00000000000E+00 -0.82537843559E+03  0.82537843559E+03  0.00000000000E+00 0. -1.
          6    2    1    2  502    0 -0.24300332106E+02  0.16069531563E+03 -0.68379495613E+03  0.72378010459E+03  0.17282536607E+03 0.  0.
         24    2    3    3    0    0 -0.23559743733E+02  0.16759649387E+02 -0.35006612566E+03  0.36030376867E+03  0.80228212033E+02 0.  0.
         -6    2    1    2    0  503  0.24300332106E+02 -0.16069531563E+03 -0.97291033350E+01  0.23345270713E+03  0.16730816001E+03 0.  0.
        -24    2    5    5    0    0  0.12879023967E+02 -0.15076601872E+03 -0.59096726312E+02  0.18160399050E+03  0.81186973386E+02 0.  0.
          4    1    4    4  501    0 -0.11044481933E+02 -0.15401569874E+02 -0.17015409998E+02  0.25469847136E+02  0.00000000000E+00 0. -1.
         -3    1    4    4    0  501 -0.12515261800E+02  0.32161219261E+02 -0.33305071567E+03  0.33483392153E+03  0.00000000000E+00 0.  1.
          5    1    3    3  502    0 -0.74058837303E+00  0.14393566625E+03 -0.33372883047E+03  0.36347633592E+03  0.47000000000E+01 0. -1.
         11    1    6    6    0    0  0.51811852655E+01 -0.50979694665E+02  0.19005309367E+02  0.54653231680E+02  0.00000000000E+00 0. -1.
        -12    1    6    6    0    0  0.76978387011E+01 -0.99786324054E+02 -0.78102035679E+02  0.12695075882E+03  0.00000000000E+00 0.  1.
         -5    1    5    5    0  503  0.11421308140E+02 -0.99292969133E+01  0.49367622977E+02  0.51848716620E+02  0.47000000000E+01 0.  1.
<mgrwt>
<rscale>  2 0.23623499E+03</rscale>
<asrwt>0</asrwt>
<pdfrwt beam="1">  1       21 0.20285289E-01 0.23723848E+03</pdfrwt>
<pdfrwt beam="2">  1       21 0.12698130E+00 0.23723848E+03</pdfrwt>
<totfact> 0.10001704E+04</totfact>
</mgrwt>
</event>
<event>
12    1  0.1473662E-001  0.2756432E+03  0.7546771E-02  0.1098196E+00
         21   -1    0    0  504  503  0.00000000000E+00  0.00000000000E+00  0.13576639639E+03  0.13576639639E+03  0.00000000000E+00 0. -1.
         21   -1    0    0  502  504 -0.00000000000E+00 -0.00000000000E+00 -0.58689024345E+03  0.58689024345E+03  0.00000000000E+00 0.  1.
          6    2    1    2  502    0  0.18190263068E+03 -0.11237510381E+03 -0.30526811366E+03  0.41080241066E+03  0.17278098386E+03 0.  0.
         24    2    3    3    0    0  0.33614909261E+02 -0.81721838252E+02 -0.17269425213E+03  0.20948974396E+03  0.79083671730E+02 0.  0.
         -6    2    1    2    0  503 -0.18190263068E+03  0.11237510381E+03 -0.14585573340E+03  0.31185422919E+03  0.17396101372E+03 0.  0.
        -24    2    5    5    0    0 -0.10070526745E+03  0.10404558032E+02 -0.19184701727E+02  0.13003386656E+03  0.79315496288E+02 0.  0.
          2    1    4    4  501    0  0.19913582197E+02  0.12255005024E+02 -0.39558794055E+02  0.45952519966E+02  0.00000000000E+00 0. -1.
         -1    1    4    4    0  501  0.13701327063E+02 -0.93976843276E+02 -0.13313545808E+03  0.16353722400E+03  0.00000000000E+00 0.  1.
          5    1    3    3  502    0  0.14828772142E+03 -0.30653265560E+02 -0.13257386153E+03  0.20131266670E+03  0.47000000000E+01 0. -1.
         13    1    6    6    0    0 -0.75667273391E+02  0.23221164688E+02  0.20152039262E+02  0.81675353922E+02  0.00000000000E+00 0. -1.
        -14    1    6    6    0    0 -0.25037994062E+02 -0.12816606657E+02 -0.39336740989E+02  0.48358512637E+02  0.00000000000E+00 0.  1.
         -5    1    5    5    0  503 -0.81197363225E+02  0.10197054578E+03 -0.12667103167E+03  0.18182036263E+03  0.47000000000E+01 0.  1.
<mgrwt>
<rscale>  2 0.27545720E+03</rscale>
<asrwt>0</asrwt>
<pdfrwt beam="1">  1       21 0.20887138E-01 0.27564318E+03</pdfrwt>
<pdfrwt beam="2">  1       21 0.90290806E-01 0.27564318E+03</pdfrwt>
<totfact> 0.21249354E+04</totfact>
</mgrwt>
</event>
<event>
12    1  0.1473662E-001  0.2296172E+03  0.7546771E-02  0.1127190E+00
         21   -1    0    0  504  503  0.00000000000E+00  0.00000000000E+00  0.29894001883E+03  0.29894001883E+03  0.00000000000E+00 0. -1.
         21   -1    0    0  502  504 -0.00000000000E+00 -0.00000000000E+00 -0.73408474718E+03  0.73408474718E+03  0.00000000000E+00 0.  1.
          6    2    1    2  502    0 -0.82793836890E+02  0.12409320321E+03 -0.66809045133E+03  0.70593488490E+03  0.17246816535E+03 0.  0.
         24    2    3    3    0    0 -0.23923080802E+02  0.20898971393E+02 -0.44571983838E+03  0.45377304222E+03  0.78960235047E+02 0.  0.
         -6    2    1    2    0  503  0.82793836890E+02 -0.12409320321E+03  0.23294572298E+03  0.32708988111E+03  0.17455697626E+03 0.  0.
        -24    2    5    5    0    0  0.77626818512E+02 -0.15850822193E+03  0.20564625292E+03  0.28261019296E+03  0.80170820461E+02 0.  0.
          2    1    4    4  501    0 -0.22538367637E+02 -0.24025946694E+02 -0.10354967832E+03  0.10866351739E+03  0.00000000000E+00 0. -1.
         -1    1    4    4    0  501 -0.13847131651E+01  0.44924918087E+02 -0.34217016006E+03  0.34510952483E+03  0.00000000000E+00 0.  1.
          5    1    3    3  502    0 -0.58870756087E+02  0.10319423182E+03 -0.22237061295E+03  0.25216184268E+03  0.47000000000E+01 0. -1.
         11    1    6    6    0    0 -0.13444413142E+02 -0.39426289388E+02  0.64001611083E+02  0.76363543402E+02  0.00000000000E+00 0. -1.
        -12    1    6    6    0    0  0.91071231654E+02 -0.11908193255E+03  0.14164464184E+03  0.20624664956E+03  0.00000000000E+00 0.  1.
         -5    1    5    5    0  503  0.51670183780E+01  0.34415018721E+02  0.27299470061E+02  0.44479688152E+02  0.47000000000E+01 0.  1.
<mgrwt>
<rscale>  2 0.22922025E+03</rscale>
<asrwt>0</asrwt>
<pdfrwt beam="1">  1       21 0.45990772E-01 0.22961725E+03</pdfrwt>
<pdfrwt beam="2">  1       21 0.11293611E+00 0.22961725E+03</pdfrwt>
<totfact> 0.26922745E+03</totfact>
</mgrwt>
</event>
<event>
12    1  0.1473662E-001  0.1926063E+03  0.7546771E-02  0.1156174E+00
         21   -1    0    0  504  503  0.00000000000E+00  0.00000000000E+00  0.63459041467E+02  0.63459041467E+02  0.00000000000E+00 0.  1.
         21   -1    0    0  502  504 -0.00000000000E+00 -0.00000000000E+00 -0.92165392876E+03  0.92165392876E+03  0.00000000000E+00 0.  1.
          6    2    1    2  502    0 -0.85916451196E+01 -0.83293947003E+02 -0.72736700534E+03  0.75243600380E+03  0.17345166872E+03 0.  0.
         24    2    3    3    0    0 -0.17133267183E+01 -0.10371409367E+03 -0.37071839410E+03  0.39510616240E+03  0.88978666714E+02 0.  0.
         -6    2    1    2    0  503  0.85916451196E+01  0.83293947003E+02 -0.13082788195E+03  0.23267696643E+03  0.17323665327E+03 0.  0.
        -24    2    5    5    0    0  0.69603834317E+02  0.34391326121E+02 -0.91091291884E+02  0.14484166515E+03  0.81572222253E+02 0.  0.
          2    1    4    4  501    0 -0.23308566539E+02 -0.48015537034E+02 -0.67466344513E+02  0.86026093209E+02  0.00000000000E+00 0. -1.
         -1    1    4    4    0  501  0.21595239820E+02 -0.55698556632E+02 -0.30325204958E+03  0.30908006919E+03  0.00000000000E+00 0.  1.
          5    1    3    3  502    0 -0.68783184013E+01  0.20420146664E+02 -0.35664861125E+03  0.35732984140E+03  0.47000000000E+01 0. -1.
         11    1    6    6    0    0  0.22611463476E+02 -0.26770208538E+02 -0.22654172472E+02  0.41726896315E+02  0.00000000000E+00 0. -1.
        -12    1    6    6    0    0  0.46992370840E+02  0.61161534660E+02 -0.68437119412E+02  0.10311476884E+03  0.00000000000E+00 0.  1.
         -5    1    5    5    0  503 -0.61012189197E+02  0.48902620881E+02 -0.39736590069E+02  0.87835301275E+02  0.47000000000E+01 0.  1.
<mgrwt>
<rscale>  2 0.19255786E+03</rscale>
<asrwt>0</asrwt>
<pdfrwt beam="1">  1       21 0.97629300E-02 0.19260628E+03</pdfrwt>
<pdfrwt beam="2">  1       21 0.14179290E+00 0.19260628E+03</pdfrwt>
<totfact> 0.29312741E+04</totfact>
</mgrwt>
</event>
<event>
12    1  0.1473662E-001  0.2358607E+03  0.7546771E-02  0.1122673E+00
         21   -1    0    0  504  503  0.00000000000E+00  0.00000000000E+00  0.63040021239E+02  0.63040021239E+02  0.00000000000E+00 0.  1.
         21   -1    0    0  502  504 -0.00000000000E+00 -0.00000000000E+00 -0.94766668634E+03  0.94766668634E+03  0.00000000000E+00 0. -1.
          6    2    1    2  502    0 -0.10762595109E+03  0.11826883328E+03 -0.57642863674E+03  0.62261355957E+03  0.17264648572E+03 0.  0.
         24    2    3    3    0    0 -0.13711757339E+03  0.85197401360E+02 -0.52247034393E+03  0.55263454301E+03  0.79811350771E+02 0.  0.
         -6    2    1    2    0  503  0.10762595109E+03 -0.11826883328E+03 -0.30819802836E+03  0.38809314802E+03  0.17337648219E+03 0.  0.
        -24    2    5    5    0    0  0.80289764490E+02 -0.60994037492E+02 -0.30417302355E+03  0.32432826745E+03  0.50008778427E+02 0.  0.
          4    1    4    4  501    0 -0.27908071053E+02  0.23636457693E+02 -0.25056695203E+03  0.25322191851E+03  0.00000000000E+00 0. -1.
         -3    1    4    4    0  501 -0.10920950234E+03  0.61560943667E+02 -0.27190339189E+03  0.29941262450E+03  0.00000000000E+00 0.  1.
          5    1    3    3  502    0  0.29491622305E+02  0.33071431915E+02 -0.53958292814E+02  0.69979016559E+02  0.47000000000E+01 0. -1.
         13    1    6    6    0    0  0.49782085627E+02 -0.45099047189E+02 -0.12522488919E+03  0.14210366983E+03  0.00000000000E+00 0. -1.
        -14    1    6    6    0    0  0.30507678863E+02 -0.15894990303E+02 -0.17894813436E+03  0.18222459762E+03  0.00000000000E+00 0.  1.
         -5    1    5    5    0  503  0.27336186598E+02 -0.57274795783E+02 -0.40250048125E+01  0.63764880565E+02  0.47000000000E+01 0.  1.
<mgrwt>
<rscale>  2 0.23572656E+03</rscale>
<asrwt>0</asrwt>
<pdfrwt beam="1">  1       21 0.96984654E-02 0.23586069E+03</pdfrwt>
<pdfrwt beam="2">  1       21 0.14579487E+00 0.23586069E+03</pdfrwt>
<totfact> 0.26882801E+04</totfact>
</mgrwt>
</event>
<event>
12    1  0.1473662E-001  0.2544516E+03  0.7546771E-02  0.1111304E+00
         21   -1    0    0  504  503  0.00000000000E+00  0.00000000000E+00  0.90953899195E+02  0.90953899195E+02  0.00000000000E+00 0.  1.
         21   -1    0    0  502  504 -0.00000000000E+00 -0.00000000000E+00 -0.14103267334E+04  0.14103267334E+04  0.00000000000E+00 0. -1.
          6    2    1    2  502    0  0.18382099441E+03 -0.25681371994E+02 -0.11964124044E+04  0.12231713879E+04  0.17405720830E+03 0.  0.
         24    2    3    3    0    0  0.20581909742E+03 -0.14675110816E+02 -0.11420398731E+04  0.11633089081E+04  0.80347272250E+02 0.  0.
         -6    2    1    2    0  503 -0.18382099441E+03  0.25681371994E+02 -0.12296042982E+03  0.27810924478E+03  0.16666071486E+03 0.  0.
        -24    2    5    5    0    0 -0.47874631717E+02  0.31276640699E+02 -0.51156043525E+01  0.98047551321E+02  0.79479206694E+02 0.  0.
          4    1    4    4  501    0  0.18027180082E+02 -0.18185245448E+01 -0.29729479628E+03  0.29784640698E+03  0.00000000000E+00 0. -1.
         -3    1    4    4    0  501  0.18779191734E+03 -0.12856586271E+02 -0.84474507678E+03  0.86546250108E+03  0.00000000000E+00 0.  1.
          5    1    3    3  502    0 -0.21998103013E+02 -0.11006261178E+02 -0.54372531369E+02  0.59862479808E+02  0.47000000000E+01 0. -1.
         13    1    6    6    0    0 -0.44227321576E+02  0.53695164341E+02 -0.18105514571E+02  0.71882100034E+02  0.00000000000E+00 0. -1.
        -14    1    6    6    0    0 -0.36473101407E+01 -0.22418523642E+02  0.12989910219E+02  0.26165451287E+02  0.00000000000E+00 0.  1.
         -5    1    5    5    0  503 -0.13594636269E+03 -0.55952687045E+01 -0.11784482547E+03  0.18006169346E+03  0.47000000000E+01 0.  1.
<mgrwt>
<rscale>  2 0.25319195E+03</rscale>
<asrwt>0</asrwt>
<pdfrwt beam="1">  1       21 0.13992907E-01 0.25445157E+03</pdfrwt>
<pdfrwt beam="2">  1       21 0.21697336E+00 0.25445157E+03</pdfrwt>
<totfact> 0.44309225E+03</totfact>
</mgrwt>
</event>
<event>
12    1  0.1473662E-001  0.3027920E+03  0.7546771E-02  0.1083925E+00
         21   -1    0    0  504  503  0.00000000000E+00  0.00000000000E+00  0.15228314185E+03  0.15228314185E+03  0.00000000000E+00 0. -1.
         21   -1    0    0  502  504 -0.00000000000E+00 -0.00000000000E+00 -0.73085821852E+03  0.73085821852E+03  0.00000000000E+00 0. -1.
          6    2    1    2  502    0 -0.18466240441E+03  0.16626500841E+03 -0.47571400563E+03  0.56390317408E+03  0.17302808432E+03 0.  0.
         24    2    3    3    0    0 -0.91815366081E+02  0.67587937026E+02 -0.12161200373E+03  0.18473559280E+03  0.79621411171E+02 0.  0.
         -6    2    1    2    0  503  0.18466240441E+03 -0.16626500841E+03 -0.10286107104E+03  0.31923818630E+03  0.17201268276E+03 0.  0.
        -24    2    5    5    0    0  0.51972240593E+02 -0.10855563741E+03 -0.53847439008E+01  0.14470803009E+03  0.80162199931E+02 0.  0.
          2    1    4    4  501    0 -0.10341260497E+03  0.70771699661E+02 -0.10132031046E+03  0.16114777581E+03  0.00000000000E+00 0. -1.
         -1    1    4    4    0  501  0.11597238886E+02 -0.31837626354E+01 -0.20291693277E+02  0.23587816990E+02  0.00000000000E+00 0.  1.
          5    1    3    3  502    0 -0.92847038329E+02  0.98677071384E+02 -0.35410200190E+03  0.37916758128E+03  0.47000000000E+01 0. -1.
         11    1    6    6    0    0  0.63248699124E+02 -0.10043772272E+03 -0.24381941329E+02  0.12117183315E+03  0.00000000000E+00 0. -1.
        -12    1    6    6    0    0 -0.11276458532E+02 -0.81179146908E+01  0.18997197428E+02  0.23536196933E+02  0.00000000000E+00 0.  1.
         -5    1    5    5    0  503  0.13269016382E+03 -0.57709370996E+02 -0.97476327137E+02  0.17453015621E+03  0.47000000000E+01 0.  1.
<mgrwt>
<rscale>  2 0.30264709E+03</rscale>
<asrwt>0</asrwt>
<pdfrwt beam="1">  1       21 0.23428176E-01 0.30279197E+03</pdfrwt>
<pdfrwt beam="2">  1       21 0.11243973E+00 0.30279197E+03</pdfrwt>
<totfact> 0.99555538E+03</totfact>
</mgrwt>
</event>
<event>
12    1  0.1473662E-001  0.1816198E+03  0.7546771E-02  0.1166625E+00
         21   -1    0    0  504  503  0.00000000000E+00  0.00000000000E+00  0.61804648483E+03  0.61804648483E+03  0.00000000000E+00 0.  1.
         21   -1    0    0  502  504 -0.00000000000E+00 -0.00000000000E+00 -0.17502685743E+03  0.17502685743E+03  0.00000000000E+00 0.  1.
          6    2    1    2  502    0 -0.42933440521E+01  0.53604017199E+02 -0.11000804481E+03  0.21098627781E+03  0.17181855557E+03 0.  0.
         24    2    3    3    0    0 -0.58291209385E+02  0.31308905039E+02 -0.11107542437E+03  0.15236827046E+03  0.80623987237E+02 0.  0.
         -6    2    1    2    0  503  0.42933440521E+01 -0.53604017199E+02  0.55302767221E+03  0.58208706445E+03  0.17347599518E+03 0.  0.
        -24    2    5    5    0    0  0.50438739882E+02 -0.83421596606E+02  0.39859629885E+03  0.41810650256E+03  0.80192323623E+02 0.  0.
          2    1    4    4  501    0 -0.61418545095E+02 -0.90336253348E+00 -0.37444052889E+02  0.71938243252E+02  0.00000000000E+00 0. -1.
         -1    1    4    4    0  501  0.31273357095E+01  0.32212267572E+02 -0.73631371478E+02  0.80430027207E+02  0.00000000000E+00 0.  1.
          5    1    3    3  502    0  0.53997865333E+02  0.22295112161E+02  0.10673795526E+01  0.58618007352E+02  0.47000000000E+01 0. -1.
         11    1    6    6    0    0  0.50981867713E+02 -0.84208452440E+02  0.23861978475E+03  0.25812713141E+03  0.00000000000E+00 0. -1.
        -12    1    6    6    0    0 -0.54312783030E+00  0.78685583397E+00  0.15997651410E+03  0.15997937115E+03  0.00000000000E+00 0.  1.
         -5    1    5    5    0  503 -0.46145395830E+02  0.29817579407E+02  0.15443137337E+03  0.16398056189E+03  0.47000000000E+01 0.  1.
<mgrwt>
<rscale>  2 0.18122287E+03</rscale>
<asrwt>0</asrwt>
<pdfrwt beam="1">  1       21 0.95084074E-01 0.18161978E+03</pdfrwt>
<pdfrwt beam="2">  1       21 0.26927209E-01 0.18161978E+03</pdfrwt>
<totfact> 0.12235869E+04</totfact>
</mgrwt>
</event>
<event>
12    1  0.1473662E-001  0.1810184E+03  0.7546771E-02  0.1167088E+00
         21   -1    0    0  504  503  0.00000000000E+00  0.00000000000E+00  0.39013379675E+03  0.39013379675E+03  0.00000000000E+00 0. -1.
         21   -1    0    0  502  504 -0.00000000000E+00 -0.00000000000E+00 -0.89584418891E+02  0.89584418891E+02  0.00000000000E+00 0. -1.
          6    2    1    2  502    0  0.42089781150E+02  0.33043025002E+02  0.88076104253E+02  0.20130838775E+03  0.17292852760E+03 0.  0.
         24    2    3    3    0    0  0.32175697608E+02  0.82061733595E+02  0.92259217812E+02  0.15090291896E+03  0.80563788651E+02 0.  0.
         -6    2    1    2    0  503 -0.42089781150E+02 -0.33043025002E+02  0.21247327360E+03  0.27840982789E+03  0.17176655406E+03 0.  0.
        -24    2    5    5    0    0 -0.63708310499E+02 -0.67838831971E+02  0.20139342526E+03  0.23571366843E+03  0.79628925618E+02 0.  0.
          4    1    4    4  501    0  0.59056840233E+02  0.60903710449E+02  0.60243500211E+02  0.10404927507E+03  0.00000000000E+00 0. -1.
         -3    1    4    4    0  501 -0.26881142624E+02  0.21158023146E+02  0.32015717601E+02  0.46853643890E+02  0.00000000000E+00 0.  1.
          5    1    3    3  502    0  0.99140835414E+01 -0.49018708593E+02 -0.41831135589E+01  0.50405468787E+02  0.47000000000E+01 0. -1.
         11    1    6    6    0    0 -0.59865639130E+02 -0.62339075377E+01  0.88112812224E+02  0.10670812542E+03  0.00000000000E+00 0. -1.
        -12    1    6    6    0    0 -0.38426713688E+01 -0.61604924433E+02  0.11328061304E+03  0.12900554301E+03  0.00000000000E+00 0.  1.
         -5    1    5    5    0  503  0.21618529349E+02  0.34795806969E+02  0.11079848340E+02  0.42696159465E+02  0.47000000000E+01 0.  1.
<mgrwt>
<rscale>  2 0.18074035E+03</rscale>
<asrwt>0</asrwt>
<pdfrwt beam="1">  1       21 0.60020584E-01 0.18101842E+03</pdfrwt>
<pdfrwt beam="2">  1       21 0.13782218E-01 0.18101842E+03</pdfrwt>
<totfact> 0.11894092E+05</totfact>
</mgrwt>
</event>
<event>
12    1  0.1473662E-001  0.2046350E+03  0.7546771E-02  0.1145964E+00
         21   -1    0    0  504  503  0.00000000000E+00  0.00000000000E+00  0.11419151754E+04  0.11419151754E+04  0.00000000000E+00 0. -1.
         21   -1    0    0  502  504 -0.00000000000E+00 -0.00000000000E+00 -0.50809690779E+02  0.50809690779E+02  0.00000000000E+00 0. -1.
          6    2    1    2  502    0 -0.17489857406E+02  0.10824910619E+03  0.22984506978E+03  0.30748760808E+03  0.17232558985E+03 0.  0.
         24    2    3    3    0    0 -0.38491687062E+02  0.91504379222E+02  0.24482628545E+03  0.27637507759E+03  0.81170265969E+02 0.  0.
         -6    2    1    2    0  503  0.17489857406E+02 -0.10824910619E+03  0.86126041489E+03  0.88523725814E+03  0.17277655179E+03 0.  0.
        -24    2    5    5    0    0 -0.25578303347E+02 -0.60466239781E+02  0.74632464463E+03  0.75344048247E+03  0.79760075775E+02 0.  0.
          2    1    4    4  501    0 -0.62677405102E+02  0.62251251996E+02  0.14778231635E+03  0.17217226406E+03  0.00000000000E+00 0. -1.
         -1    1    4    4    0  501  0.24185718041E+02  0.29253127226E+02  0.97043969098E+02  0.10420281353E+03  0.00000000000E+00 0.  1.
          5    1    3    3  502    0  0.21001829655E+02  0.16744726969E+02 -0.14981215674E+02  0.31112530486E+02  0.47000000000E+01 0. -1.
         11    1    6    6    0    0 -0.87971700580E+01 -0.17146093907E+02  0.59107247139E+03  0.59138654463E+03  0.00000000000E+00 0. -1.
        -12    1    6    6    0    0 -0.16781133289E+02 -0.43320145874E+02  0.15525217324E+03  0.16205393784E+03  0.00000000000E+00 0.  1.
         -5    1    5    5    0  503  0.43068160753E+02 -0.47782866411E+02  0.11493577026E+03  0.13179677568E+03  0.47000000000E+01 0.  1.
<mgrwt>
<rscale>  2 0.20453982E+03</rscale>
<asrwt>0</asrwt>
<pdfrwt beam="1">  1       21 0.17567924E+00 0.20463504E+03</pdfrwt>
<pdfrwt beam="2">  1       21 0.78168764E-02 0.20463504E+03</pdfrwt>
<totfact> 0.24137672E+04</totfact>
</mgrwt>
</event>
<event>
12    1  0.1473662E-001  0.1995415E+03  0.7546771E-02  0.1150510E+00
         21   -1    0    0  504  503  0.00000000000E+00  0.00000000000E+00  0.16160099472E+03  0.16160099472E+03  0.00000000000E+00 0.  1.
         21   -1    0    0  502  504 -0.00000000000E+00 -0.00000000000E+00 -0.46521100195E+03  0.46521100195E+03  0.00000000000E+00 0. -1.
          6    2    1    2  502    0 -0.99895504289E+01 -0.99658547078E+02 -0.36819908055E+03  0.41879276748E+03  0.17258389857E+03 0.  0.
         24    2    3    3    0    0 -0.65494838506E+02 -0.98438151837E+02 -0.28383022437E+03  0.31768628765E+03  0.79908306745E+02 0.  0.
         -6    2    1    2    0  503  0.99895504289E+01  0.99658547078E+02  0.64589073329E+02  0.20801922920E+03  0.17049526151E+03 0.  0.
        -24    2    5    5    0    0 -0.14264361103E+02  0.11455356939E+03  0.91965850438E+02  0.16824873964E+03  0.80770839332E+02 0.  0.
          4    1    4    4  501    0 -0.38408586762E+02 -0.34527934073E+02 -0.21037831592E+03  0.21662509914E+03  0.00000000000E+00 0. -1.
         -3    1    4    4    0  501 -0.27086251744E+02 -0.63910217764E+02 -0.73451908455E+02  0.10106118851E+03  0.00000000000E+00 0.  1.
          5    1    3    3  502    0  0.55505288077E+02 -0.12203952415E+01 -0.84368856182E+02  0.10110647982E+03  0.47000000000E+01 0. -1.
         11    1    6    6    0    0 -0.15634992004E+00  0.88351543811E+02  0.20305527439E+02  0.90655028452E+02  0.00000000000E+00 0. -1.
        -12    1    6    6    0    0 -0.14108011183E+02  0.26202025584E+02  0.71660322999E+02  0.77593711192E+02  0.00000000000E+00 0.  1.
         -5    1    5    5    0  503  0.24253911532E+02 -0.14895022317E+02 -0.27376777109E+02  0.39770489553E+02  0.47000000000E+01 0.  1.
<mgrwt>
<rscale>  2 0.19908906E+03</rscale>
<asrwt>0</asrwt>
<pdfrwt beam="1">  1       21 0.24861691E-01 0.19954152E+03</pdfrwt>
<pdfrwt beam="2">  1       21 0.71570924E-01 0.19954152E+03</pdfrwt>
<totfact> 0.26901146E+04</totfact>
</mgrwt>
</event>
<event>
12    1  0.1473662E-001  0.2104830E+03  0.7546771E-02  0.1141578E+00
         21   -1    0    0  504  503  0.00000000000E+00  0.00000000000E+00  0.54515903762E+03  0.54515903762E+03  0.00000000000E+00 0.  1.
         21   -1    0    0  502  504 -0.00000000000E+00 -0.00000000000E+00 -0.93536164959E+02  0.93536164959E+02  0.00000000000E+00 0.  1.
          6    2    1    2  502    0 -0.74600475261E+02  0.91806630153E+02  0.10568175497E+03  0.23375282376E+03  0.17169176169E+03 0.  0.
         24    2    3    3    0    0 -0.91468686659E+02  0.10011225194E+03  0.12942538484E+03  0.20310368236E+03  0.78174112837E+02 0.  0.
         -6    2    1    2    0  503  0.74600475261E+02 -0.91806630153E+02  0.34594111769E+03  0.40494237882E+03  0.17409590748E+03 0.  0.
        -24    2    5    5    0    0 -0.27667140773E+02 -0.50020759224E+02  0.18547990066E+03  0.21007161018E+03  0.80372512850E+02 0.  0.
          2    1    4    4  501    0 -0.76566686676E+02  0.44992597899E+02  0.40927925879E+02  0.97784899095E+02  0.00000000000E+00 0. -1.
         -1    1    4    4    0  501 -0.14901999983E+02  0.55119654043E+02  0.88497458959E+02  0.10531878326E+03  0.00000000000E+00 0.  1.
          5    1    3    3  502    0  0.16868211398E+02 -0.83056217897E+01 -0.23743629873E+02  0.30649141401E+02  0.47000000000E+01 0. -1.
         13    1    6    6    0    0 -0.21331112652E+02  0.19083218129E+02  0.65274908102E+02  0.71274113175E+02  0.00000000000E+00 0. -1.
        -14    1    6    6    0    0 -0.63360281213E+01 -0.69103977353E+02  0.12020499256E+03  0.13879749701E+03  0.00000000000E+00 0.  1.
         -5    1    5    5    0  503  0.10226761603E+03 -0.41785870929E+02  0.16046121703E+03  0.19487076864E+03  0.47000000000E+01 0.  1.
<mgrwt>
<rscale>  2 0.20998515E+03</rscale>
<asrwt>0</asrwt>
<pdfrwt beam="1">  1       21 0.83870619E-01 0.21048295E+03</pdfrwt>
<pdfrwt beam="2">  1       21 0.14390180E-01 0.21048295E+03</pdfrwt>
<totfact> 0.51805305E+04</totfact>
</mgrwt>
</event>
<event>
12    1  0.1473662E-001  0.2482522E+03  0.7546771E-02  0.1114612E+00
         21   -1    0    0  504  503  0.00000000000E+00  0.00000000000E+00  0.26977159446E+04  0.26977159446E+04  0.00000000000E+00 0. -1.
         21   -1    0    0  502  504 -0.00000000000E+00 -0.00000000000E+00 -0.45521642908E+02  0.45521642908E+02  0.00000000000E+00 0. -1.
          6    2    1    2  502    0 -0.14075128386E+03 -0.11034646837E+03  0.22982571697E+04  0.23116260894E+04  0.17216820803E+03 0.  0.
         24    2    3    3    0    0 -0.12102615090E+03 -0.15590159603E+02  0.13677803603E+04  0.13761171253E+04  0.89357967279E+02 0.  0.
         -6    2    1    2    0  503  0.14075128386E+03  0.11034646837E+03  0.35393713192E+03  0.43161149809E+03  0.17038111674E+03 0.  0.
        -24    2    5    5    0    0  0.10163366492E+03  0.90603730762E+02  0.35437637312E+03  0.38754056966E+03  0.77888647648E+02 0.  0.
          4    1    4    4  501    0 -0.47460826148E+02 -0.22523812316E+02  0.97704941301E+03  0.97846073380E+03  0.00000000000E+00 0. -1.
         -3    1    4    4    0  501 -0.73565324748E+02  0.69336527129E+01  0.39073094726E+03  0.39765639149E+03  0.00000000000E+00 0.  1.
          5    1    3    3  502    0 -0.19725132968E+02 -0.94756308768E+02  0.93047680947E+03  0.93550896408E+03  0.47000000000E+01 0. -1.
         11    1    6    6    0    0 -0.10094324152E+02  0.16529728441E+02  0.22950677133E+02  0.30030998706E+02  0.00000000000E+00 0. -1.
        -12    1    6    6    0    0  0.11172798907E+03  0.74074002321E+02  0.33142569598E+03  0.35750957095E+03  0.00000000000E+00 0.  1.
         -5    1    5    5    0  503  0.39117618945E+02  0.19742737608E+02 -0.43924120191E+00  0.44070928433E+02  0.47000000000E+01 0.  1.
<mgrwt>
<rscale>  2 0.24794262E+03</rscale>
<asrwt>0</asrwt>
<pdfrwt beam="1">  1       21 0.41503310E+00 0.24825221E+03</pdfrwt>
<pdfrwt beam="2">  1       21 0.70033318E-02 0.24825221E+03</pdfrwt>
<totfact> 0.98170410E+02</totfact>
</mgrwt>
</event>
<event>
12    1  0.1473662E-001  0.2817133E+03  0.7546771E-02  0.1094809E+00
         21   -1    0    0  504  503  0.00000000000E+00  0.00000000000E+00  0.82484945647E+02  0.82484945647E+02  0.00000000000E+00 0.  1.
         21   -1    0    0  502  504 -0.00000000000E+00 -0.00000000000E+00 -0.96710117619E+03  0.96710117619E+03  0.00000000000E+00 0. -1.
          6    2    1    2  502    0 -0.19211084356E+03  0.11114452757E+03 -0.48489626340E+03  0.56079117736E+03  0.17350122802E+03 0.  0.
         24    2    3    3    0    0 -0.49571514081E+02  0.62606719649E+02 -0.30894917043E+03  0.32916033146E+03  0.80746501763E+02 0.  0.
         -6    2    1    2    0  503  0.19211084356E+03 -0.11114452757E+03 -0.39971996714E+03  0.48879494448E+03  0.17287210125E+03 0.  0.
        -24    2    5    5    0    0  0.40812083025E+02 -0.49321122368E+02 -0.81191265057E+02  0.13075015339E+03  0.80033629545E+02 0.  0.
          4    1    4    4  501    0 -0.24269990288E+02  0.74608276302E+02 -0.16747641410E+03  0.18494263056E+03  0.00000000000E+00 0. -1.
         -3    1    4    4    0  501 -0.25301523793E+02 -0.12001556654E+02 -0.14147275633E+03  0.14421770090E+03  0.00000000000E+00 0.  1.
          5    1    3    3  502    0 -0.14253932948E+03  0.48537807922E+02 -0.17594709298E+03  0.23163084590E+03  0.47000000000E+01 0. -1.
         13    1    6    6    0    0  0.96379013735E+01 -0.60510259569E+02 -0.75348550740E+02  0.97117376172E+02  0.00000000000E+00 0. -1.
        -14    1    6    6    0    0  0.31174181651E+02  0.11189137201E+02 -0.58427143167E+01  0.33632777220E+02  0.00000000000E+00 0.  1.
         -5    1    5    5    0  503  0.15129876053E+03 -0.61823405203E+02 -0.31852870209E+03  0.35804479108E+03  0.47000000000E+01 0.  1.
<mgrwt>
<rscale>  2 0.28161645E+03</rscale>
<asrwt>0</asrwt>
<pdfrwt beam="1">  1       21 0.12689992E-01 0.28171326E+03</pdfrwt>
<pdfrwt beam="2">  1       21 0.14878480E+00 0.28171326E+03</pdfrwt>
<totfact> 0.15370399E+04</totfact>
</mgrwt>
</event>
<event>
12    1  0.1473662E-001  0.2430526E+03  0.7546771E-02  0.1117977E+00
         21   -1    0    0  504  503  0.00000000000E+00  0.00000000000E+00  0.68261874798E+02  0.68261874798E+02  0.00000000000E+00 0. -1.
         21   -1    0    0  502  504 -0.00000000000E+00 -0.00000000000E+00 -0.97202891340E+03  0.97202891340E+03  0.00000000000E+00 0.  1.
          6    2    1    2  502    0 -0.12861031770E+03 -0.11119895927E+03 -0.62863553015E+03  0.67398604081E+03  0.17369148248E+03 0.  0.
         24    2    3    3    0    0  0.63157293099E+01 -0.33049667821E+02 -0.22600543131E+03  0.24219276110E+03  0.80291404075E+02 0.  0.
         -6    2    1    2    0  503  0.12861031770E+03  0.11119895927E+03 -0.27513150846E+03  0.36630474738E+03  0.17197673869E+03 0.  0.
        -24    2    5    5    0    0  0.76352495660E+02  0.10825596993E+02 -0.68223098797E+02  0.13042581274E+03  0.80060004227E+02 0.  0.
          2    1    4    4  501    0  0.60778830291E+01 -0.50936536703E+02 -0.79593716884E+02  0.94692297474E+02  0.00000000000E+00 0. -1.
         -1    1    4    4    0  501  0.23784628077E+00  0.17886868882E+02 -0.14641171442E+03  0.14750046362E+03  0.00000000000E+00 0.  1.
          5    1    3    3  502    0 -0.13492604701E+03 -0.78149291448E+02 -0.40263009884E+03  0.43179327972E+03  0.47000000000E+01 0. -1.
         11    1    6    6    0    0  0.29353108256E+02 -0.29064387623E+02 -0.52507849023E+02  0.66808815295E+02  0.00000000000E+00 0. -1.
        -12    1    6    6    0    0  0.46999387405E+02  0.39889984615E+02 -0.15715249774E+02  0.63616997449E+02  0.00000000000E+00 0.  1.
         -5    1    5    5    0  503  0.52257822042E+02  0.10037336228E+03 -0.20690840966E+03  0.23587893464E+03  0.47000000000E+01 0.  1.
<mgrwt>
<rscale>  2 0.24274639E+03</rscale>
<asrwt>0</asrwt>
<pdfrwt beam="1">  1       21 0.10501827E-01 0.24305257E+03</pdfrwt>
<pdfrwt beam="2">  1       21 0.14954291E+00 0.24305257E+03</pdfrwt>
<totfact> 0.21740116E+04</totfact>
</mgrwt>
</event>
<event>
12    1  0.1473662E-001  0.2041141E+03  0.7546771E-02  0.1146769E+00
         21   -1    0    0  504  503  0.00000000000E+00  0.00000000000E+00  0.18356307573E+03  0.18356307573E+03  0.00000000000E+00 0. -1.
         21   -1    0    0  502  504 -0.00000000000E+00 -0.00000000000E+00 -0.23299329618E+03  0.23299329618E+03  0.00000000000E+00 0.  1.
          6    2    1    2  502    0 -0.50731830994E+02 -0.92493979168E+02 -0.64304646475E+02  0.21190098763E+03  0.17215715536E+03 0.  0.
         24    2    3    3    0    0 -0.27448227690E+02 -0.89563956622E+02  0.19153268217E+02  0.12507918887E+03  0.80640239811E+02 0.  0.
         -6    2    1    2    0  503  0.50731830994E+02  0.92493979168E+02  0.14874426021E+02  0.20465538428E+03  0.17473901370E+03 0.  0.
        -24    2    5    5    0    0 -0.87616048110E+01  0.34369459078E+02  0.62567931010E+02  0.10866221183E+03  0.81453697597E+02 0.  0.
          4    1    4    4  501    0  0.21092823992E+02 -0.61396707782E+02  0.22883069700E+02  0.68833842180E+02  0.00000000000E+00 0. -1.
         -3    1    4    4    0  501 -0.48541051682E+02 -0.28167248841E+02 -0.37298014825E+01  0.56245346694E+02  0.00000000000E+00 0.  1.
          5    1    3    3  502    0 -0.23283603304E+02 -0.29300225458E+01 -0.83457914692E+02  0.86821798759E+02  0.47000000000E+01 0. -1.
         11    1    6    6    0    0  0.99844336447E+01  0.36558611885E+02 -0.52569328615E+01  0.38260375865E+02  0.00000000000E+00 0. -1.
        -12    1    6    6    0    0 -0.18746038456E+02 -0.21891528076E+01  0.67824863872E+02  0.70401835963E+02  0.00000000000E+00 0.  1.
         -5    1    5    5    0  503  0.59493435805E+02  0.58124520090E+02 -0.47693504989E+02  0.95993172453E+02  0.47000000000E+01 0.  1.
<mgrwt>
<rscale>  2 0.20356041E+03</rscale>
<asrwt>0</asrwt>
<pdfrwt beam="1">  1       21 0.28240473E-01 0.20411413E+03</pdfrwt>
<pdfrwt beam="2">  1       21 0.35845123E-01 0.20411413E+03</pdfrwt>
<totfact> 0.89507735E+04</totfact>
</mgrwt>
</event>
<event>
12    1  0.1473662E-001  0.1790350E+03  0.7546771E-02  0.1168803E+00
         21   -1    0    0  504  503  0.00000000000E+00  0.00000000000E+00  0.26949777087E+03  0.26949777087E+03  0.00000000000E+00 0.  1.
         21   -1    0    0  502  504 -0.00000000000E+00 -0.00000000000E+00 -0.27077286566E+03  0.27077286566E+03  0.00000000000E+00 0.  1.
          6    2    1    2  502    0  0.32867255337E+02 -0.30586231205E+02 -0.20303766107E+03  0.27069879260E+03  0.17331408047E+03 0.  0.
         24    2    3    3    0    0  0.49165939902E+02 -0.46929887966E+02 -0.21869013059E+03  0.24241713711E+03  0.79504660959E+02 0.  0.
         -6    2    1    2    0  503 -0.32867255337E+02  0.30586231205E+02  0.20176256628E+03  0.26957184394E+03  0.17304644428E+03 0.  0.
        -24    2    5    5    0    0 -0.49238552132E+02 -0.39760442767E+02  0.95175290436E+02  0.14073236525E+03  0.82109286279E+02 0.  0.
          4    1    4    4  501    0 -0.13393245344E+02  0.64204570309E+01 -0.78525462397E+02  0.79917767324E+02  0.00000000000E+00 0. -1.
         -3    1    4    4    0  501  0.62559185247E+02 -0.53350344997E+02 -0.14016466820E+03  0.16249936978E+03  0.00000000000E+00 0.  1.
          5    1    3    3  502    0 -0.16298684565E+02  0.16343656761E+02  0.15652469527E+02  0.28281655488E+02  0.47000000000E+01 0. -1.
         11    1    6    6    0    0  0.73705909176E+00 -0.22217553532E+02 -0.89076593976E+01  0.23948054973E+02  0.00000000000E+00 0. -1.
        -12    1    6    6    0    0 -0.49975611224E+02 -0.17542889234E+02  0.10408294983E+03  0.11678431027E+03  0.00000000000E+00 0.  1.
         -5    1    5    5    0  503  0.16371296795E+02  0.70346673972E+02  0.10658727584E+03  0.12883947869E+03  0.47000000000E+01 0.  1.
<mgrwt>
<rscale>  2 0.17897023E+03</rscale>
<asrwt>0</asrwt>
<pdfrwt beam="1">  1       21 0.41461195E-01 0.17903504E+03</pdfrwt>
<pdfrwt beam="2">  1       21 0.41657364E-01 0.17903504E+03</pdfrwt>
<totfact> 0.31302378E+04</totfact>
</mgrwt>
</event>
<event>
12    1  0.1473662E-001  0.2359355E+03  0.7546771E-02  0.1122555E+00
         21   -1    0    0  504  503  0.00000000000E+00  0.00000000000E+00  0.21300172911E+03  0.21300172911E+03  0.00000000000E+00 0. -1.
         21   -1    0    0  502  504 -0.00000000000E+00 -0.00000000000E+00 -0.33456267427E+03  0.33456267427E+03  0.00000000000E+00 0.  1.
          6    2    1    2  502    0  0.15980427552E+03 -0.17750097810E+02 -0.18898709885E+03  0.30218335740E+03  0.17247082511E+03 0.  0.
         24    2    3    3    0    0  0.13843786236E+03 -0.72390928996E+02 -0.15704202542E+03  0.23521529218E+03  0.79110982737E+02 0.  0.
         -6    2    1    2    0  503 -0.15980427552E+03  0.17750097810E+02  0.67426153692E+02  0.24538104598E+03  0.17266470130E+03 0.  0.
        -24    2    5    5    0    0 -0.41477223053E+02 -0.33704005102E+02 -0.61563129733E+01  0.96769857123E+02  0.80437460590E+02 0.  0.
          2    1    4    4  501    0  0.65000421643E+02 -0.48196778890E+01 -0.25239855418E+02  0.69895167288E+02  0.00000000000E+00 0. -1.
         -1    1    4    4    0  501  0.73437440713E+02 -0.67571251107E+02 -0.13180217001E+03  0.16532012489E+03  0.00000000000E+00 0.  1.
          5    1    3    3  502    0  0.21366413163E+02  0.54640831186E+02 -0.31945073427E+02  0.66968065228E+02  0.47000000000E+01 0. -1.
         11    1    6    6    0    0 -0.13620006871E+01  0.15754944064E+02  0.22038687540E+02  0.27125210724E+02  0.00000000000E+00 0. -1.
        -12    1    6    6    0    0 -0.40115222366E+02 -0.49458949167E+02 -0.28195000513E+02  0.69644646399E+02  0.00000000000E+00 0.  1.
         -5    1    5    5    0  503 -0.11832705247E+03  0.51454102912E+02  0.73582466665E+02  0.14861118885E+03  0.47000000000E+01 0.  1.
<mgrwt>
<rscale>  2 0.23590005E+03</rscale>
<asrwt>0</asrwt>
<pdfrwt beam="1">  1       21 0.32769497E-01 0.23593552E+03</pdfrwt>
<pdfrwt beam="2">  1       21 0.51471180E-01 0.23593552E+03</pdfrwt>
<totfact> 0.31443096E+04</totfact>
</mgrwt>
</event>
<event>
12    1  0.1473662E-001  0.2019907E+03  0.7546771E-02  0.1148105E+00
         21   -1    0    0  504  503  0.00000000000E+00  0.00000000000E+00  0.53670466413E+03  0.53670466413E+03  0.00000000000E+00 0.  1.
         21   -1    0    0  502  504 -0.00000000000E+00 -0.00000000000E+00 -0.83824394749E+02  0.83824394749E+02  0.00000000000E+00 0.  1.
          6    2    1    2  502    0 -0.11804136810E+02 -0.10365261273E+03  0.32157964305E+03  0.37975478089E+03  0.17296538677E+03 0.  0.
         24    2    3    3    0    0  0.45534276572E+02 -0.10392227377E+03  0.20654730695E+03  0.25113792852E+03  0.86805874264E+02 0.  0.
         -6    2    1    2    0  503  0.11804136810E+02  0.10365261273E+03  0.13130062634E+03  0.24077427798E+03  0.17276920064E+03 0.  0.
        -24    2    5    5    0    0  0.36092135884E+02 -0.65414123800E+01  0.48523159186E+02  0.10074989034E+03  0.80315696327E+02 0.  0.
          4    1    4    4  501    0  0.65414240688E+02 -0.52519169273E+02  0.15189848159E+03  0.17352358553E+03  0.00000000000E+00 0. -1.
         -3    1    4    4    0  501 -0.19879964116E+02 -0.51403104495E+02  0.54648825356E+02  0.77614342990E+02  0.00000000000E+00 0.  1.
          5    1    3    3  502    0 -0.57338413382E+02  0.26966103818E+00  0.11503233610E+03  0.12861685238E+03  0.47000000000E+01 0. -1.
         13    1    6    6    0    0 -0.25774887465E+02 -0.29532823219E+01  0.18670828475E+02  0.31963518834E+02  0.00000000000E+00 0. -1.
        -14    1    6    6    0    0  0.61867023349E+02 -0.35881300581E+01  0.29852330711E+02  0.68786371501E+02  0.00000000000E+00 0.  1.
         -5    1    5    5    0  503 -0.24287999075E+02  0.11019402511E+03  0.82777467150E+02  0.14002438765E+03  0.47000000000E+01 0.  1.
<mgrwt>
<rscale>  2 0.20194865E+03</rscale>
<asrwt>0</asrwt>
<pdfrwt beam="1">  1       21 0.82569946E-01 0.20199066E+03</pdfrwt>
<pdfrwt beam="2">  1       21 0.12896061E-01 0.20199066E+03</pdfrwt>
<totfact> 0.65732894E+04</totfact>
</mgrwt>
</event>
<event>
12    1  0.1473662E-001  0.3864067E+03  0.7546771E-02  0.1048685E+00
         21   -1    0    0  504  503  0.00000000000E+00  0.00000000000E+00  0.14748156141E+03  0.14748156141E+03  0.00000000000E+00 0. -1.
         21   -1    0    0  502  504 -0.00000000000E+00 -0.00000000000E+00 -0.10242587081E+04  0.10242587081E+04  0.00000000000E+00 0.  1.
          6    2    1    2  502    0  0.56244797297E+02  0.34268178482E+03 -0.36907649949E+03  0.53434784011E+03  0.16945757250E+03 0.  0.
         24    2    3    3    0    0 -0.26683021510E+02  0.11659433889E+03 -0.16486577403E+03  0.21856838109E+03  0.79279191909E+02 0.  0.
         -6    2    1    2    0  503 -0.56244797297E+02 -0.34268178482E+03 -0.50770064718E+03  0.63739242939E+03  0.16707746414E+03 0.  0.
        -24    2    5    5    0    0  0.96588160627E+01 -0.21170873709E+03 -0.22985398548E+03  0.32319809000E+03  0.81916229478E+02 0.  0.
          4    1    4    4  501    0  0.26035622837E+02  0.47269642828E+02 -0.44205716790E+02  0.69759717506E+02  0.00000000000E+00 0. -1.
         -3    1    4    4    0  501 -0.52718644347E+02  0.69324696059E+02 -0.12066005724E+03  0.14880866359E+03  0.00000000000E+00 0.  1.
          5    1    3    3  502    0  0.82927818807E+02  0.22608744594E+03 -0.20421072547E+03  0.31577945902E+03  0.47000000000E+01 0. -1.
         11    1    6    6    0    0 -0.15220856937E+01 -0.13965775660E+03 -0.91985081792E+02  0.16723594409E+03  0.00000000000E+00 0. -1.
        -12    1    6    6    0    0  0.11180901756E+02 -0.72050980491E+02 -0.13786890369E+03  0.15596214591E+03  0.00000000000E+00 0.  1.
         -5    1    5    5    0  503 -0.65903613360E+02 -0.13097304774E+03 -0.27784666170E+03  0.31419433939E+03  0.47000000000E+01 0.  1.
<mgrwt>
<rscale>  2 0.38614699E+03</rscale>
<asrwt>0</asrwt>
<pdfrwt beam="1">  1       21 0.22689471E-01 0.38640672E+03</pdfrwt>
<pdfrwt beam="2">  1       21 0.15757826E+00 0.38640672E+03</pdfrwt>
<totfact> 0.42446071E+03</totfact>
</mgrwt>
</event>
<event>
12    1  0.1473662E-001  0.2600994E+03  0.7546771E-02  0.1107128E+00
         21   -1    0    0  504  503  0.00000000000E+00  0.00000000000E+00  0.11114064572E+04  0.11114064572E+04  0.00000000000E+00 0.  1.
         21   -1    0    0  502  504 -0.00000000000E+00 -0.00000000000E+00 -0.63359943493E+02  0.63359943493E+02  0.00000000000E+00 0. -1.
          6    2    1    2  502    0 -0.15660535574E+03 -0.11168806886E+03  0.40626149610E+03  0.48238996994E+03  0.17507774763E+03 0.  0.
         24    2    3    3    0    0 -0.67304441618E+02 -0.78248603381E+02  0.34503008200E+03  0.36896939338E+03  0.80249136921E+02 0.  0.
         -6    2    1    2    0  503  0.15660535574E+03  0.11168806886E+03  0.64178501757E+03  0.69237643071E+03  0.17463576626E+03 0.  0.
        -24    2    5    5    0    0  0.54609872316E+02 -0.69442364242E+01  0.20899679590E+03  0.23215426989E+03  0.84767232807E+02 0.  0.
          2    1    4    4  501    0 -0.74164408746E+02 -0.46137612380E+02  0.30465121303E+03  0.31692491287E+03  0.00000000000E+00 0. -1.
         -1    1    4    4    0  501  0.68599671279E+01 -0.32110991001E+02  0.40378868971E+02  0.52044480509E+02  0.00000000000E+00 0.  1.
          5    1    3    3  502    0 -0.89300914122E+02 -0.33439465479E+02  0.61231414102E+02  0.11342057656E+03  0.47000000000E+01 0. -1.
         13    1    6    6    0    0  0.65731724405E+02 -0.31933917921E+02  0.16312876331E+03  0.17874962413E+03  0.00000000000E+00 0. -1.
        -14    1    6    6    0    0 -0.11121852089E+02  0.24989681497E+02  0.45868032591E+02  0.53404645762E+02  0.00000000000E+00 0.  1.
         -5    1    5    5    0  503  0.10199548342E+03  0.11863230528E+03  0.43278822167E+03  0.46022216082E+03  0.47000000000E+01 0.  1.
<mgrwt>
<rscale>  2 0.26002501E+03</rscale>
<asrwt>0</asrwt>
<pdfrwt beam="1">  1       21 0.17098559E+00 0.26009937E+03</pdfrwt>
<pdfrwt beam="2">  1       21 0.97476844E-02 0.26009937E+03</pdfrwt>
<totfact> 0.17072224E+04</totfact>
</mgrwt>
</event>
<event>
12    1  0.1473662E-001  0.2089195E+03  0.7546771E-02  0.1142506E+00
         21   -1    0    0  504  503  0.00000000000E+00  0.00000000000E+00  0.83513932881E+03  0.83513932881E+03  0.00000000000E+00 0. -1.
         21   -1    0    0  502  504 -0.00000000000E+00 -0.00000000000E+00 -0.53240017861E+02  0.53240017861E+02  0.00000000000E+00 0. -1.
          6    2    1    2  502    0 -0.12531103629E+02  0.11475258625E+03  0.45456607966E+03  0.50027760939E+03  0.17413265366E+03 0.  0.
         24    2    3    3    0    0  0.35495304369E+02  0.13375433962E+03  0.32977103939E+03  0.36513511210E+03  0.73651691574E+02 0.  0.
         -6    2    1    2    0  503  0.12531103629E+02 -0.11475258625E+03  0.32733323130E+03  0.38810173729E+03  0.17363965436E+03 0.  0.
        -24    2    5    5    0    0  0.60065024243E+02 -0.70964543281E+02  0.12857276408E+03  0.17904509510E+03  0.82960333143E+02 0.  0.
          2    1    4    4  501    0  0.30537998407E+02  0.13832196412E+03  0.26923819410E+03  0.30422810566E+03  0.00000000000E+00 0. -1.
         -1    1    4    4    0  501  0.49573059628E+01 -0.45676245080E+01  0.60532845288E+02  0.60907006450E+02  0.00000000000E+00 0.  1.
          5    1    3    3  502    0 -0.48026407999E+02 -0.19001753370E+02  0.12479504027E+03  0.13514249728E+03  0.47000000000E+01 0. -1.
         11    1    6    6    0    0  0.34827794278E+02 -0.82963843960E+02  0.11965772673E+03  0.14971287929E+03  0.00000000000E+00 0. -1.
        -12    1    6    6    0    0  0.25237229966E+02  0.11999300679E+02  0.89150373416E+01  0.29332215803E+02  0.00000000000E+00 0.  1.
         -5    1    5    5    0  503 -0.47533920614E+02 -0.43788042965E+02  0.19876046722E+03  0.20905664219E+03  0.47000000000E+01 0.  1.
<mgrwt>
<rscale>  2 0.20881676E+03</rscale>
<asrwt>0</asrwt>
<pdfrwt beam="1">  1       21 0.12848296E+00 0.20891952E+03</pdfrwt>
<pdfrwt beam="2">  1       21 0.81907726E-02 0.20891952E+03</pdfrwt>
<totfact> 0.50835863E+04</totfact>
</mgrwt>
</event>
<event>
12    1  0.1473662E-001  0.2012688E+03  0.7546771E-02  0.1149184E+00
         21   -1    0    0  504  503  0.00000000000E+00  0.00000000000E+00  0.47035497615E+03  0.47035497615E+03  0.00000000000E+00 0. -1.
         21   -1    0    0  502  504 -0.00000000000E+00 -0.00000000000E+00 -0.90602749979E+02  0.90602749979E+02  0.00000000000E+00 0. -1.
          6    2    1    2  502    0 -0.91556883373E+02  0.36826037646E+02  0.12177345587E+03  0.23524009149E+03  0.17541466913E+03 0.  0.
         24    2    3    3    0    0 -0.29009934899E+02 -0.31528284295E+02  0.11263646001E+02  0.90952385259E+02  0.79434612289E+02 0.  0.
         -6    2    1    2    0  503  0.91556883373E+02 -0.36826037646E+02  0.25797877030E+03  0.32571763465E+03  0.17262708840E+03 0.  0.
        -24    2    5    5    0    0  0.12463904497E+03  0.73485877099E+00  0.18680658823E+03  0.23858084645E+03  0.80552388782E+02 0.  0.
          2    1    4    4  501    0 -0.15136173115E+02  0.25721784291E+02 -0.39690896733E+01  0.30107600311E+02  0.00000000000E+00 0. -1.
         -1    1    4    4    0  501 -0.13873761784E+02 -0.57250068586E+02  0.15232735675E+02  0.60844784947E+02  0.00000000000E+00 0.  1.
          5    1    3    3  502    0 -0.62546948474E+02  0.68354321941E+02  0.11050980987E+03  0.14428770623E+03  0.47000000000E+01 0. -1.
         13    1    6    6    0    0 -0.31605253158E+01 -0.14097759495E+02  0.44264483045E+02  0.46562648146E+02  0.00000000000E+00 0. -1.
        -14    1    6    6    0    0  0.12779957029E+03  0.14832618266E+02  0.14254210519E+03  0.19201819831E+03  0.00000000000E+00 0.  1.
         -5    1    5    5    0  503 -0.33082161599E+02 -0.37560896417E+02  0.71172182072E+02  0.87136788193E+02  0.47000000000E+01 0.  1.
<mgrwt>
<rscale>  2 0.20065983E+03</rscale>
<asrwt>0</asrwt>
<pdfrwt beam="1">  1       21 0.72362303E-01 0.20126879E+03</pdfrwt>
<pdfrwt beam="2">  1       21 0.13938885E-01 0.20126879E+03</pdfrwt>
<totfact> 0.76870733E+04</totfact>
</mgrwt>
</event>
<event>
12    1  0.1473662E-001  0.2244088E+03  0.7546771E-02  0.1130781E+00
         21   -1    0    0  504  503  0.00000000000E+00  0.00000000000E+00  0.15409594000E+04  0.15409594000E+04  0.00000000000E+00 0.  1.
         21   -1    0    0  502  504 -0.00000000000E+00 -0.00000000000E+00 -0.45473327049E+02  0.45473327049E+02  0.00000000000E+00 0.  1.
          6    2    1    2  502    0  0.65645292562E+02  0.12597519284E+03  0.32608575916E+03  0.39584241815E+03  0.17372462126E+03 0.  0.
         24    2    3    3    0    0  0.22958515268E+02  0.15163856722E+03  0.26576055308E+03  0.31747156752E+03  0.81475003005E+02 0.  0.
         -6    2    1    2    0  503 -0.65645292562E+02 -0.12597519284E+03  0.11694003138E+04  0.11905903089E+04  0.17271113487E+03 0.  0.
        -24    2    5    5    0    0 -0.16424596049E+02 -0.17243706047E+02  0.74327207891E+03  0.74803796652E+03  0.80872141768E+02 0.  0.
          4    1    4    4  501    0 -0.29493896664E+02  0.35048351660E+02  0.71776461748E+02  0.85147738405E+02  0.00000000000E+00 0. -1.
         -3    1    4    4    0  501  0.52452411932E+02  0.11659021556E+03  0.19398409134E+03  0.23232382911E+03  0.00000000000E+00 0.  1.
          5    1    3    3  502    0  0.42686777294E+02 -0.25663374385E+02  0.60325206082E+02  0.78370850636E+02  0.47000000000E+01 0. -1.
         13    1    6    6    0    0 -0.43034093655E+02  0.76394819074E+01  0.51782757603E+03  0.51966883050E+03  0.00000000000E+00 0. -1.
        -14    1    6    6    0    0  0.26609497606E+02 -0.24883187955E+02  0.22544450288E+03  0.22836913602E+03  0.00000000000E+00 0.  1.
         -5    1    5    5    0  503 -0.49220696513E+02 -0.10873148679E+03  0.42612823491E+03  0.44255234241E+03  0.47000000000E+01 0.  1.
<mgrwt>
<rscale>  2 0.22421260E+03</rscale>
<asrwt>0</asrwt>
<pdfrwt beam="1">  1       21 0.23707064E+00 0.22440877E+03</pdfrwt>
<pdfrwt beam="2">  1       21 0.69958977E-02 0.22440877E+03</pdfrwt>
<totfact> 0.11686100E+04</totfact>
</mgrwt>
</event>
<event>
12    1  0.1473662E-001  0.1804871E+03  0.7546771E-02  0.1167794E+00
         21   -1    0    0  504  503  0.00000000000E+00  0.00000000000E+00  0.95032548172E+03  0.95032548172E+03  0.00000000000E+00 0.  1.
         21   -1    0    0  502  504 -0.00000000000E+00 -0.00000000000E+00 -0.43013667003E+02  0.43013667003E+02  0.00000000000E+00 0.  1.
          6    2    1    2  502    0  0.46701461737E+02  0.47811029642E+00  0.22336615871E+03  0.28597979607E+03  0.17236805906E+03 0.  0.
         24    2    3    3    0    0 -0.47087109146E+01 -0.57283341035E+02  0.15251712438E+03  0.18099852737E+03  0.78711120962E+02 0.  0.
         -6    2    1    2    0  503 -0.46701461737E+02 -0.47811029642E+00  0.68394565601E+03  0.70735935265E+03  0.17433972094E+03 0.  0.
        -24    2    5    5    0    0 -0.18839890154E+02  0.37548601745E+02  0.62623266627E+03  0.63269224354E+03  0.79795261567E+02 0.  0.
          4    1    4    4  501    0 -0.90729817196E+01 -0.61889553301E+02  0.55051265331E+02  0.83326332090E+02  0.00000000000E+00 0. -1.
         -3    1    4    4    0  501  0.43642708051E+01  0.46062122657E+01  0.97465859048E+02  0.97672195281E+02  0.00000000000E+00 0.  1.
          5    1    3    3  502    0  0.51410172652E+02  0.57761451331E+02  0.70849034329E+02  0.10498126870E+03  0.47000000000E+01 0. -1.
         11    1    6    6    0    0 -0.43505058723E+02 -0.16246297247E+01  0.27570065080E+03  0.27911678274E+03  0.00000000000E+00 0. -1.
        -12    1    6    6    0    0  0.24665168569E+02  0.39173231470E+02  0.35053201547E+03  0.35357546080E+03  0.00000000000E+00 0.  1.
         -5    1    5    5    0  503 -0.27861571583E+02 -0.38026712042E+02  0.57712989734E+02  0.74667109117E+02  0.47000000000E+01 0.  1.
<mgrwt>
<rscale>  2 0.18000926E+03</rscale>
<asrwt>0</asrwt>
<pdfrwt beam="1">  1       21 0.14620391E+00 0.18048710E+03</pdfrwt>
<pdfrwt beam="2">  1       21 0.66174879E-02 0.18048710E+03</pdfrwt>
<totfact> 0.53634354E+04</totfact>
</mgrwt>
</event>
<event>
12    1  0.1473662E-001  0.1761869E+03  0.7546771E-02  0.1172104E+00
         21   -1    0    0  504  503  0.00000000000E+00  0.00000000000E+00  0.18465838275E+03  0.18465838275E+03  0.00000000000E+00 0. -1.
         21   -1    0    0  502  504 -0.00000000000E+00 -0.00000000000E+00 -0.79809864091E+03  0.79809864091E+03  0.00000000000E+00 0. -1.
          6    2    1    2  502    0 -0.77071924583E+01  0.18632724987E+02 -0.74443069751E+03  0.76499601401E+03  0.17502930839E+03 0.  0.
         24    2    3    3    0    0 -0.32807517570E+02  0.12723900147E+02 -0.18331668862E+03  0.20327013646E+03  0.80470548691E+02 0.  0.
         -6    2    1    2    0  503  0.77071924583E+01 -0.18632724987E+02  0.13099043935E+03  0.21776100965E+03  0.17278536647E+03 0.  0.
        -24    2    5    5    0    0 -0.18772940681E+02  0.46461766247E+02  0.10873251556E+03  0.14389629946E+03  0.79826474510E+02 0.  0.
          4    1    4    4  501    0 -0.41855785717E+02 -0.20919436402E+02 -0.66102829580E+02  0.80988355310E+02  0.00000000000E+00 0. -1.
         -3    1    4    4    0  501  0.90482681470E+01  0.33643336548E+02 -0.11721385904E+03  0.12228178115E+03  0.00000000000E+00 0.  1.
          5    1    3    3  502    0  0.25100325112E+02  0.59088248402E+01 -0.56111400889E+03  0.56172587755E+03  0.47000000000E+01 0. -1.
         11    1    6    6    0    0 -0.42601374197E+02  0.16268004482E+01  0.40132301987E+02  0.58550194072E+02  0.00000000000E+00 0. -1.
        -12    1    6    6    0    0  0.23828433516E+02  0.44834965799E+02  0.68600213572E+02  0.85346105384E+02  0.00000000000E+00 0.  1.
         -5    1    5    5    0  503  0.26480133139E+02 -0.65094491234E+02  0.22257923791E+02  0.73864710191E+02  0.47000000000E+01 0.  1.
<mgrwt>
<rscale>  2 0.17562703E+03</rscale>
<asrwt>0</asrwt>
<pdfrwt beam="1">  1       21 0.28408982E-01 0.17618694E+03</pdfrwt>
<pdfrwt beam="2">  1       21 0.12278441E+00 0.17618694E+03</pdfrwt>
<totfact> 0.59883347E+03</totfact>
</mgrwt>
</event>
<event>
12    1  0.1473662E-001  0.2353130E+03  0.7546771E-02  0.1123142E+00
         21   -1    0    0  504  503  0.00000000000E+00  0.00000000000E+00  0.17138058141E+03  0.17138058141E+03  0.00000000000E+00 0. -1.
         21   -1    0    0  502  504 -0.00000000000E+00 -0.00000000000E+00 -0.10241738404E+04  0.10241738404E+04  0.00000000000E+00 0.  1.
          6    2    1    2  502    0  0.15701875234E+03  0.74098371325E+00 -0.92119189107E+03  0.95050224700E+03  0.17379465972E+03 0.  0.
         24    2    3    3    0    0  0.16968739885E+03  0.20251397055E+02 -0.89554252812E+03  0.91555756711E+03  0.83936324715E+02 0.  0.
         -6    2    1    2    0  503 -0.15701875234E+03 -0.74098371325E+00  0.68398632078E+02  0.24505217482E+03  0.17526196926E+03 0.  0.
        -24    2    5    5    0    0 -0.11269517739E+02 -0.26779770640E+02  0.10303502005E+02  0.85935890455E+02  0.80216313610E+02 0.  0.
          4    1    4    4  501    0  0.13428306586E+03 -0.27417441734E+01 -0.49849000660E+03  0.51626712622E+03  0.00000000000E+00 0. -1.
         -3    1    4    4    0  501  0.35404332995E+02  0.22993141229E+02 -0.39705252152E+03  0.39929044089E+03  0.00000000000E+00 0.  1.
          5    1    3    3  502    0 -0.12668646515E+02 -0.19510413342E+02 -0.25649362947E+02  0.34944679894E+02  0.47000000000E+01 0. -1.
         13    1    6    6    0    0 -0.12062194605E+02  0.17954229573E+02  0.30054947813E+02  0.37029053273E+02  0.00000000000E+00 0. -1.
        -14    1    6    6    0    0  0.79267686672E+00 -0.44734000213E+02 -0.19751445808E+02  0.48906837182E+02  0.00000000000E+00 0.  1.
         -5    1    5    5    0  503 -0.14574923460E+03  0.26038786926E+02  0.58095130073E+02  0.15911628436E+03  0.47000000000E+01 0.  1.
<mgrwt>
<rscale>  2 0.23503980E+03</rscale>
<asrwt>0</asrwt>
<pdfrwt beam="1">  1       21 0.26366243E-01 0.23531297E+03</pdfrwt>
<pdfrwt beam="2">  1       21 0.15756521E+00 0.23531297E+03</pdfrwt>
<totfact> 0.34625968E+03</totfact>
</mgrwt>
</event>
<event>
12    1  0.1473662E-001  0.3190145E+03  0.7546771E-02  0.1076145E+00
         21   -1    0    0  504  503  0.00000000000E+00  0.00000000000E+00  0.31970681670E+03  0.31970681670E+03  0.00000000000E+00 0.  1.
         21   -1    0    0  502  504 -0.00000000000E+00 -0.00000000000E+00 -0.34309200108E+03  0.34309200108E+03  0.00000000000E+00 0. -1.
          6    2    1    2  502    0  0.26701680375E+03  0.18153481356E+02 -0.10136747149E+03  0.33439134679E+03  0.17295862557E+03 0.  0.
         24    2    3    3    0    0  0.15016028714E+03  0.67207717809E+02 -0.18885316830E+02  0.18310631969E+03  0.78142689669E+02 0.  0.
         -6    2    1    2    0  503 -0.26701680375E+03 -0.18153481356E+02  0.77982287106E+02  0.32840747099E+03  0.17361655315E+03 0.  0.
        -24    2    5    5    0    0 -0.25923445084E+03  0.24380107756E+01  0.27112353466E+02  0.27278000733E+03  0.80407762601E+02 0.  0.
          4    1    4    4  501    0  0.11616968092E+03  0.17719286948E+02 -0.31706158554E+02  0.12171544021E+03  0.00000000000E+00 0. -1.
         -3    1    4    4    0  501  0.33990606228E+02  0.49488430861E+02  0.12820841724E+02  0.61390879480E+02  0.00000000000E+00 0.  1.
          5    1    3    3  502    0  0.11685651661E+03 -0.49054236453E+02 -0.82482154663E+02  0.15128502710E+03  0.47000000000E+01 0. -1.
         11    1    6    6    0    0 -0.14016852701E+03 -0.34847217984E+02 -0.28581949152E+01  0.14446353811E+03  0.00000000000E+00 0. -1.
        -12    1    6    6    0    0 -0.11906592384E+03  0.37285228760E+02  0.29970548381E+02  0.12831646922E+03  0.00000000000E+00 0.  1.
         -5    1    5    5    0  503 -0.77823529088E+01 -0.20591492132E+02  0.50869933641E+02  0.55627463663E+02  0.47000000000E+01 0.  1.
<mgrwt>
<rscale>  2 0.31892503E+03</rscale>
<asrwt>0</asrwt>
<pdfrwt beam="1">  1       21 0.49185664E-01 0.31901447E+03</pdfrwt>
<pdfrwt beam="2">  1       21 0.52783385E-01 0.31901447E+03</pdfrwt>
<totfact> 0.12560002E+04</totfact>
</mgrwt>
</event>
<event>
12    1  0.1473662E-001  0.3444205E+03  0.7546771E-02  0.1064957E+00
         21   -1    0    0  504  503  0.00000000000E+00  0.00000000000E+00  0.84935333451E+03  0.84935333451E+03  0.00000000000E+00 0. -1.
         21   -1    0    0  502  504 -0.00000000000E+00 -0.00000000000E+00 -0.14294849488E+03  0.14294849488E+03  0.00000000000E+00 0.  1.
          6    2    1    2  502    0 -0.15761109177E+03 -0.25198315192E+03  0.42975994288E+03  0.55074409908E+03  0.17403645902E+03 0.  0.
         24    2    3    3    0    0 -0.99138940993E+02 -0.24731448233E+03  0.39284065661E+03  0.48127531047E+03  0.79430222158E+02 0.  0.
         -6    2    1    2    0  503  0.15761109177E+03  0.25198315192E+03  0.27664489675E+03  0.44155773031E+03  0.17350523106E+03 0.  0.
        -24    2    5    5    0    0  0.26852120833E+02  0.29227272550E+02  0.88290235899E+02  0.12184276580E+03  0.73994756357E+02 0.  0.
          2    1    4    4  501    0 -0.62505237414E+02 -0.73862266029E+02  0.17925304332E+03  0.20370123364E+03  0.00000000000E+00 0. -1.
         -1    1    4    4    0  501 -0.36633703580E+02 -0.17345221630E+03  0.21358761329E+03  0.27757407683E+03  0.00000000000E+00 0.  1.
          5    1    3    3  502    0 -0.58472150779E+02 -0.46686695841E+01  0.36919286276E+02  0.69468788614E+02  0.47000000000E+01 0. -1.
         13    1    6    6    0    0 -0.14654238702E+02  0.25463534409E+02  0.65643205262E+01  0.30103631019E+02  0.00000000000E+00 0. -1.
        -14    1    6    6    0    0  0.41506359534E+02  0.37637381409E+01  0.81725915373E+02  0.91739134780E+02  0.00000000000E+00 0.  1.
         -5    1    5    5    0  503  0.13075897094E+03  0.22275587937E+03  0.18835466085E+03  0.31971496452E+03  0.47000000000E+01 0.  1.
<mgrwt>
<rscale>  2 0.34435341E+03</rscale>
<asrwt>0</asrwt>
<pdfrwt beam="1">  1       21 0.13066974E+00 0.34442046E+03</pdfrwt>
<pdfrwt beam="2">  1       21 0.21992077E-01 0.34442046E+03</pdfrwt>
<totfact> 0.75508837E+03</totfact>
</mgrwt>
</event>
<event>
12    1  0.1473662E-001  0.1739305E+03  0.7546771E-02  0.1173987E+00
         21   -1    0    0  504  503  0.00000000000E+00  0.00000000000E+00  0.17934118791E+03  0.17934118791E+03  0.00000000000E+00 0. -1.
         21   -1    0    0  502  504 -0.00000000000E+00 -0.00000000000E+00 -0.22487063552E+03  0.22487063552E+03  0.00000000000E+00 0. -1.
          6    2    1    2  502    0  0.17528379426E+02 -0.16593933608E+02 -0.12436250169E+03  0.21324989768E+03  0.17154266033E+03 0.  0.
         24    2    3    3    0    0  0.28671189762E+02  0.54648047162E+02 -0.62493841455E+02  0.11812154667E+03  0.78985906249E+02 0.  0.
         -6    2    1    2    0  503 -0.17528379426E+02  0.16593933608E+02  0.78833054079E+02  0.19096192576E+03  0.17224750783E+03 0.  0.
        -24    2    5    5    0    0  0.37131216177E+02  0.50742983635E+02  0.73752863410E+02  0.12614119337E+03  0.80737464671E+02 0.  0.
          2    1    4    4  501    0 -0.42170781334E+01  0.13364345175E+02 -0.63802007946E+02  0.65322933858E+02  0.00000000000E+00 0. -1.
         -1    1    4    4    0  501  0.32888267895E+02  0.41283701987E+02  0.13081664904E+01  0.52798612808E+02  0.00000000000E+00 0.  1.
          5    1    3    3  502    0 -0.11142810336E+02 -0.71241980770E+02 -0.61868660238E+02  0.95128351010E+02  0.47000000000E+01 0. -1.
         11    1    6    6    0    0  0.47932897488E+02  0.20558788563E+02  0.77970399466E+02  0.93806234557E+02  0.00000000000E+00 0. -1.
        -12    1    6    6    0    0 -0.10801681311E+02  0.30184195073E+02 -0.42175360558E+01  0.32334958817E+02  0.00000000000E+00 0.  1.
         -5    1    5    5    0  503 -0.54659595603E+02 -0.34149050027E+02  0.50801906690E+01  0.64820732382E+02  0.47000000000E+01 0.  1.
<mgrwt>
<rscale>  2 0.17375570E+03</rscale>
<asrwt>0</asrwt>
<pdfrwt beam="1">  1       21 0.27590952E-01 0.17393047E+03</pdfrwt>
<pdfrwt beam="2">  1       21 0.34595482E-01 0.17393047E+03</pdfrwt>
<totfact> 0.10165996E+05</totfact>
</mgrwt>
</event>
<event>
12    1  0.1473662E-001  0.1964920E+03  0.7546771E-02  0.1152868E+00
         21   -1    0    0  504  503  0.00000000000E+00  0.00000000000E+00  0.12525998802E+04  0.12525998802E+04  0.00000000000E+00 0.  1.
         21   -1    0    0  502  504 -0.00000000000E+00 -0.00000000000E+00 -0.57959541872E+02  0.57959541872E+02  0.00000000000E+00 0.  1.
          6    2    1    2  502    0 -0.71249454115E+02 -0.59349560689E+02  0.14763914763E+03  0.24527983811E+03  0.17252833391E+03 0.  0.
         24    2    3    3    0    0 -0.15949253828E+02  0.35674545989E+01  0.14576984257E+02  0.87976652231E+02  0.85207379010E+02 0.  0.
         -6    2    1    2    0  503  0.71249454115E+02  0.59349560689E+02  0.10470011907E+04  0.10652795839E+04  0.17323464904E+03 0.  0.
        -24    2    5    5    0    0  0.14575159726E+02  0.14122979538E+02  0.86891965530E+03  0.87294512907E+03  0.81239997426E+02 0.  0.
          2    1    4    4  501    0 -0.27608117782E+02 -0.36051494938E+02  0.60912485916E+01  0.45815082278E+02  0.00000000000E+00 0. -1.
         -1    1    4    4    0  501  0.11658863954E+02  0.39618949537E+02  0.84857356651E+01  0.42161569953E+02  0.00000000000E+00 0.  1.
          5    1    3    3  502    0 -0.55300200287E+02 -0.62917015288E+02  0.13306216338E+03  0.15730318588E+03  0.47000000000E+01 0. -1.
         13    1    6    6    0    0 -0.25450356391E+01 -0.32627734782E+02  0.42000414690E+03  0.42127725989E+03  0.00000000000E+00 0. -1.
        -14    1    6    6    0    0  0.17120195365E+02  0.46750714319E+02  0.44891550839E+03  0.45166786919E+03  0.00000000000E+00 0.  1.
         -5    1    5    5    0  503  0.56674294389E+02  0.45226581151E+02  0.17808153536E+03  0.19233445485E+03  0.47000000000E+01 0.  1.
<mgrwt>
<rscale>  2 0.19633619E+03</rscale>
<asrwt>0</asrwt>
<pdfrwt beam="1">  1       21 0.19270765E+00 0.19649198E+03</pdfrwt>
<pdfrwt beam="2">  1       21 0.89168535E-02 0.19649198E+03</pdfrwt>
<totfact> 0.14819942E+04</totfact>
</mgrwt>
</event>
<event>
12    1  0.1473662E-001  0.1844352E+03  0.7546771E-02  0.1163993E+00
         21   -1    0    0  504  503  0.00000000000E+00  0.00000000000E+00  0.82547959473E+02  0.82547959473E+02  0.00000000000E+00 0.  1.
         21   -1    0    0  502  504 -0.00000000000E+00 -0.00000000000E+00 -0.91828988432E+03  0.91828988432E+03  0.00000000000E+00 0.  1.
          6    2    1    2  502    0  0.16410560551E+02  0.55265117037E+02 -0.78995798416E+03  0.81080490530E+03  0.17334196859E+03 0.  0.
         24    2    3    3    0    0  0.42990619858E+02  0.57174177977E+02 -0.30146905224E+03  0.32156705857E+03  0.86050587911E+02 0.  0.
         -6    2    1    2    0  503 -0.16410560551E+02 -0.55265117037E+02 -0.45783940691E+02  0.19003293849E+03  0.17519363238E+03 0.  0.
        -24    2    5    5    0    0 -0.76305679112E+02 -0.43806561970E+02 -0.11660887587E+02  0.11999583072E+03  0.80755504789E+02 0.  0.
          2    1    4    4  501    0 -0.40922963407E+01  0.50040846887E+02 -0.75743265261E+02  0.90872853367E+02  0.00000000000E+00 0. -1.
         -1    1    4    4    0  501  0.47082916199E+02  0.71333310898E+01 -0.22572578697E+03  0.23069420521E+03  0.00000000000E+00 0.  1.
          5    1    3    3  502    0 -0.26580059307E+02 -0.19090609398E+01 -0.48848893192E+03  0.48923784673E+03  0.47000000000E+01 0. -1.
         13    1    6    6    0    0 -0.20604618389E+01  0.13271198744E+02 -0.22002054941E+02  0.25777134067E+02  0.00000000000E+00 0. -1.
        -14    1    6    6    0    0 -0.74245217273E+02 -0.57077760714E+02  0.10341167354E+02  0.94218696650E+02  0.00000000000E+00 0.  1.
         -5    1    5    5    0  503  0.59895118561E+02 -0.11458555068E+02 -0.34123053104E+02  0.70037107770E+02  0.47000000000E+01 0.  1.
<mgrwt>
<rscale>  2 0.18399414E+03</rscale>
<asrwt>0</asrwt>
<pdfrwt beam="1">  1       21 0.12699686E-01 0.18443521E+03</pdfrwt>
<pdfrwt beam="2">  1       21 0.14127536E+00 0.18443521E+03</pdfrwt>
<totfact> 0.18631783E+04</totfact>
</mgrwt>
</event>
<event>
12    1  0.1473662E-001  0.2483051E+03  0.7546771E-02  0.1114411E+00
         21   -1    0    0  504  503  0.00000000000E+00  0.00000000000E+00  0.71049509900E+03  0.71049509900E+03  0.00000000000E+00 0.  1.
         21   -1    0    0  502  504 -0.00000000000E+00 -0.00000000000E+00 -0.97497743590E+02  0.97497743590E+02  0.00000000000E+00 0. -1.
          6    2    1    2  502    0 -0.34941524173E+02 -0.17472829242E+03  0.44076243685E+03  0.50580034843E+03  0.17266030366E+03 0.  0.
         24    2    3    3    0    0 -0.75106710410E+01 -0.18739635553E+03  0.42465806951E+03  0.47124065842E+03  0.80990603778E+02 0.  0.
         -6    2    1    2    0  503  0.34941524173E+02  0.17472829242E+03  0.17223491857E+03  0.30219249416E+03  0.17292932102E+03 0.  0.
        -24    2    5    5    0    0  0.29885668498E+02  0.19285253063E+03  0.11162719388E+03  0.23855731537E+03  0.79772868509E+02 0.  0.
          2    1    4    4  501    0  0.18070498710E+02 -0.12003680444E+03  0.18737954614E+03  0.22326323400E+03  0.00000000000E+00 0. -1.
         -1    1    4    4    0  501 -0.25581169751E+02 -0.67359551092E+02  0.23727852337E+03  0.24797742442E+03  0.00000000000E+00 0.  1.
          5    1    3    3  502    0 -0.27430853132E+02  0.12668063115E+02  0.16104367331E+02  0.34559690013E+02  0.47000000000E+01 0. -1.
         11    1    6    6    0    0  0.24846365757E+02  0.14862025548E+03  0.12077208939E+03  0.19310934676E+03  0.00000000000E+00 0. -1.
        -12    1    6    6    0    0  0.50393027414E+01  0.44232275156E+02 -0.91448955040E+01  0.45447968617E+02  0.00000000000E+00 0.  1.
         -5    1    5    5    0  503  0.50558556748E+01 -0.18124238218E+02  0.60607724685E+02  0.63635178786E+02  0.47000000000E+01 0.  1.
<mgrwt>
<rscale>  2 0.24825829E+03</rscale>
<asrwt>0</asrwt>
<pdfrwt beam="1">  1       21 0.10930694E+00 0.24830513E+03</pdfrwt>
<pdfrwt beam="2">  1       21 0.14999653E-01 0.24830513E+03</pdfrwt>
<totfact> 0.25234276E+04</totfact>
</mgrwt>
</event>
<event>
12    1  0.1473662E-001  0.1888952E+03  0.7546771E-02  0.1159546E+00
         21   -1    0    0  504  503  0.00000000000E+00  0.00000000000E+00  0.11136002334E+03  0.11136002334E+03  0.00000000000E+00 0.  1.
         21   -1    0    0  502  504 -0.00000000000E+00 -0.00000000000E+00 -0.44057269462E+03  0.44057269462E+03  0.00000000000E+00 0.  1.
          6    2    1    2  502    0 -0.16484123748E+02  0.73775109677E+02 -0.30898550278E+03  0.36195764925E+03  0.17270438842E+03 0.  0.
         24    2    3    3    0    0 -0.50787516814E+02  0.27260455452E+02 -0.28145677872E+03  0.29776842522E+03  0.78266292062E+02 0.  0.
         -6    2    1    2    0  503  0.16484123748E+02 -0.73775109677E+02 -0.20227168500E+02  0.18997506871E+03  0.17310948918E+03 0.  0.
        -24    2    5    5    0    0 -0.52653893398E+02 -0.23668051905E+02 -0.29874339106E+02  0.10391729420E+03  0.81078472639E+02 0.  0.
          2    1    4    4  501    0 -0.65138173112E+02  0.40048233148E+01 -0.15131422692E+03  0.16478778921E+03  0.00000000000E+00 0. -1.
         -1    1    4    4    0  501  0.14350656298E+02  0.23255632138E+02 -0.13014255180E+03  0.13298063600E+03  0.00000000000E+00 0.  1.
          5    1    3    3  502    0  0.34303393066E+02  0.46514654224E+02 -0.27528724058E+02  0.64189224032E+02  0.47000000000E+01 0. -1.
         11    1    6    6    0    0 -0.43556685735E+02 -0.35995213447E+02  0.13347689260E+02  0.58060322699E+02  0.00000000000E+00 0. -1.
        -12    1    6    6    0    0 -0.90972076625E+01  0.12327161543E+02 -0.43222028366E+02  0.45856971499E+02  0.00000000000E+00 0.  1.
         -5    1    5    5    0  503  0.69138017146E+02 -0.50107057772E+02  0.96471706061E+01  0.86057774513E+02  0.47000000000E+01 0.  1.
<mgrwt>
<rscale>  2 0.18880232E+03</rscale>
<asrwt>0</asrwt>
<pdfrwt beam="1">  1       21 0.17132312E-01 0.18889518E+03</pdfrwt>
<pdfrwt beam="2">  1       21 0.67780413E-01 0.18889518E+03</pdfrwt>
<totfact> 0.61273755E+04</totfact>
</mgrwt>
</event>
<event>
12    1  0.1473662E-001  0.2004397E+03  0.7546771E-02  0.1149554E+00
         21   -1    0    0  504  503  0.00000000000E+00  0.00000000000E+00  0.25505831046E+02  0.25505831046E+02  0.00000000000E+00 0. -1.
         21   -1    0    0  502  504 -0.00000000000E+00 -0.00000000000E+00 -0.15691291929E+04  0.15691291929E+04  0.00000000000E+00 0. -1.
          6    2    1    2  502    0  0.76840157217E+02 -0.61672263104E+02 -0.75133095750E+03  0.77738149738E+03  0.17353935281E+03 0.  0.
         24    2    3    3    0    0 -0.16342732155E+02  0.54314262643E+01 -0.36295726697E+03  0.37236030103E+03  0.81348822055E+02 0.  0.
         -6    2    1    2    0  503 -0.76840157217E+02  0.61672263104E+02 -0.79229240439E+03  0.81725352660E+03  0.17455141046E+03 0.  0.
        -24    2    5    5    0    0 -0.51479881325E+02  0.38288306968E+02 -0.21383253415E+03  0.23774695678E+03  0.81750169187E+02 0.  0.
          2    1    4    4  501    0 -0.13960825838E+02  0.14313629833E+01 -0.58204262598E+01  0.15193117518E+02  0.00000000000E+00 0. -1.
         -1    1    4    4    0  501 -0.23819063171E+01  0.40000632810E+01 -0.35713684071E+03  0.35716718351E+03  0.00000000000E+00 0.  1.
          5    1    3    3  502    0  0.93182889373E+02 -0.67103689368E+02 -0.38837369053E+03  0.40502119635E+03  0.47000000000E+01 0. -1.
         11    1    6    6    0    0  0.61693414797E+01  0.42997160694E+02 -0.66102629522E+02  0.79097245412E+02  0.00000000000E+00 0. -1.
        -12    1    6    6    0    0 -0.57649222805E+02 -0.47088537265E+01 -0.14772990463E+03  0.15864971137E+03  0.00000000000E+00 0.  1.
         -5    1    5    5    0  503 -0.25360275893E+02  0.23383956136E+02 -0.57845987023E+03  0.57950656982E+03  0.47000000000E+01 0.  1.
<mgrwt>
<rscale>  2 0.20021915E+03</rscale>
<asrwt>0</asrwt>
<pdfrwt beam="1">  1       21 0.39239743E-02 0.20043970E+03</pdfrwt>
<pdfrwt beam="2">  1       21 0.24140447E+00 0.20043970E+03</pdfrwt>
<totfact> 0.30055059E+04</totfact>
</mgrwt>
</event>
<event>
12    1  0.1473662E-001  0.2304932E+03  0.7546771E-02  0.1126501E+00
         21   -1    0    0  504  503  0.00000000000E+00  0.00000000000E+00  0.27976132191E+03  0.27976132191E+03  0.00000000000E+00 0.  1.
         21   -1    0    0  502  504 -0.00000000000E+00 -0.00000000000E+00 -0.20495120030E+03  0.20495120030E+03  0.00000000000E+00 0.  1.
          6    2    1    2  502    0 -0.65815462745E+02  0.13529074433E+03 -0.30269379127E+02  0.23247223381E+03  0.17461913853E+03 0.  0.
         24    2    3    3    0    0 -0.81183074823E+02  0.53722022723E+02 -0.65580751317E+02  0.14214724916E+03  0.80176418844E+02 0.  0.
         -6    2    1    2    0  503  0.65815462745E+02 -0.13529074433E+03  0.10507950073E+03  0.25224028840E+03  0.17305548527E+03 0.  0.
        -24    2    5    5    0    0  0.98935768433E+02 -0.11325872632E+03  0.12175081074E+03  0.20885380383E+03  0.78618230040E+02 0.  0.
          2    1    4    4  501    0 -0.31376799855E+02 -0.58952746045E+01 -0.55206379622E+02  0.63773052168E+02  0.00000000000E+00 0. -1.
         -1    1    4    4    0  501 -0.49806274968E+02  0.59617297328E+02 -0.10374371695E+02  0.78374196997E+02  0.00000000000E+00 0.  1.
          5    1    3    3  502    0  0.15367612077E+02  0.81568721602E+02  0.35311372190E+02  0.90324984643E+02  0.47000000000E+01 0. -1.
         13    1    6    6    0    0  0.73029737957E+02 -0.32006804643E+02  0.34602597081E+02  0.86920181168E+02  0.00000000000E+00 0. -1.
        -14    1    6    6    0    0  0.25906030476E+02 -0.81251921672E+02  0.87148213660E+02  0.12193362266E+03  0.00000000000E+00 0.  1.
         -5    1    5    5    0  503 -0.33120305687E+02 -0.22032018010E+02 -0.16671310010E+02  0.43386484576E+02  0.47000000000E+01 0.  1.
<mgrwt>
<rscale>  2 0.23019702E+03</rscale>
<asrwt>0</asrwt>
<pdfrwt beam="1">  1       21 0.43040203E-01 0.23049318E+03</pdfrwt>
<pdfrwt beam="2">  1       21 0.31530954E-01 0.23049318E+03</pdfrwt>
<totfact> 0.49313014E+04</totfact>
</mgrwt>
</event>
<event>
12    1  0.1473662E-001  0.2520485E+03  0.7546771E-02  0.1112053E+00
         21   -1    0    0  504  503  0.00000000000E+00  0.00000000000E+00  0.27991394616E+03  0.27991394616E+03  0.00000000000E+00 0. -1.
         21   -1    0    0  502  504 -0.00000000000E+00 -0.00000000000E+00 -0.27922784771E+03  0.27922784771E+03  0.00000000000E+00 0. -1.
          6    2    1    2  502    0  0.15551547431E+03  0.95079312079E+02 -0.12085545755E+03  0.27931900643E+03  0.17374673350E+03 0.  0.
         24    2    3    3    0    0  0.10760303270E+03 -0.91901142851E+00 -0.33549084550E+02  0.14091462448E+03  0.84570284912E+02 0.  0.
         -6    2    1    2    0  503 -0.15551547431E+03 -0.95079312079E+02  0.12154155600E+03  0.27982278744E+03  0.17407844266E+03 0.  0.
        -24    2    5    5    0    0 -0.12106982004E+03 -0.91319138248E+01  0.11756892481E+03  0.18702553445E+03  0.80092479544E+02 0.  0.
          2    1    4    4  501    0  0.96246901304E+02 -0.16266407533E+02  0.51655234998E+01  0.97748374195E+02  0.00000000000E+00 0. -1.
         -1    1    4    4    0  501  0.11356131399E+02  0.15347396104E+02 -0.38714608050E+02  0.43166250288E+02  0.00000000000E+00 0.  1.
          5    1    3    3  502    0  0.47912441602E+02  0.95998323508E+02 -0.87306372998E+02  0.13840438195E+03  0.47000000000E+01 0. -1.
         11    1    6    6    0    0 -0.93472827287E+02 -0.33187575124E+01  0.35156084819E+02  0.99920637969E+02  0.00000000000E+00 0. -1.
        -12    1    6    6    0    0 -0.27596992757E+02 -0.58131563124E+01  0.82412839987E+02  0.87104896477E+02  0.00000000000E+00 0.  1.
         -5    1    5    5    0  503 -0.34445654262E+02 -0.85947398255E+02  0.39726311959E+01  0.92797252992E+02  0.47000000000E+01 0.  1.
<mgrwt>
<rscale>  2 0.25199123E+03</rscale>
<asrwt>0</asrwt>
<pdfrwt beam="1">  1       21 0.43063684E-01 0.25204849E+03</pdfrwt>
<pdfrwt beam="2">  1       21 0.42958131E-01 0.25204849E+03</pdfrwt>
<totfact> 0.26210807E+04</totfact>
</mgrwt>
</event>
<event>
12    1  0.1473662E-001  0.2122573E+03  0.7546771E-02  0.1141686E+00
         21   -1    0    0  504  503  0.00000000000E+00  0.00000000000E+00  0.41654168599E+03  0.41654168599E+03  0.00000000000E+00 0. -1.
         21   -1    0    0  502  504 -0.00000000000E+00 -0.00000000000E+00 -0.17199023943E+03  0.17199023943E+03  0.00000000000E+00 0. -1.
          6    2    1    2  502    0 -0.10454213136E+03 -0.58145010811E+01 -0.65222477501E+02  0.21301488212E+03  0.17366203609E+03 0.  0.
         24    2    3    3    0    0 -0.95389859660E+02 -0.21150509569E+02  0.16907781158E+02  0.12883396610E+03  0.82254169357E+02 0.  0.
         -6    2    1    2    0  503  0.10454213136E+03  0.58145010811E+01  0.30977392406E+03  0.37551704331E+03  0.18463558741E+03 0.  0.
        -24    2    5    5    0    0  0.91763694504E+02  0.23127878637E+02  0.32564654551E+03  0.34836798067E+03  0.79743983814E+02 0.  0.
          2    1    4    4  501    0 -0.84676166572E+02 -0.17184353616E+02  0.45781790804E+02  0.97782041110E+02  0.00000000000E+00 0. -1.
         -1    1    4    4    0  501 -0.10713693088E+02 -0.39661559536E+01 -0.28874009645E+02  0.31051924991E+02  0.00000000000E+00 0.  1.
          5    1    3    3  502    0 -0.91522716950E+01  0.15336008488E+02 -0.82130258660E+02  0.84180916015E+02  0.47000000000E+01 0. -1.
         11    1    6    6    0    0  0.67940824893E+02  0.49879802753E+02  0.18609471947E+03  0.20429193578E+03  0.00000000000E+00 0. -1.
        -12    1    6    6    0    0  0.23822869611E+02 -0.26751924116E+02  0.13955182604E+03  0.14407604489E+03  0.00000000000E+00 0.  1.
         -5    1    5    5    0  503  0.12778436851E+02 -0.17313377556E+02 -0.15872621446E+02  0.27149062642E+02  0.47000000000E+01 0.  1.
<mgrwt>
<rscale>  2 0.20984829E+03</rscale>
<asrwt>0</asrwt>
<pdfrwt beam="1">  1       21 0.64083336E-01 0.21225731E+03</pdfrwt>
<pdfrwt beam="2">  1       21 0.26460037E-01 0.21225731E+03</pdfrwt>
<totfact> 0.30216391E+04</totfact>
</mgrwt>
</event>
<event>
12    1  0.1473662E-001  0.2194054E+03  0.7546771E-02  0.1134761E+00
         21   -1    0    0  504  503  0.00000000000E+00  0.00000000000E+00  0.12386948672E+03  0.12386948672E+03  0.00000000000E+00 0.  1.
         21   -1    0    0  502  504 -0.00000000000E+00 -0.00000000000E+00 -0.13716942097E+04  0.13716942097E+04  0.00000000000E+00 0.  1.
          6    2    1    2  502    0 -0.10545871898E+03 -0.83397708117E+02 -0.12573467475E+04  0.12759517480E+04  0.17045615462E+03 0.  0.
         24    2    3    3    0    0 -0.12609438389E+03 -0.41297978196E+02 -0.70334503786E+03  0.71994976760E+03  0.77640897299E+02 0.  0.
         -6    2    1    2    0  503  0.10545871898E+03  0.83397708117E+02  0.95220245205E+01  0.21961194841E+03  0.17338402408E+03 0.  0.
        -24    2    5    5    0    0  0.52468037376E+02 -0.18475427258E+02  0.23957768327E+02  0.10378177641E+03  0.84276011370E+02 0.  0.
          4    1    4    4  501    0 -0.11000735652E+03 -0.49012873782E+01 -0.43761038591E+03  0.45125213680E+03  0.00000000000E+00 0. -1.
         -3    1    4    4    0  501 -0.16087027360E+02 -0.36396690817E+02 -0.26573465195E+03  0.26869763080E+03  0.00000000000E+00 0.  1.
          5    1    3    3  502    0  0.20635664905E+02 -0.42099729921E+02 -0.55400170965E+03  0.55600198041E+03  0.47000000000E+01 0. -1.
         13    1    6    6    0    0 -0.23174018210E+02 -0.80092106130E+01  0.38843783442E+01  0.24824805533E+02  0.00000000000E+00 0. -1.
        -14    1    6    6    0    0  0.75642055586E+02 -0.10466216645E+02  0.20073389983E+02  0.78956970873E+02  0.00000000000E+00 0.  1.
         -5    1    5    5    0  503  0.52990681604E+02  0.10187313537E+03 -0.14435743806E+02  0.11583017201E+03  0.47000000000E+01 0.  1.
<mgrwt>
<rscale>  2 0.21882655E+03</rscale>
<asrwt>0</asrwt>
<pdfrwt beam="1">  1       21 0.19056844E-01 0.21940542E+03</pdfrwt>
<pdfrwt beam="2">  1       21 0.21102988E+00 0.21940542E+03</pdfrwt>
<totfact> 0.28134448E+03</totfact>
</mgrwt>
</event>
<event>
12    1  0.1473662E-001  0.3441438E+03  0.7546771E-02  0.1065051E+00
         21   -1    0    0  504  503  0.00000000000E+00  0.00000000000E+00  0.16157975244E+04  0.16157975244E+04  0.00000000000E+00 0.  1.
         21   -1    0    0  502  504 -0.00000000000E+00 -0.00000000000E+00 -0.13247964512E+03  0.13247964512E+03  0.00000000000E+00 0.  1.
          6    2    1    2  502    0 -0.20542768853E+03  0.21536135617E+03  0.15738327712E+03  0.37842359665E+03  0.17278273536E+03 0.  0.
         24    2    3    3    0    0 -0.17876191564E+03  0.23174869948E+03  0.11321132390E+03  0.32408337291E+03  0.80931740028E+02 0.  0.
         -6    2    1    2    0  503  0.20542768853E+03 -0.21536135617E+03  0.13259346022E+04  0.13698535729E+04  0.17267076459E+03 0.  0.
        -24    2    5    5    0    0  0.93079783650E+02 -0.19239610305E+03  0.83556302426E+03  0.86623086786E+03  0.80686072753E+02 0.  0.
          2    1    4    4  501    0 -0.10374415746E+03  0.13707007648E+03  0.10832592597E+03  0.20318848961E+03  0.00000000000E+00 0. -1.
         -1    1    4    4    0  501 -0.75017758179E+02  0.94678622999E+02  0.48853979350E+01  0.12089488330E+03  0.00000000000E+00 0.  1.
          5    1    3    3  502    0 -0.26665772891E+02 -0.16387343314E+02  0.44171953221E+02  0.54340223740E+02  0.47000000000E+01 0. -1.
         11    1    6    6    0    0  0.16013747978E+01 -0.85795264849E+02  0.37661053260E+03  0.38626271517E+03  0.00000000000E+00 0. -1.
        -12    1    6    6    0    0  0.91478408852E+02 -0.10660083820E+03  0.45895249166E+03  0.47996815269E+03  0.00000000000E+00 0.  1.
         -5    1    5    5    0  503  0.11234790488E+03 -0.22965253115E+02  0.49037157793E+03  0.50362270503E+03  0.47000000000E+01 0.  1.
<mgrwt>
<rscale>  2 0.34412970E+03</rscale>
<asrwt>0</asrwt>
<pdfrwt beam="1">  1       21 0.24858422E+00 0.34414375E+03</pdfrwt>
<pdfrwt beam="2">  1       21 0.20381485E-01 0.34414375E+03</pdfrwt>
<totfact> 0.13223337E+03</totfact>
</mgrwt>
</event>
<event>
12    1  0.1473662E-001  0.1967079E+03  0.7546771E-02  0.1152772E+00
         21   -1    0    0  504  503  0.00000000000E+00  0.00000000000E+00  0.26200645680E+03  0.26200645680E+03  0.00000000000E+00 0. -1.
         21   -1    0    0  502  504 -0.00000000000E+00 -0.00000000000E+00 -0.19249939107E+03  0.19249939107E+03  0.00000000000E+00 0. -1.
          6    2    1    2  502    0  0.78497132401E+02  0.50522387597E+02 -0.75918076204E+02  0.20987863582E+03  0.17196271699E+03 0.  0.
         24    2    3    3    0    0  0.24625098290E+02  0.71718771553E+02 -0.96647023984E+02  0.14820804292E+03  0.82915614230E+02 0.  0.
         -6    2    1    2    0  503 -0.78497132401E+02 -0.50522387597E+02  0.14542514193E+03  0.24462721206E+03  0.17314643955E+03 0.  0.
        -24    2    5    5    0    0 -0.15818018434E+02  0.25750687315E+02  0.10452959160E+03  0.13766558660E+03  0.84333093199E+02 0.  0.
          2    1    4    4  501    0  0.16796878941E+02 -0.10259318528E+02 -0.49607052180E+02  0.53368983359E+02  0.00000000000E+00 0. -1.
         -1    1    4    4    0  501  0.78282193492E+01  0.81978090081E+02 -0.47039971804E+02  0.94839059563E+02  0.00000000000E+00 0.  1.
          5    1    3    3  502    0  0.53872034111E+02 -0.21196383956E+02  0.20728947780E+02  0.61670592895E+02  0.47000000000E+01 0. -1.
         11    1    6    6    0    0 -0.23713066823E+02 -0.21794700486E+02  0.14026461786E+02  0.35129192101E+02  0.00000000000E+00 0. -1.
        -12    1    6    6    0    0  0.78950483890E+01  0.47545387801E+02  0.90503129813E+02  0.10253639450E+03  0.00000000000E+00 0.  1.
         -5    1    5    5    0  503 -0.62679113967E+02 -0.76273074912E+02  0.40895550332E+02  0.10696162546E+03  0.47000000000E+01 0.  1.
<mgrwt>
<rscale>  2 0.19644711E+03</rscale>
<asrwt>0</asrwt>
<pdfrwt beam="1">  1       21 0.40308686E-01 0.19670791E+03</pdfrwt>
<pdfrwt beam="2">  1       21 0.29615291E-01 0.19670791E+03</pdfrwt>
<totfact> 0.64688590E+04</totfact>
</mgrwt>
</event>
<event>
12    1  0.1473662E-001  0.1861607E+03  0.7546771E-02  0.1162181E+00
         21   -1    0    0  504  503  0.00000000000E+00  0.00000000000E+00  0.54875017899E+02  0.54875017899E+02  0.00000000000E+00 0. -1.
         21   -1    0    0  502  504 -0.00000000000E+00 -0.00000000000E+00 -0.26608308938E+04  0.26608308938E+04  0.00000000000E+00 0. -1.
          6    2    1    2  502    0  0.48615275121E+02  0.46371507307E+02 -0.24904390939E+04  0.24973871726E+04  0.17361465405E+03 0.  0.
         24    2    3    3    0    0  0.86203587045E+02 -0.11471138579E+02 -0.17172440058E+04  0.17211066904E+04  0.75621550229E+02 0.  0.
         -6    2    1    2    0  503 -0.48615275121E+02 -0.46371507307E+02 -0.11551678202E+03  0.21831873905E+03  0.17264177718E+03 0.  0.
        -24    2    5    5    0    0 -0.67001395098E+02 -0.14141829224E+02 -0.89108854225E+01  0.10534215411E+03  0.79551161359E+02 0.  0.
          2    1    4    4  501    0  0.33507570812E+02 -0.44982448643E+01 -0.13065169427E+04  0.13069542888E+04  0.00000000000E+00 0. -1.
         -1    1    4    4    0  501  0.52696016233E+02 -0.69728937147E+01 -0.41072706309E+03  0.41415240158E+03  0.00000000000E+00 0.  1.
          5    1    3    3  502    0 -0.37588311924E+02  0.57842645887E+02 -0.77319508809E+03  0.77628048225E+03  0.47000000000E+01 0. -1.
         11    1    6    6    0    0  0.12174428811E+02  0.94634785403E+01  0.12661933979E+02  0.19952411259E+02  0.00000000000E+00 0. -1.
        -12    1    6    6    0    0 -0.79175823910E+02 -0.23605307764E+02 -0.21572819402E+02  0.85389742846E+02  0.00000000000E+00 0.  1.
         -5    1    5    5    0  503  0.18386119978E+02 -0.32229678084E+02 -0.10660589659E+03  0.11297658495E+03  0.47000000000E+01 0.  1.
<mgrwt>
<rscale>  2 0.18593355E+03</rscale>
<asrwt>0</asrwt>
<pdfrwt beam="1">  1       21 0.84423097E-02 0.18616071E+03</pdfrwt>
<pdfrwt beam="2">  1       21 0.40935863E+00 0.18616071E+03</pdfrwt>
<totfact> 0.84065091E+02</totfact>
</mgrwt>
</event>
<event>
12    1  0.1473662E-001  0.1783792E+03  0.7546771E-02  0.1169656E+00
         21   -1    0    0  504  503  0.00000000000E+00  0.00000000000E+00  0.20582446776E+03  0.20582446776E+03  0.00000000000E+00 0. -1.
         21   -1    0    0  502  504 -0.00000000000E+00 -0.00000000000E+00 -0.15442396888E+03  0.15442396888E+03  0.00000000000E+00 0. -1.
          6    2    1    2  502    0  0.16952495984E+02  0.35659531887E+02  0.12831089138E+02  0.17884004368E+03  0.17395440507E+03 0.  0.
         24    2    3    3    0    0  0.32756530998E+02  0.86268660550E+02  0.13929412793E+02  0.12560145109E+03  0.84062023878E+02 0.  0.
         -6    2    1    2    0  503 -0.16952495984E+02 -0.35659531887E+02  0.38569409746E+02  0.18140839296E+03  0.17280745451E+03 0.  0.
        -24    2    5    5    0    0  0.17805611228E+02  0.13217413602E+02  0.75422735991E+02  0.11085813093E+03  0.78161347701E+02 0.  0.
          4    1    4    4  501    0  0.13731591834E+01  0.84136763754E+02  0.31164473524E+02  0.89733522115E+02  0.00000000000E+00 0. -1.
         -3    1    4    4    0  501  0.31383371815E+02  0.21318967958E+01 -0.17235060730E+02  0.35867928973E+02  0.00000000000E+00 0.  1.
          5    1    3    3  502    0 -0.15804035014E+02 -0.50609128664E+02 -0.10983236551E+01  0.53238592596E+02  0.47000000000E+01 0. -1.
         13    1    6    6    0    0  0.25863271206E+02 -0.27289364700E+02  0.22828002541E+02  0.43985633145E+02  0.00000000000E+00 0. -1.
        -14    1    6    6    0    0 -0.80576599776E+01  0.40506778302E+02  0.52594733450E+02  0.66872497781E+02  0.00000000000E+00 0.  1.
         -5    1    5    5    0  503 -0.34758107212E+02 -0.48876945489E+02 -0.36853326245E+02  0.70550262031E+02  0.47000000000E+01 0.  1.
<mgrwt>
<rscale>  2 0.17809892E+03</rscale>
<asrwt>0</asrwt>
<pdfrwt beam="1">  1       21 0.31665303E-01 0.17837916E+03</pdfrwt>
<pdfrwt beam="2">  1       21 0.23757534E-01 0.17837916E+03</pdfrwt>
<totfact> 0.16074691E+05</totfact>
</mgrwt>
</event>
<event>
12    1  0.1473662E-001  0.2906077E+03  0.7546771E-02  0.1090096E+00
         21   -1    0    0  504  503  0.00000000000E+00  0.00000000000E+00  0.16337063456E+04  0.16337063456E+04  0.00000000000E+00 0.  1.
         21   -1    0    0  502  504 -0.00000000000E+00 -0.00000000000E+00 -0.53674081112E+02  0.53674081112E+02  0.00000000000E+00 0. -1.
          6    2    1    2  502    0 -0.22637547824E+03 -0.56592105838E+02  0.62509510506E+03  0.68934516249E+03  0.17321760616E+03 0.  0.
         24    2    3    3    0    0 -0.12102642627E+03 -0.40802290774E+02  0.51280749333E+03  0.53449575577E+03  0.80012279922E+02 0.  0.
         -6    2    1    2    0  503  0.22637547824E+03  0.56592105838E+02  0.95493715941E+03  0.99803526421E+03  0.17239746689E+03 0.  0.
        -24    2    5    5    0    0  0.17975345123E+03  0.24963339089E+02  0.47583768498E+03  0.51561181050E+03  0.80619880635E+02 0.  0.
          4    1    4    4  501    0 -0.57005320642E+02 -0.51742672487E+02  0.36527046568E+03  0.37329535737E+03  0.00000000000E+00 0. -1.
         -3    1    4    4    0  501 -0.64021105624E+02  0.10940381712E+02  0.14753702765E+03  0.16120039841E+03  0.00000000000E+00 0.  1.
          5    1    3    3  502    0 -0.10534905197E+03 -0.15789815064E+02  0.11228761173E+03  0.15484940672E+03  0.47000000000E+01 0. -1.
         11    1    6    6    0    0  0.24681430029E+01  0.20980458465E+02  0.56531644502E+02  0.60349798653E+02  0.00000000000E+00 0. -1.
        -12    1    6    6    0    0  0.17728530823E+03  0.39828806241E+01  0.41930604048E+03  0.45526201185E+03  0.00000000000E+00 0.  1.
         -5    1    5    5    0  503  0.46622027009E+02  0.31628766749E+02  0.47909947443E+03  0.48242345371E+03  0.47000000000E+01 0.  1.
<mgrwt>
<rscale>  2 0.29048565E+03</rscale>
<asrwt>0</asrwt>
<pdfrwt beam="1">  1       21 0.25133940E+00 0.29060775E+03</pdfrwt>
<pdfrwt beam="2">  1       21 0.82575522E-02 0.29060775E+03</pdfrwt>
<totfact> 0.68429831E+03</totfact>
</mgrwt>
</event>
<event>
12    1  0.1473662E-001  0.2400580E+03  0.7546771E-02  0.1119823E+00
         21   -1    0    0  504  503  0.00000000000E+00  0.00000000000E+00  0.62962727971E+03  0.62962727971E+03  0.00000000000E+00 0.  1.
         21   -1    0    0  502  504 -0.00000000000E+00 -0.00000000000E+00 -0.13439963087E+03  0.13439963087E+03  0.00000000000E+00 0. -1.
          6    2    1    2  502    0 -0.94221082104E+02 -0.13787906651E+03  0.46391737873E+03  0.52234775330E+03  0.17245170858E+03 0.  0.
         24    2    3    3    0    0 -0.61481079783E+02 -0.16778269026E+03  0.39987773077E+03  0.44431378008E+03  0.74709981142E+02 0.  0.
         -6    2    1    2    0  503  0.94221082104E+02  0.13787906651E+03  0.31310270110E+02  0.24167915729E+03  0.17187272255E+03 0.  0.
        -24    2    5    5    0    0  0.12090312535E+03  0.14764122598E+03  0.44502274134E+02  0.21000345431E+03  0.75534767427E+02 0.  0.
          2    1    4    4  501    0  0.64550325951E+01 -0.78507928883E+02  0.12935874862E+03  0.15145576313E+03  0.00000000000E+00 0. -1.
         -1    1    4    4    0  501 -0.67936112378E+02 -0.89274761374E+02  0.27051898215E+03  0.29285801694E+03  0.00000000000E+00 0.  1.
          5    1    3    3  502    0 -0.32740002321E+02  0.29903623748E+02  0.64039647960E+02  0.78033973217E+02  0.47000000000E+01 0. -1.
         11    1    6    6    0    0  0.28239038451E+02  0.44783291661E+02 -0.20862735042E+02  0.56905537674E+02  0.00000000000E+00 0. -1.
        -12    1    6    6    0    0  0.92664086895E+02  0.10285793432E+03  0.65365009176E+02  0.15309791663E+03  0.00000000000E+00 0.  1.
         -5    1    5    5    0  503 -0.26682043241E+02 -0.97621594708E+01 -0.13192004024E+02  0.31675702979E+02  0.47000000000E+01 0.  1.
<mgrwt>
<rscale>  2 0.23995403E+03</rscale>
<asrwt>0</asrwt>
<pdfrwt beam="1">  1       21 0.96865733E-01 0.24005800E+03</pdfrwt>
<pdfrwt beam="2">  1       21 0.20676867E-01 0.24005800E+03</pdfrwt>
<totfact> 0.18673584E+04</totfact>
</mgrwt>
</event>
<event>
12    1  0.1473662E-001  0.1965408E+03  0.7546771E-02  0.1152956E+00
         21   -1    0    0  504  503  0.00000000000E+00  0.00000000000E+00  0.51916909305E+02  0.51916909305E+02  0.00000000000E+00 0. -1.
         21   -1    0    0  502  504 -0.00000000000E+00 -0.00000000000E+00 -0.10978655896E+04  0.10978655896E+04  0.00000000000E+00 0.  1.
          6    2    1    2  502    0 -0.84951850677E+02  0.34868441999E+02 -0.85256726251E+03  0.87492812821E+03  0.17376900544E+03 0.  0.
         24    2    3    3    0    0 -0.88725988171E+02  0.58787448674E+02 -0.83159139542E+03  0.84254850508E+03  0.83758398814E+02 0.  0.
         -6    2    1    2    0  503  0.84951850677E+02 -0.34868441999E+02 -0.19338141783E+03  0.27485437074E+03  0.17238308261E+03 0.  0.
        -24    2    5    5    0    0  0.31170657839E+02 -0.58840556013E+02 -0.41408202681E+02  0.11180521534E+03  0.79699096519E+02 0.  0.
          4    1    4    4  501    0 -0.98111781836E+02  0.66574182518E+02 -0.66313888406E+03  0.67365512175E+03  0.00000000000E+00 0. -1.
         -3    1    4    4    0  501  0.93857936653E+01 -0.77867338442E+01 -0.16845251136E+03  0.16889338333E+03  0.00000000000E+00 0.  1.
          5    1    3    3  502    0  0.37741374936E+01 -0.23919006675E+02 -0.20975867090E+02  0.32379623134E+02  0.47000000000E+01 0. -1.
         13    1    6    6    0    0  0.31725711808E+02 -0.69189018770E+02 -0.55580001345E+02  0.94248488888E+02  0.00000000000E+00 0. -1.
        -14    1    6    6    0    0 -0.55505396825E+00  0.10348462757E+02  0.14171798664E+02  0.17556726453E+02  0.00000000000E+00 0.  1.
         -5    1    5    5    0  503  0.53781192838E+02  0.23972114014E+02 -0.15197321515E+03  0.16304915539E+03  0.47000000000E+01 0.  1.
<mgrwt>
<rscale>  2 0.19623403E+03</rscale>
<asrwt>0</asrwt>
<pdfrwt beam="1">  1       21 0.79872163E-02 0.19654082E+03</pdfrwt>
<pdfrwt beam="2">  1       21 0.16890241E+00 0.19654082E+03</pdfrwt>
<totfact> 0.26070470E+04</totfact>
</mgrwt>
</event>
<event>
12    1  0.1473662E-001  0.1756437E+03  0.7546771E-02  0.1172508E+00
         21   -1    0    0  504  503  0.00000000000E+00  0.00000000000E+00  0.32062929147E+03  0.32062929147E+03  0.00000000000E+00 0. -1.
         21   -1    0    0  502  504 -0.00000000000E+00 -0.00000000000E+00 -0.12061291366E+03  0.12061291366E+03  0.00000000000E+00 0. -1.
          6    2    1    2  502    0  0.63652015424E+01  0.14638709467E+02 -0.67419589693E+00  0.17564494891E+03  0.17491679717E+03 0.  0.
         24    2    3    3    0    0 -0.18601705362E+02  0.70473281360E+02 -0.23125762847E+02  0.11032260421E+03  0.79522130662E+02 0.  0.
         -6    2    1    2    0  503 -0.63652015424E+01 -0.14638709467E+02  0.20069057371E+03  0.26559725622E+03  0.17323506726E+03 0.  0.
        -24    2    5    5    0    0  0.38616700800E+02  0.15210491314E+02  0.18746508397E+03  0.20981778056E+03  0.84603396540E+02 0.  0.
          2    1    4    4  501    0 -0.46673221854E+02  0.21818179774E+02 -0.78990103024E+01  0.52123094408E+02  0.00000000000E+00 0. -1.
         -1    1    4    4    0  501  0.28071516492E+02  0.48655101586E+02 -0.15226752545E+02  0.58199509805E+02  0.00000000000E+00 0.  1.
          5    1    3    3  502    0  0.24966906904E+02 -0.55834571893E+02  0.22451566950E+02  0.65322344702E+02  0.47000000000E+01 0. -1.
         11    1    6    6    0    0  0.34566036462E+02  0.38140416354E+02  0.55029695544E+02  0.75350976291E+02  0.00000000000E+00 0. -1.
        -12    1    6    6    0    0  0.40506643379E+01 -0.22929925040E+02  0.13243538842E+03  0.13446680427E+03  0.00000000000E+00 0.  1.
         -5    1    5    5    0  503 -0.44981902342E+02 -0.29849200781E+02  0.13225489745E+02  0.55779475657E+02  0.47000000000E+01 0.  1.
<mgrwt>
<rscale>  2 0.17522347E+03</rscale>
<asrwt>0</asrwt>
<pdfrwt beam="1">  1       21 0.49327583E-01 0.17564365E+03</pdfrwt>
<pdfrwt beam="2">  1       21 0.18555833E-01 0.17564365E+03</pdfrwt>
<totfact> 0.10468282E+05</totfact>
</mgrwt>
</event>
<event>
12    1  0.1473662E-001  0.2288913E+03  0.7546771E-02  0.1127537E+00
         21   -1    0    0  504  503  0.00000000000E+00  0.00000000000E+00  0.26497695598E+03  0.26497695598E+03  0.00000000000E+00 0.  1.
         21   -1    0    0  502  504 -0.00000000000E+00 -0.00000000000E+00 -0.20161523414E+03  0.20161523414E+03  0.00000000000E+00 0.  1.
          6    2    1    2  502    0 -0.14824764972E+03 -0.17432191941E+02 -0.30273126132E+01  0.22826734752E+03  0.17267185746E+03 0.  0.
         24    2    3    3    0    0 -0.14845786711E+03 -0.60174146562E+02 -0.22873603838E+02  0.18090824964E+03  0.80894541321E+02 0.  0.
         -6    2    1    2    0  503  0.14824764972E+03  0.17432191941E+02  0.66389034454E+02  0.23832484260E+03  0.17352227449E+03 0.  0.
        -24    2    5    5    0    0  0.99142592636E+02  0.89967037954E+01  0.11179069359E+03  0.17075365982E+03  0.82155090011E+02 0.  0.
          4    1    4    4  501    0 -0.40358567266E+02 -0.21506037293E+02  0.29811264255E+02  0.54589697455E+02  0.00000000000E+00 0. -1.
         -3    1    4    4    0  501 -0.10809929984E+03 -0.38668109269E+02 -0.52684868093E+02  0.12631855219E+03  0.00000000000E+00 0.  1.
          5    1    3    3  502    0  0.21021738993E+00  0.42741954621E+02  0.19846291225E+02  0.47359097876E+02  0.47000000000E+01 0. -1.
         11    1    6    6    0    0 -0.45625074987E-01 -0.24409092907E+02  0.20938986252E+02  0.32159711495E+02  0.00000000000E+00 0. -1.
        -12    1    6    6    0    0  0.99188217711E+02  0.33405796702E+02  0.90851707336E+02  0.13859394832E+03  0.00000000000E+00 0.  1.
         -5    1    5    5    0  503  0.49105057081E+02  0.84354881451E+01 -0.45401659133E+02  0.67571182787E+02  0.47000000000E+01 0.  1.
<mgrwt>
<rscale>  2 0.22873012E+03</rscale>
<asrwt>0</asrwt>
<pdfrwt beam="1">  1       21 0.40765685E-01 0.22889130E+03</pdfrwt>
<pdfrwt beam="2">  1       21 0.31017728E-01 0.22889130E+03</pdfrwt>
<totfact> 0.56941254E+04</totfact>
</mgrwt>
</event>
<event>
12    1  0.1473662E-001  0.3949803E+03  0.7546771E-02  0.1045729E+00
         21   -1    0    0  504  503  0.00000000000E+00  0.00000000000E+00  0.97768725121E+03  0.97768725121E+03  0.00000000000E+00 0. -1.
         21   -1    0    0  502  504 -0.00000000000E+00 -0.00000000000E+00 -0.20943185767E+03  0.20943185767E+03  0.00000000000E+00 0.  1.
          6    2    1    2  502    0 -0.23744199646E+03 -0.26430378059E+03  0.67552317962E+03  0.78139915521E+03  0.16738543379E+03 0.  0.
         24    2    3    3    0    0 -0.17015755777E+03 -0.21586075226E+03  0.38808581129E+03  0.48220648586E+03  0.79768660802E+02 0.  0.
         -6    2    1    2    0  503  0.23744199646E+03  0.26430378059E+03  0.92732213913E+02  0.40571995367E+03  0.17255209993E+03 0.  0.
        -24    2    5    5    0    0  0.18977558328E+03  0.11714074753E+03  0.80426419091E+02  0.25046993650E+03  0.80808746198E+02 0.  0.
          2    1    4    4  501    0 -0.17023815645E+03 -0.22174136760E+03  0.37392324923E+03  0.46687135309E+03  0.00000000000E+00 0. -1.
         -1    1    4    4    0  501  0.80598681290E-01  0.58806153442E+01  0.14162562063E+02  0.15335132773E+02  0.00000000000E+00 0.  1.
          5    1    3    3  502    0 -0.67284438690E+02 -0.48443028331E+02  0.28743736833E+03  0.29919266936E+03  0.47000000000E+01 0. -1.
         11    1    6    6    0    0  0.59063437634E+02 -0.21921471523E+01  0.30825102463E+02  0.66659448813E+02  0.00000000000E+00 0. -1.
        -12    1    6    6    0    0  0.13071214565E+03  0.11933289468E+03  0.49601316628E+02  0.18381048769E+03  0.00000000000E+00 0.  1.
         -5    1    5    5    0  503  0.47666413182E+02  0.14716303306E+03  0.12305794822E+02  0.15525001717E+03  0.47000000000E+01 0.  1.
<mgrwt>
<rscale>  2 0.39442168E+03</rscale>
<asrwt>0</asrwt>
<pdfrwt beam="1">  1       21 0.15041342E+00 0.39498027E+03</pdfrwt>
<pdfrwt beam="2">  1       21 0.32220286E-01 0.39498027E+03</pdfrwt>
<totfact> 0.24161892E+03</totfact>
</mgrwt>
</event>
<event>
12    1  0.1473662E-001  0.1906885E+03  0.7546771E-02  0.1157949E+00
         21   -1    0    0  504  503  0.00000000000E+00  0.00000000000E+00  0.36299254574E+03  0.36299254574E+03  0.00000000000E+00 0. -1.
         21   -1    0    0  502  504 -0.00000000000E+00 -0.00000000000E+00 -0.14468223383E+03  0.14468223383E+03  0.00000000000E+00 0.  1.
          6    2    1    2  502    0 -0.55489928871E+02  0.58789536271E+02 -0.31937106921E+02  0.19334447929E+03  0.17270427641E+03 0.  0.
         24    2    3    3    0    0 -0.57660538677E+02 -0.10083186265E+02 -0.60563700923E+02  0.11857994665E+03  0.83467559637E+02 0.  0.
         -6    2    1    2    0  503  0.55489928871E+02 -0.58789536271E+02  0.25024741883E+03  0.31433030029E+03  0.17217556525E+03 0.  0.
        -24    2    5    5    0    0  0.30126159740E+02  0.16400603414E+02  0.20458364142E+03  0.22265615750E+03  0.80899523113E+02 0.  0.
          2    1    4    4  501    0  0.93850851435E+01 -0.82197871143E+01  0.13688017735E+02  0.18520436088E+02  0.00000000000E+00 0. -1.
         -1    1    4    4    0  501 -0.67045623821E+02 -0.18633991509E+01 -0.74251718658E+02  0.10005951056E+03  0.00000000000E+00 0.  1.
          5    1    3    3  502    0  0.21706098056E+01  0.68872722536E+02  0.28626594001E+02  0.74764532638E+02  0.47000000000E+01 0. -1.
         13    1    6    6    0    0 -0.13378655755E+02 -0.24212644730E+02  0.78502971366E+02  0.83234350529E+02  0.00000000000E+00 0. -1.
        -14    1    6    6    0    0  0.43504815494E+02  0.40613248144E+02  0.12608067006E+03  0.13942180697E+03  0.00000000000E+00 0.  1.
         -5    1    5    5    0  503  0.25363769132E+02 -0.75190139685E+02  0.45663777406E+02  0.91674142796E+02  0.47000000000E+01 0.  1.
<mgrwt>
<rscale>  2 0.19056872E+03</rscale>
<asrwt>0</asrwt>
<pdfrwt beam="1">  1       21 0.55845007E-01 0.19068851E+03</pdfrwt>
<pdfrwt beam="2">  1       21 0.22258805E-01 0.19068851E+03</pdfrwt>
<totfact> 0.57077430E+04</totfact>
</mgrwt>
</event>
<event>
12    1  0.1473662E-001  0.2025166E+03  0.7546771E-02  0.1148176E+00
         21   -1    0    0  504  503  0.00000000000E+00  0.00000000000E+00  0.25916893535E+03  0.25916893535E+03  0.00000000000E+00 0. -1.
         21   -1    0    0  502  504 -0.00000000000E+00 -0.00000000000E+00 -0.52317470801E+03  0.52317470801E+03  0.00000000000E+00 0.  1.
          6    2    1    2  502    0 -0.42377445973E+02  0.91062086393E+02 -0.45934993321E+03  0.50096785866E+03  0.17285335624E+03 0.  0.
         24    2    3    3    0    0  0.19751400312E+02  0.94361205086E+02 -0.23803798118E+03  0.27102884971E+03  0.86604861592E+02 0.  0.
         -6    2    1    2    0  503  0.42377445973E+02 -0.91062086393E+02  0.19534416056E+03  0.28137578470E+03  0.17585459803E+03 0.  0.
        -24    2    5    5    0    0  0.40419614875E+02 -0.80328483395E+02  0.41340975923E+02  0.12691506409E+03  0.79447760766E+02 0.  0.
          4    1    4    4  501    0  0.10407178548E+02  0.86532874016E+02 -0.10081846981E+03  0.13326894427E+03  0.00000000000E+00 0. -1.
         -3    1    4    4    0  501  0.93442217638E+01  0.78283310700E+01 -0.13721951137E+03  0.13775990544E+03  0.00000000000E+00 0.  1.
          5    1    3    3  502    0 -0.62128846285E+02 -0.32991186925E+01 -0.22131195203E+03  0.22993900895E+03  0.47000000000E+01 0. -1.
         11    1    6    6    0    0  0.50397297714E+02 -0.46105244039E+02  0.56043448378E+02  0.88354112812E+02  0.00000000000E+00 0. -1.
        -12    1    6    6    0    0 -0.99776828396E+01 -0.34223239357E+02 -0.14702472455E+02  0.38560951275E+02  0.00000000000E+00 0.  1.
         -5    1    5    5    0  503  0.19578310984E+01 -0.10733602998E+02  0.15400318463E+03  0.15446072062E+03  0.47000000000E+01 0.  1.
<mgrwt>
<rscale>  2 0.20186335E+03</rscale>
<asrwt>0</asrwt>
<pdfrwt beam="1">  1       21 0.39872144E-01 0.20251664E+03</pdfrwt>
<pdfrwt beam="2">  1       21 0.80488416E-01 0.20251664E+03</pdfrwt>
<totfact> 0.81660969E+03</totfact>
</mgrwt>
</event>
<event>
12    1  0.1473662E-001  0.2990347E+03  0.7546771E-02  0.1085735E+00
         21   -1    0    0  504  503  0.00000000000E+00  0.00000000000E+00  0.90101087346E+03  0.90101087346E+03  0.00000000000E+00 0. -1.
         21   -1    0    0  502  504 -0.00000000000E+00 -0.00000000000E+00 -0.22688738512E+03  0.22688738512E+03  0.00000000000E+00 0.  1.
          6    2    1    2  502    0  0.17338959726E+03  0.17169777158E+03 -0.85955133448E+02  0.31114313588E+03  0.17285163823E+03 0.  0.
         24    2    3    3    0    0  0.12775109228E+03  0.47627890997E+02 -0.92550761014E+01  0.15823402170E+03  0.79772123013E+02 0.  0.
         -6    2    1    2    0  503 -0.17338959726E+03 -0.17169777158E+03  0.76007862179E+03  0.81675512269E+03  0.17270015039E+03 0.  0.
        -24    2    5    5    0    0 -0.14155014997E+03 -0.58114515182E+02  0.53981047170E+03  0.56684502990E+03  0.80648625126E+02 0.  0.
          4    1    4    4  501    0  0.63512810064E+02  0.65548425089E+02 -0.51315708468E+01  0.91415568112E+02  0.00000000000E+00 0. -1.
         -3    1    4    4    0  501  0.64238282215E+02 -0.17920534092E+02 -0.41235052547E+01  0.66818453587E+02  0.00000000000E+00 0.  1.
          5    1    3    3  502    0  0.45638504977E+02  0.12406988058E+03 -0.76700057347E+02  0.15290911418E+03  0.47000000000E+01 0. -1.
         11    1    6    6    0    0 -0.50369013207E+02 -0.58647610927E+02  0.31267572423E+03  0.32209111798E+03  0.00000000000E+00 0. -1.
        -12    1    6    6    0    0 -0.91181136760E+02  0.53309574509E+00  0.22713474748E+03  0.24475391193E+03  0.00000000000E+00 0.  1.
         -5    1    5    5    0  503 -0.31839447289E+02 -0.11358325639E+03  0.22026815008E+03  0.24991009279E+03  0.47000000000E+01 0.  1.
<mgrwt>
<rscale>  2 0.29901284E+03</rscale>
<asrwt>0</asrwt>
<pdfrwt beam="1">  1       21 0.13861706E+00 0.29903472E+03</pdfrwt>
<pdfrwt beam="2">  1       21 0.34905752E-01 0.29903472E+03</pdfrwt>
<totfact> 0.26867165E+03</totfact>
</mgrwt>
</event>
<event>
12    1  0.1473662E-001  0.2219040E+03  0.7546771E-02  0.1133053E+00
         21   -1    0    0  504  503  0.00000000000E+00  0.00000000000E+00  0.48348926830E+03  0.48348926830E+03  0.00000000000E+00 0.  1.
         21   -1    0    0  502  504 -0.00000000000E+00 -0.00000000000E+00 -0.19125121429E+03  0.19125121429E+03  0.00000000000E+00 0.  1.
          6    2    1    2  502    0  0.44617501660E+02  0.13209137938E+03 -0.85840421714E+02  0.23792844017E+03  0.17263403686E+03 0.  0.
         24    2    3    3    0    0  0.27898939142E+02  0.13044739098E+03 -0.53456739296E+01  0.15556517499E+03  0.79856589096E+02 0.  0.
         -6    2    1    2    0  503 -0.44617501660E+02 -0.13209137938E+03  0.37807847573E+03  0.43681204242E+03  0.16858995413E+03 0.  0.
        -24    2    5    5    0    0 -0.83547384531E+02 -0.90981870937E+02  0.18940933893E+03  0.23977483617E+03  0.79738372740E+02 0.  0.
          4    1    4    4  501    0 -0.11019932007E+02  0.12425102174E+02  0.22738424930E+02  0.28157734883E+02  0.00000000000E+00 0. -1.
         -3    1    4    4    0  501  0.38918871149E+02  0.11802228880E+03 -0.28084098859E+02  0.12740744011E+03  0.00000000000E+00 0.  1.
          5    1    3    3  502    0  0.16718562518E+02  0.16439884010E+01 -0.80494747785E+02  0.82363265182E+02  0.47000000000E+01 0. -1.
         13    1    6    6    0    0 -0.56734819686E+02 -0.20819112687E+02  0.13219643581E+03  0.14535533309E+03  0.00000000000E+00 0. -1.
        -14    1    6    6    0    0 -0.26812564845E+02 -0.70162758250E+02  0.57212903124E+02  0.94419503084E+02  0.00000000000E+00 0.  1.
         -5    1    5    5    0  503  0.38929882871E+02 -0.41109508440E+02  0.18866913680E+03  0.19703720624E+03  0.47000000000E+01 0.  1.
<mgrwt>
<rscale>  2 0.22111692E+03</rscale>
<asrwt>0</asrwt>
<pdfrwt beam="1">  1       21 0.74382964E-01 0.22190395E+03</pdfrwt>
<pdfrwt beam="2">  1       21 0.29423264E-01 0.22190395E+03</pdfrwt>
<totfact> 0.17610280E+04</totfact>
</mgrwt>
</event>
<event>
12    1  0.1473662E-001  0.1851758E+03  0.7546771E-02  0.1163181E+00
         21   -1    0    0  504  503  0.00000000000E+00  0.00000000000E+00  0.73879494951E+03  0.73879494951E+03  0.00000000000E+00 0. -1.
         21   -1    0    0  502  504 -0.00000000000E+00 -0.00000000000E+00 -0.79248594288E+02  0.79248594288E+02  0.00000000000E+00 0. -1.
          6    2    1    2  502    0  0.28009388507E+02 -0.56509965606E+02  0.65886955714E+02  0.19654810858E+03  0.17410389425E+03 0.  0.
         24    2    3    3    0    0 -0.38229838758E+02 -0.75417537509E+02  0.30914946969E+02  0.11915131989E+03  0.78051121382E+02 0.  0.
         -6    2    1    2    0  503 -0.28009388507E+02  0.56509965606E+02  0.59365939951E+03  0.62149543522E+03  0.17276339693E+03 0.  0.
        -24    2    5    5    0    0 -0.60652627439E+02  0.23702311852E+02  0.54737232165E+03  0.55587145508E+03  0.71666416561E+02 0.  0.
          2    1    4    4  501    0 -0.12363187467E+02  0.39654054179E+01  0.33179827942E+02  0.35629676208E+02  0.00000000000E+00 0. -1.
         -1    1    4    4    0  501 -0.25866651292E+02 -0.79382942927E+02 -0.22648809724E+01  0.83521643678E+02  0.00000000000E+00 0.  1.
          5    1    3    3  502    0  0.66239227265E+02  0.18907571903E+02  0.34972008745E+02  0.77396788691E+02  0.47000000000E+01 0. -1.
         13    1    6    6    0    0 -0.13683260609E+02 -0.21380844589E+02  0.78539751861E+02  0.82540079710E+02  0.00000000000E+00 0. -1.
        -14    1    6    6    0    0 -0.46969366831E+02  0.45083156441E+02  0.46883256979E+03  0.47333137537E+03  0.00000000000E+00 0.  1.
         -5    1    5    5    0  503  0.32643238932E+02  0.32807653754E+02  0.46287077857E+02  0.65623980139E+02  0.47000000000E+01 0.  1.
<mgrwt>
<rscale>  2 0.18486002E+03</rscale>
<asrwt>0</asrwt>
<pdfrwt beam="1">  1       21 0.11366076E+00 0.18517578E+03</pdfrwt>
<pdfrwt beam="2">  1       21 0.12192092E-01 0.18517578E+03</pdfrwt>
<totfact> 0.34549875E+04</totfact>
</mgrwt>
</event>
<event>
12    1  0.1473662E-001  0.1921890E+03  0.7546771E-02  0.1156925E+00
         21   -1    0    0  504  503  0.00000000000E+00  0.00000000000E+00  0.20666318804E+03  0.20666318804E+03  0.00000000000E+00 0.  1.
         21   -1    0    0  502  504 -0.00000000000E+00 -0.00000000000E+00 -0.17795449714E+03  0.17795449714E+03  0.00000000000E+00 0.  1.
          6    2    1    2  502    0  0.39657317015E+02 -0.73007451868E+02  0.11844999773E+00  0.19218904163E+03  0.17330269147E+03 0.  0.
         24    2    3    3    0    0  0.92362346969E+02 -0.45321405965E+02 -0.12325424291E+02  0.13118676849E+03  0.80456318382E+02 0.  0.
         -6    2    1    2    0  503 -0.39657317015E+02  0.73007451868E+02  0.28590240902E+02  0.19242864355E+03  0.17119751798E+03 0.  0.
        -24    2    5    5    0    0 -0.78534210900E+01 -0.25225424172E+02  0.27668579189E+02  0.89064601491E+02  0.80429812364E+02 0.  0.
          2    1    4    4  501    0  0.10170593901E+03 -0.23311132002E+02 -0.12635527542E+00  0.10434329337E+03  0.00000000000E+00 0. -1.
         -1    1    4    4    0  501 -0.93435920385E+01 -0.22010273964E+02 -0.12199069015E+02  0.26843475129E+02  0.00000000000E+00 0.  1.
          5    1    3    3  502    0 -0.52705029954E+02 -0.27686045902E+02  0.12443874289E+02  0.61002273134E+02  0.47000000000E+01 0. -1.
         11    1    6    6    0    0 -0.40421317909E+02 -0.16560273582E+02  0.33259804253E+02  0.54903007036E+02  0.00000000000E+00 0. -1.
        -12    1    6    6    0    0  0.32567896819E+02 -0.86651505898E+01 -0.55912250643E+01  0.34161594455E+02  0.00000000000E+00 0.  1.
         -5    1    5    5    0  503 -0.31803895925E+02  0.98232876040E+02  0.92166171287E+00  0.10336404206E+03  0.47000000000E+01 0.  1.
<mgrwt>
<rscale>  2 0.19171321E+03</rscale>
<asrwt>0</asrwt>
<pdfrwt beam="1">  1       21 0.31794336E-01 0.19218901E+03</pdfrwt>
<pdfrwt beam="2">  1       21 0.27377615E-01 0.19218901E+03</pdfrwt>
<totfact> 0.12105740E+05</totfact>
</mgrwt>
</event>
<event>
12    1  0.1473662E-001  0.2237020E+03  0.7546771E-02  0.1131259E+00
         21   -1    0    0  504  503  0.00000000000E+00  0.00000000000E+00  0.29187280710E+03  0.29187280710E+03  0.00000000000E+00 0.  1.
         21   -1    0    0  502  504 -0.00000000000E+00 -0.00000000000E+00 -0.28395929406E+03  0.28395929406E+03  0.00000000000E+00 0. -1.
          6    2    1    2  502    0 -0.26727785986E+02  0.13909845413E+03 -0.17763256794E+03  0.28519499477E+03  0.17239518951E+03 0.  0.
         24    2    3    3    0    0 -0.62179240144E+02  0.15776695787E+03 -0.15844020873E+03  0.24052111778E+03  0.63169909420E+02 0.  0.
         -6    2    1    2    0  503  0.26727785986E+02 -0.13909845413E+03  0.18554608098E+03  0.29063710640E+03  0.17314683064E+03 0.  0.
        -24    2    5    5    0    0 -0.49121232998E+02 -0.50404659568E+02  0.87038511998E+02  0.13784478322E+03  0.80448470793E+02 0.  0.
          4    1    4    4  501    0 -0.44556144702E+02  0.13842640597E+03 -0.15745904765E+03  0.21433728464E+03  0.00000000000E+00 0. -1.
         -3    1    4    4    0  501 -0.17623095442E+02  0.19340551896E+02 -0.98116107638E+00  0.26183833135E+02  0.00000000000E+00 0.  1.
          5    1    3    3  502    0  0.35451454159E+02 -0.18668503733E+02 -0.19192359206E+02  0.44673876992E+02  0.47000000000E+01 0. -1.
         13    1    6    6    0    0  0.10734091091E+02 -0.83282942304E+01 -0.95987941724E+01  0.16634844331E+02  0.00000000000E+00 0. -1.
        -14    1    6    6    0    0 -0.59855324089E+02 -0.42076365338E+02  0.96637306171E+02  0.12120993889E+03  0.00000000000E+00 0.  1.
         -5    1    5    5    0  503  0.75849018984E+02 -0.88693794565E+02  0.98507568978E+02  0.15279232317E+03  0.47000000000E+01 0.  1.
<mgrwt>
<rscale>  2 0.22355653E+03</rscale>
<asrwt>0</asrwt>
<pdfrwt beam="1">  1       21 0.44903509E-01 0.22370199E+03</pdfrwt>
<pdfrwt beam="2">  1       21 0.43686045E-01 0.22370199E+03</pdfrwt>
<totfact> 0.23554379E+04</totfact>
</mgrwt>
</event>
<event>
12    1  0.1473662E-001  0.1881390E+03  0.7546771E-02  0.1160853E+00
         21   -1    0    0  504  503  0.00000000000E+00  0.00000000000E+00  0.99612704278E+02  0.99612704278E+02  0.00000000000E+00 0. -1.
         21   -1    0    0  502  504 -0.00000000000E+00 -0.00000000000E+00 -0.35532714224E+03  0.35532714224E+03  0.00000000000E+00 0.  1.
          6    2    1    2  502    0  0.29315858473E+02  0.59465570441E+02 -0.15775153754E+03  0.24552362097E+03  0.17607023381E+03 0.  0.
         24    2    3    3    0    0  0.21072945067E+02  0.10597166198E+03 -0.13866584186E+03  0.19436586544E+03  0.82920514903E+02 0.  0.
         -6    2    1    2    0  503 -0.29315858473E+02 -0.59465570441E+02 -0.97962900426E+02  0.20941622555E+03  0.17280871517E+03 0.  0.
        -24    2    5    5    0    0 -0.33501985647E+02 -0.45388556993E+02  0.11854824228E+02  0.98521191321E+02  0.79896083343E+02 0.  0.
          4    1    4    4  501    0 -0.25634001993E+02  0.50541300340E+02 -0.31061149224E+02  0.64624454267E+02  0.00000000000E+00 0. -1.
         -3    1    4    4    0  501  0.46706947059E+02  0.55430361642E+02 -0.10760469263E+03  0.12974141117E+03  0.00000000000E+00 0.  1.
          5    1    3    3  502    0  0.82429134064E+01 -0.46506091542E+02 -0.19085695683E+02  0.51157755538E+02  0.47000000000E+01 0. -1.
         13    1    6    6    0    0  0.94759485747E+00  0.13855567409E+02 -0.18859445629E+02  0.23421216315E+02  0.00000000000E+00 0. -1.
        -14    1    6    6    0    0 -0.34449580505E+02 -0.59244124402E+02  0.30714269857E+02  0.75099975006E+02  0.00000000000E+00 0.  1.
         -5    1    5    5    0  503  0.41861271739E+01 -0.14077013447E+02 -0.10981772465E+03  0.11089503423E+03  0.47000000000E+01 0.  1.
<mgrwt>
<rscale>  2 0.18737219E+03</rscale>
<asrwt>0</asrwt>
<pdfrwt beam="1">  1       21 0.15325032E-01 0.18813905E+03</pdfrwt>
<pdfrwt beam="2">  1       21 0.54665713E-01 0.18813905E+03</pdfrwt>
<totfact> 0.11939179E+05</totfact>
</mgrwt>
</event>
<event>
12    1  0.1473662E-001  0.2545959E+03  0.7546771E-02  0.1110577E+00
         21   -1    0    0  504  503  0.00000000000E+00  0.00000000000E+00  0.40345762176E+03  0.40345762176E+03  0.00000000000E+00 0. -1.
         21   -1    0    0  502  504 -0.00000000000E+00 -0.00000000000E+00 -0.44588739991E+03  0.44588739991E+03  0.00000000000E+00 0.  1.
          6    2    1    2  502    0  0.18553008628E+03  0.36838244380E+02 -0.36120304263E+03  0.44137997287E+03  0.16902713771E+03 0.  0.
         24    2    3    3    0    0  0.73930549338E+02  0.40375630898E+02 -0.86639046862E+02  0.14494372758E+03  0.80040252549E+02 0.  0.
         -6    2    1    2    0  503 -0.18553008628E+03 -0.36838244380E+02  0.31877326448E+03  0.40796504881E+03  0.17041307971E+03 0.  0.
        -24    2    5    5    0    0 -0.11361448364E+03  0.22953469979E+02  0.10391158962E+03  0.17358387991E+03  0.76802553546E+02 0.  0.
          4    1    4    4  501    0  0.34964555131E+02  0.47085340900E+02 -0.11109411696E+02  0.59690606224E+02  0.00000000000E+00 0. -1.
         -3    1    4    4    0  501  0.38965994208E+02 -0.67097100024E+01 -0.75529635165E+02  0.85253121357E+02  0.00000000000E+00 0.  1.
          5    1    3    3  502    0  0.11159953694E+03 -0.35373865180E+01 -0.27456399577E+03  0.29643624529E+03  0.47000000000E+01 0. -1.
         11    1    6    6    0    0 -0.10101800383E+03 -0.55112132380E+01  0.99934056734E+02  0.14220346784E+03  0.00000000000E+00 0. -1.
        -12    1    6    6    0    0 -0.12596479807E+02  0.28464683217E+02  0.39775328878E+01  0.31380412076E+02  0.00000000000E+00 0.  1.
         -5    1    5    5    0  503 -0.71915602640E+02 -0.59791714359E+02  0.21486167486E+03  0.23438116889E+03  0.47000000000E+01 0.  1.
<mgrwt>
<rscale>  2 0.25436422E+03</rscale>
<asrwt>0</asrwt>
<pdfrwt beam="1">  1       21 0.62070404E-01 0.25459593E+03</pdfrwt>
<pdfrwt beam="2">  1       21 0.68598061E-01 0.25459593E+03</pdfrwt>
<totfact> 0.44660801E+03</totfact>
</mgrwt>
</event>
<event>
12    1  0.1473662E-001  0.1792752E+03  0.7546771E-02  0.1168907E+00
         21   -1    0    0  504  503  0.00000000000E+00  0.00000000000E+00  0.87049708533E+03  0.87049708533E+03  0.00000000000E+00 0. -1.
         21   -1    0    0  502  504 -0.00000000000E+00 -0.00000000000E+00 -0.72507073124E+02  0.72507073124E+02  0.00000000000E+00 0. -1.
          6    2    1    2  502    0  0.12949788830E+02 -0.43610613978E+02  0.66194257116E+02  0.18956895066E+03  0.17171233124E+03 0.  0.
         24    2    3    3    0    0 -0.10033656476E+02 -0.55014996370E+02  0.10449827305E+03  0.14322689274E+03  0.80415978786E+02 0.  0.
         -6    2    1    2    0  503 -0.12949788830E+02  0.43610613978E+02  0.73179575509E+03  0.75343520779E+03  0.17340704279E+03 0.  0.
        -24    2    5    5    0    0  0.19768498767E+02  0.89011029495E+02  0.54755964888E+03  0.56083012763E+03  0.79969407023E+02 0.  0.
          2    1    4    4  501    0 -0.27558006807E+02  0.32323354534E+00  0.49642344228E+01  0.28003425549E+02  0.00000000000E+00 0. -1.
         -1    1    4    4    0  501  0.17524350330E+02 -0.55338229916E+02  0.99534038630E+02  0.11522346719E+03  0.00000000000E+00 0.  1.
          5    1    3    3  502    0  0.22983445306E+02  0.11404382393E+02 -0.38304015937E+02  0.46342057926E+02  0.47000000000E+01 0. -1.
         13    1    6    6    0    0  0.26320989261E+02  0.12827080022E+02  0.54415761895E+02  0.61793232641E+02  0.00000000000E+00 0. -1.
        -14    1    6    6    0    0 -0.65524904940E+01  0.76183949473E+02  0.49314388699E+03  0.49903689499E+03  0.00000000000E+00 0.  1.
         -5    1    5    5    0  503 -0.32718287597E+02 -0.45400415517E+02  0.18423610621E+03  0.19260508016E+03  0.47000000000E+01 0.  1.
<mgrwt>
<rscale>  2 0.17886407E+03</rscale>
<asrwt>0</asrwt>
<pdfrwt beam="1">  1       21 0.13392262E+00 0.17927517E+03</pdfrwt>
<pdfrwt beam="2">  1       21 0.11154935E-01 0.17927517E+03</pdfrwt>
<totfact> 0.27023210E+04</totfact>
</mgrwt>
</event>
<event>
12    1  0.1473662E-001  0.2833130E+03  0.7546771E-02  0.1093935E+00
         21   -1    0    0  504  503  0.00000000000E+00  0.00000000000E+00  0.27178440274E+03  0.27178440274E+03  0.00000000000E+00 0. -1.
         21   -1    0    0  502  504 -0.00000000000E+00 -0.00000000000E+00 -0.39703754492E+03  0.39703754492E+03  0.00000000000E+00 0.  1.
          6    2    1    2  502    0  0.14550720111E+03 -0.17035989867E+03  0.10692041669E+03  0.30252856258E+03  0.17290666563E+03 0.  0.
         24    2    3    3    0    0  0.74188203992E+02 -0.81902695450E+02  0.12666185493E+03  0.18710373624E+03  0.82174457638E+02 0.  0.
         -6    2    1    2    0  503 -0.14550720111E+03  0.17035989867E+03 -0.23217355886E+03  0.36629338509E+03  0.17341119305E+03 0.  0.
        -24    2    5    5    0    0 -0.13786805963E+03  0.16772661677E+03 -0.13394111013E+03  0.26761717397E+03  0.80863533070E+02 0.  0.
          2    1    4    4  501    0  0.72250661316E+02 -0.92399315314E+02  0.13077036414E+03  0.17566638742E+03  0.00000000000E+00 0. -1.
         -1    1    4    4    0  501  0.19375426757E+01  0.10496619864E+02 -0.41085092109E+01  0.11437348824E+02  0.00000000000E+00 0.  1.
          5    1    3    3  502    0  0.71318997119E+02 -0.88457203217E+02 -0.19741438238E+02  0.11542482634E+03  0.47000000000E+01 0. -1.
         11    1    6    6    0    0 -0.54465301069E+02  0.93480468954E+02 -0.23804465667E+02  0.11077779417E+03  0.00000000000E+00 0. -1.
        -12    1    6    6    0    0 -0.83402758556E+02  0.74246147819E+02 -0.11013664446E+03  0.15683937979E+03  0.00000000000E+00 0.  1.
         -5    1    5    5    0  503 -0.76391414854E+01  0.26332818945E+01 -0.98232448738E+02  0.98676211121E+02  0.47000000000E+01 0.  1.
<mgrwt>
<rscale>  2 0.28323588E+03</rscale>
<asrwt>0</asrwt>
<pdfrwt beam="1">  1       21 0.41812985E-01 0.28331305E+03</pdfrwt>
<pdfrwt beam="2">  1       21 0.61082699E-01 0.28331305E+03</pdfrwt>
<totfact> 0.13056373E+04</totfact>
</mgrwt>
</event>
<event>
12    1  0.1473662E-001  0.2300116E+03  0.7546771E-02  0.1126961E+00
         21   -1    0    0  504  503  0.00000000000E+00  0.00000000000E+00  0.39909625386E+03  0.39909625386E+03  0.00000000000E+00 0.  1.
         21   -1    0    0  502  504 -0.00000000000E+00 -0.00000000000E+00 -0.23568734096E+03  0.23568734096E+03  0.00000000000E+00 0.  1.
          6    2    1    2  502    0  0.65276487845E+02 -0.13522893909E+03 -0.12951425305E+03  0.26234657834E+03  0.17176699214E+03 0.  0.
         24    2    3    3    0    0  0.50825051312E+02 -0.12170813575E+03 -0.16134648464E+03  0.22457043364E+03  0.83684738211E+02 0.  0.
         -6    2    1    2    0  503 -0.65276487845E+02  0.13522893909E+03  0.29292316595E+03  0.37243701648E+03  0.17423393544E+03 0.  0.
        -24    2    5    5    0    0 -0.72982028680E+02  0.13822784784E+03  0.30808599932E+03  0.35453812463E+03  0.79667963518E+02 0.  0.
          2    1    4    4  501    0  0.45994695564E+02 -0.12536801073E+03 -0.11040105655E+03  0.17326581723E+03  0.00000000000E+00 0. -1.
         -1    1    4    4    0  501  0.48303557483E+01  0.36598749729E+01 -0.50945428087E+02  0.51304616404E+02  0.00000000000E+00 0.  1.
          5    1    3    3  502    0  0.14451436532E+02 -0.13520803332E+02  0.31832231587E+02  0.37776144700E+02  0.47000000000E+01 0. -1.
         13    1    6    6    0    0 -0.56306964374E+01  0.13300286552E+02  0.10950333722E+03  0.11045172351E+03  0.00000000000E+00 0. -1.
        -14    1    6    6    0    0 -0.67351332242E+02  0.12492756129E+03  0.19858266211E+03  0.24408640112E+03  0.00000000000E+00 0.  1.
         -5    1    5    5    0  503  0.77055408351E+01 -0.29989087526E+01 -0.15162833374E+02  0.17898891843E+02  0.47000000000E+01 0.  1.
<mgrwt>
<rscale>  2 0.22954445E+03</rscale>
<asrwt>0</asrwt>
<pdfrwt beam="1">  1       21 0.61399424E-01 0.23001163E+03</pdfrwt>
<pdfrwt beam="2">  1       21 0.36259591E-01 0.23001163E+03</pdfrwt>
<totfact> 0.17694923E+04</totfact>
</mgrwt>
</event>
<event>
12    1  0.1473662E-001  0.2167623E+03  0.7546771E-02  0.1137434E+00
         21   -1    0    0  504  503  0.00000000000E+00  0.00000000000E+00  0.30746692800E+03  0.30746692800E+03  0.00000000000E+00 0. -1.
         21   -1    0    0  502  504 -0.00000000000E+00 -0.00000000000E+00 -0.19062751951E+03  0.19062751951E+03  0.00000000000E+00 0. -1.
          6    2    1    2  502    0 -0.52216754731E+02  0.10854907206E+03 -0.57659359346E+02  0.22430003470E+03  0.18021213424E+03 0.  0.
         24    2    3    3    0    0  0.42375351263E+02  0.43411321067E+02 -0.40749109465E+02  0.10811638838E+03  0.79677163124E+02 0.  0.
         -6    2    1    2    0  503  0.52216754731E+02 -0.10854907206E+03  0.17449876784E+03  0.27379441281E+03  0.17321682941E+03 0.  0.
        -24    2    5    5    0    0  0.57893639397E+02 -0.58883527841E+02  0.18923797269E+03  0.22146633754E+03  0.80108582688E+02 0.  0.
          2    1    4    4  501    0  0.13500932874E+02  0.63316099003E+02 -0.30599836571E+02  0.71606938069E+02  0.00000000000E+00 0. -1.
         -1    1    4    4    0  501  0.28874418390E+02 -0.19904777936E+02 -0.10149272895E+02  0.36509450315E+02  0.00000000000E+00 0.  1.
          5    1    3    3  502    0 -0.94592105995E+02  0.65137750993E+02 -0.16910249881E+02  0.11618364632E+03  0.47000000000E+01 0. -1.
         11    1    6    6    0    0  0.16402885021E+02 -0.70148314873E+02  0.12028792042E+03  0.14021064338E+03  0.00000000000E+00 0. -1.
        -12    1    6    6    0    0  0.41490754376E+02  0.11264787033E+02  0.68950052273E+02  0.81255694164E+02  0.00000000000E+00 0.  1.
         -5    1    5    5    0  503 -0.56768846657E+01 -0.49665544219E+02 -0.14739204854E+02  0.52328075273E+02  0.47000000000E+01 0.  1.
<mgrwt>
<rscale>  2 0.21530266E+03</rscale>
<asrwt>0</asrwt>
<pdfrwt beam="1">  1       21 0.47302604E-01 0.21676232E+03</pdfrwt>
<pdfrwt beam="2">  1       21 0.29327311E-01 0.21676232E+03</pdfrwt>
<totfact> 0.47064353E+04</totfact>
</mgrwt>
</event>
<event>
12    1  0.1473662E-001  0.1781988E+03  0.7546771E-02  0.1169785E+00
         21   -1    0    0  504  503  0.00000000000E+00  0.00000000000E+00  0.10829064213E+04  0.10829064213E+04  0.00000000000E+00 0. -1.
         21   -1    0    0  502  504 -0.00000000000E+00 -0.00000000000E+00 -0.64164189667E+02  0.64164189667E+02  0.00000000000E+00 0. -1.
          6    2    1    2  502    0  0.36616040248E+02 -0.75543552988E+00  0.85222415817E+02  0.19669486317E+03  0.17344942765E+03 0.  0.
         24    2    3    3    0    0  0.43948577349E+02  0.55497877207E+02  0.17753608357E+02  0.10842068079E+03  0.80177063978E+02 0.  0.
         -6    2    1    2    0  503 -0.36616040248E+02  0.75543552988E+00  0.93351981579E+03  0.95037574777E+03  0.17439469715E+03 0.  0.
        -24    2    5    5    0    0 -0.84437683074E+02  0.30050112503E+02  0.69982013968E+03  0.70999539035E+03  0.79451210373E+02 0.  0.
          4    1    4    4  501    0  0.55128774563E+02  0.42047691720E+02 -0.15320839860E+02  0.71006466592E+02  0.00000000000E+00 0. -1.
         -3    1    4    4    0  501 -0.11180197214E+02  0.13450185487E+02  0.33074448216E+02  0.37414214200E+02  0.00000000000E+00 0.  1.
          5    1    3    3  502    0 -0.73325371015E+01 -0.56253312736E+02  0.67468807460E+02  0.88274182377E+02  0.47000000000E+01 0. -1.
         13    1    6    6    0    0 -0.17663706764E+02  0.26701359022E+02  0.45756831208E+03  0.45868696224E+03  0.00000000000E+00 0. -1.
        -14    1    6    6    0    0 -0.66773976310E+02  0.33487534811E+01  0.24225182760E+03  0.25130842811E+03  0.00000000000E+00 0.  1.
         -5    1    5    5    0  503  0.47821642826E+02 -0.29294676973E+02  0.23369967611E+03  0.24038035742E+03  0.47000000000E+01 0.  1.
<mgrwt>
<rscale>  2 0.17796711E+03</rscale>
<asrwt>0</asrwt>
<pdfrwt beam="1">  1       21 0.16660097E+00 0.17819881E+03</pdfrwt>
<pdfrwt beam="2">  1       21 0.98714146E-02 0.17819881E+03</pdfrwt>
<totfact> 0.18918466E+04</totfact>
</mgrwt>
</event>
<event>
12    1  0.1473662E-001  0.1867561E+03  0.7546771E-02  0.1162122E+00
         21   -1    0    0  504  503  0.00000000000E+00  0.00000000000E+00  0.19723768262E+04  0.19723768262E+04  0.00000000000E+00 0.  1.
         21   -1    0    0  502  504 -0.00000000000E+00 -0.00000000000E+00 -0.27913302414E+02  0.27913302414E+02  0.00000000000E+00 0.  1.
          6    2    1    2  502    0  0.69329154673E+02 -0.16065550105E+02  0.36333763679E+03  0.40852426658E+03  0.17266500655E+03 0.  0.
         24    2    3    3    0    0 -0.11046627941E+02 -0.47113090667E+02  0.24289629623E+03  0.26036076661E+03  0.80295994719E+02 0.  0.
         -6    2    1    2    0  503 -0.69329154673E+02  0.16065550105E+02  0.15811258870E+04  0.15917658620E+04  0.16939555905E+03 0.  0.
        -24    2    5    5    0    0  0.22850583813E+02  0.18401118302E+01  0.55999940696E+03  0.56637771820E+03  0.81601768914E+02 0.  0.
          2    1    4    4  501    0 -0.70715696478E+01 -0.40972054492E+00 -0.46125061342E+01  0.84528208928E+01  0.00000000000E+00 0. -1.
         -1    1    4    4    0  501 -0.39750582933E+01 -0.46703370122E+02  0.24750880236E+03  0.25190794572E+03  0.00000000000E+00 0.  1.
          5    1    3    3  502    0  0.80375782614E+02  0.31047540562E+02  0.12044134056E+03  0.14816349996E+03  0.47000000000E+01 0. -1.
         11    1    6    6    0    0  0.69562424671E+01 -0.30399945127E+02  0.44016629856E+03  0.44126966400E+03  0.00000000000E+00 0. -1.
        -12    1    6    6    0    0  0.15894341346E+02  0.32240056957E+02  0.11983310840E+03  0.12510805421E+03  0.00000000000E+00 0.  1.
         -5    1    5    5    0  503 -0.92179738486E+02  0.14225438275E+02  0.10211264800E+04  0.10253881438E+04  0.47000000000E+01 0.  1.
<mgrwt>
<rscale>  2 0.18599684E+03</rscale>
<asrwt>0</asrwt>
<pdfrwt beam="1">  1       21 0.30344248E+00 0.18675609E+03</pdfrwt>
<pdfrwt beam="2">  1       21 0.42943558E-02 0.18675609E+03</pdfrwt>
<totfact> 0.11416024E+04</totfact>
</mgrwt>
</event>
<event>
12    1  0.1473662E-001  0.1903136E+03  0.7546771E-02  0.1158593E+00
         21   -1    0    0  504  503  0.00000000000E+00  0.00000000000E+00  0.39885497356E+03  0.39885497356E+03  0.00000000000E+00 0.  1.
         21   -1    0    0  502  504 -0.00000000000E+00 -0.00000000000E+00 -0.17917308242E+03  0.17917308242E+03  0.00000000000E+00 0. -1.
          6    2    1    2  502    0  0.57943685770E+02  0.47476627871E+02 -0.94387953446E+02  0.21079632866E+03  0.17295810332E+03 0.  0.
         24    2    3    3    0    0 -0.24780811294E+02  0.33307686448E+02 -0.87307065264E+02  0.12643798412E+03  0.81489567424E+02 0.  0.
         -6    2    1    2    0  503 -0.57943685770E+02 -0.47476627871E+02  0.31406984459E+03  0.36723172731E+03  0.17495077408E+03 0.  0.
        -24    2    5    5    0    0  0.32736945124E+02 -0.95246892375E+01  0.11107764672E+03  0.14164083907E+03  0.81002817294E+02 0.  0.
          4    1    4    4  501    0 -0.22418390772E+02  0.14332460642E+02 -0.10000490109E+03  0.10348422060E+03  0.00000000000E+00 0. -1.
         -3    1    4    4    0  501 -0.23624205214E+01  0.18975225806E+02  0.12697835822E+02  0.22953763518E+02  0.00000000000E+00 0.  1.
          5    1    3    3  502    0  0.82724497064E+02  0.14168941423E+02 -0.70808881826E+01  0.84358344536E+02  0.47000000000E+01 0. -1.
         13    1    6    6    0    0 -0.19488152739E+02 -0.14249721135E+01  0.10377409377E+01  0.19567717009E+02  0.00000000000E+00 0. -1.
        -14    1    6    6    0    0  0.52225097863E+02 -0.80997171240E+01  0.11003990579E+03  0.12207312206E+03  0.00000000000E+00 0.  1.
         -5    1    5    5    0  503 -0.90680630894E+02 -0.37951938634E+02  0.20299219786E+03  0.22559088824E+03  0.47000000000E+01 0.  1.
<mgrwt>
<rscale>  2 0.18985442E+03</rscale>
<asrwt>0</asrwt>
<pdfrwt beam="1">  1       21 0.61362304E-01 0.19031362E+03</pdfrwt>
<pdfrwt beam="2">  1       21 0.27565090E-01 0.19031362E+03</pdfrwt>
<totfact> 0.31044872E+04</totfact>
</mgrwt>
</event>
<event>
12    1  0.1473662E-001  0.1816672E+03  0.7546771E-02  0.1166226E+00
         21   -1    0    0  504  503  0.00000000000E+00  0.00000000000E+00  0.18815416039E+03  0.18815416039E+03  0.00000000000E+00 0. -1.
         21   -1    0    0  502  504 -0.00000000000E+00 -0.00000000000E+00 -0.17676704893E+03  0.17676704893E+03  0.00000000000E+00 0. -1.
          6    2    1    2  502    0  0.46069139071E+02  0.30852675161E+02 -0.10960835047E+02  0.18188457346E+03  0.17288031993E+03 0.  0.
         24    2    3    3    0    0 -0.14602389197E+02 -0.28938683213E+02 -0.34742057705E+02  0.93320035246E+02  0.80317751764E+02 0.  0.
         -6    2    1    2    0  503 -0.46069139071E+02 -0.30852675161E+02  0.22347946511E+02  0.18303663586E+03  0.17299920871E+03 0.  0.
        -24    2    5    5    0    0  0.57987049481E+01 -0.77144059574E+02  0.75637514313E-01  0.10988397861E+03  0.78036223175E+02 0.  0.
          4    1    4    4  501    0 -0.20711616723E+01  0.15237433190E+02 -0.43883577723E+02  0.46499865319E+02  0.00000000000E+00 0. -1.
         -3    1    4    4    0  501 -0.12531227524E+02 -0.44176116403E+02  0.91415200189E+01  0.46820169927E+02  0.00000000000E+00 0.  1.
          5    1    3    3  502    0  0.60671528268E+02  0.59791358374E+02  0.23781222657E+02  0.88564538217E+02  0.47000000000E+01 0. -1.
         13    1    6    6    0    0 -0.20964593445E+02 -0.16369382330E+02 -0.27246095431E+02  0.38076509457E+02  0.00000000000E+00 0. -1.
        -14    1    6    6    0    0  0.26763298393E+02 -0.60774677243E+02  0.27321732946E+02  0.71807469152E+02  0.00000000000E+00 0.  1.
         -5    1    5    5    0  503 -0.51867844019E+02  0.46291384413E+02  0.22272308997E+02  0.73152657246E+02  0.47000000000E+01 0.  1.
<mgrwt>
<rscale>  2 0.18163891E+03</rscale>
<asrwt>0</asrwt>
<pdfrwt beam="1">  1       21 0.28946794E-01 0.18166722E+03</pdfrwt>
<pdfrwt beam="2">  1       21 0.27194931E-01 0.18166722E+03</pdfrwt>
<totfact> 0.14776149E+05</totfact>
</mgrwt>
</event>
<event>
12    1  0.1473662E-001  0.1797253E+03  0.7546771E-02  0.1168102E+00
         21   -1    0    0  504  503  0.00000000000E+00  0.00000000000E+00  0.23424224828E+03  0.23424224828E+03  0.00000000000E+00 0.  1.
         21   -1    0    0  502  504 -0.00000000000E+00 -0.00000000000E+00 -0.13801951477E+03  0.13801951477E+03  0.00000000000E+00 0.  1.
          6    2    1    2  502    0  0.13016401870E+02  0.47576382392E+02  0.55663929273E+02  0.18801680797E+03  0.17268152240E+03 0.  0.
         24    2    3    3    0    0  0.75954833111E+02  0.22939281615E+02  0.51468577623E+02  0.12013511797E+03  0.74081608868E+02 0.  0.
         -6    2    1    2    0  503 -0.13016401870E+02 -0.47576382392E+02  0.40558804240E+02  0.18424495508E+03  0.17282432697E+03 0.  0.
        -24    2    5    5    0    0  0.13044289440E+02 -0.25799592727E+01 -0.37541105728E+02  0.90300696810E+02  0.81043639777E+02 0.  0.
          2    1    4    4  501    0  0.59717025052E+02 -0.55861820153E+01  0.61409279969E+02  0.85839549026E+02  0.00000000000E+00 0. -1.
         -1    1    4    4    0  501  0.16237808059E+02  0.28525463630E+02 -0.99407023460E+01  0.34295568941E+02  0.00000000000E+00 0.  1.
          5    1    3    3  502    0 -0.62938431241E+02  0.24637100777E+02  0.41953516503E+01  0.67881690000E+02  0.47000000000E+01 0. -1.
         13    1    6    6    0    0  0.74158379353E+01  0.28633346584E+02 -0.48446063677E+02  0.56761644397E+02  0.00000000000E+00 0. -1.
        -14    1    6    6    0    0  0.56284515047E+01 -0.31213305857E+02  0.10904957949E+02  0.33539052413E+02  0.00000000000E+00 0.  1.
         -5    1    5    5    0  503 -0.26060691310E+02 -0.44996423119E+02  0.78099909967E+02  0.93944258270E+02  0.47000000000E+01 0.  1.
<mgrwt>
<rscale>  2 0.17969097E+03</rscale>
<asrwt>0</asrwt>
<pdfrwt beam="1">  1       21 0.36037269E-01 0.17972531E+03</pdfrwt>
<pdfrwt beam="2">  1       21 0.21233772E-01 0.17972531E+03</pdfrwt>
<totfact> 0.15385180E+05</totfact>
</mgrwt>
</event>
<event>
12    1  0.1473662E-001  0.2302214E+03  0.7546771E-02  0.1126494E+00
         21   -1    0    0  504  503  0.00000000000E+00  0.00000000000E+00  0.95531375792E+02  0.95531375792E+02  0.00000000000E+00 0.  1.
         21   -1    0    0  502  504 -0.00000000000E+00 -0.00000000000E+00 -0.56089500361E+03  0.56089500361E+03  0.00000000000E+00 0.  1.
          6    2    1    2  502    0 -0.63782419530E+02  0.13802788274E+03 -0.26728262471E+03  0.35276324427E+03  0.17286414198E+03 0.  0.
         24    2    3    3    0    0 -0.81091451944E+02  0.14290798311E+03 -0.15766597635E+03  0.24158178188E+03  0.80651608929E+02 0.  0.
         -6    2    1    2    0  503  0.63782419530E+02 -0.13802788274E+03 -0.19808100311E+03  0.30366313513E+03  0.17278692771E+03 0.  0.
        -24    2    5    5    0    0  0.10580388207E+03 -0.10768572830E+03 -0.17903882362E+03  0.24824522963E+03  0.82341460582E+02 0.  0.
          4    1    4    4  501    0 -0.58199509252E+02  0.33715200937E+02 -0.85188019888E+02  0.10853983777E+03  0.00000000000E+00 0. -1.
         -3    1    4    4    0  501 -0.22891942692E+02  0.10919278217E+03 -0.72477956462E+02  0.13304194411E+03  0.00000000000E+00 0.  1.
          5    1    3    3  502    0  0.17309032415E+02 -0.48801003643E+01 -0.10961664836E+03  0.11118146240E+03  0.47000000000E+01 0. -1.
         11    1    6    6    0    0  0.46998237644E+02 -0.10910435549E+02 -0.18255835868E+02  0.51586311060E+02  0.00000000000E+00 0. -1.
        -12    1    6    6    0    0  0.58805644427E+02 -0.96775292751E+02 -0.16078298775E+03  0.19665891857E+03  0.00000000000E+00 0.  1.
         -5    1    5    5    0  503 -0.42021462541E+02 -0.30342154444E+02 -0.19042179494E+02  0.55417905502E+02  0.47000000000E+01 0.  1.
<mgrwt>
<rscale>  2 0.23020693E+03</rscale>
<asrwt>0</asrwt>
<pdfrwt beam="1">  1       21 0.14697135E-01 0.23022143E+03</pdfrwt>
<pdfrwt beam="2">  1       21 0.86291539E-01 0.23022143E+03</pdfrwt>
<totfact> 0.46270799E+04</totfact>
</mgrwt>
</event>
<event>
12    1  0.1473662E-001  0.1917469E+03  0.7546771E-02  0.1157423E+00
         21   -1    0    0  504  503  0.00000000000E+00  0.00000000000E+00  0.34169943853E+03  0.34169943853E+03  0.00000000000E+00 0. -1.
         21   -1    0    0  502  504 -0.00000000000E+00 -0.00000000000E+00 -0.10737377987E+03  0.10737377987E+03  0.00000000000E+00 0. -1.
          6    2    1    2  502    0  0.25451081896E+02  0.75877638612E+02  0.13908036255E+03  0.23497383007E+03  0.17165133254E+03 0.  0.
         24    2    3    3    0    0 -0.36310139240E+01  0.10352088179E+03  0.52470548119E+02  0.13940570178E+03  0.77142945491E+02 0.  0.
         -6    2    1    2    0  503 -0.25451081896E+02 -0.75877638612E+02  0.95245296113E+02  0.21409938833E+03  0.17424611341E+03 0.  0.
        -24    2    5    5    0    0  0.45101002763E+02 -0.44712869594E+02  0.89864054729E+02  0.13664044929E+03  0.81004462179E+02 0.  0.
          2    1    4    4  501    0 -0.36852480771E+02  0.55674665008E+02  0.45375981959E+02  0.80726410805E+02  0.00000000000E+00 0. -1.
         -1    1    4    4    0  501  0.33221466847E+02  0.47846216782E+02  0.70945661603E+01  0.58679290971E+02  0.00000000000E+00 0.  1.
          5    1    3    3  502    0  0.29082095820E+02 -0.27643243179E+02  0.86609814428E+02  0.95568128295E+02  0.47000000000E+01 0. -1.
         13    1    6    6    0    0  0.81334812543E+01 -0.86760518741E+01 -0.15364928607E+02  0.19429576026E+02  0.00000000000E+00 0. -1.
        -14    1    6    6    0    0  0.36967521509E+02 -0.36036817720E+02  0.10522898334E+03  0.11721087327E+03  0.00000000000E+00 0.  1.
         -5    1    5    5    0  503 -0.70552084659E+02 -0.31164769018E+02  0.53812413840E+01  0.77458939035E+02  0.47000000000E+01 0.  1.
<mgrwt>
<rscale>  2 0.19115548E+03</rscale>
<asrwt>0</asrwt>
<pdfrwt beam="1">  1       21 0.52569144E-01 0.19174692E+03</pdfrwt>
<pdfrwt beam="2">  1       21 0.16519043E-01 0.19174692E+03</pdfrwt>
<totfact> 0.11287781E+05</totfact>
</mgrwt>
</event>
<event>
12    1  0.1473662E-001  0.1887472E+03  0.7546771E-02  0.1159611E+00
         21   -1    0    0  504  503  0.00000000000E+00  0.00000000000E+00  0.53355116370E+03  0.53355116370E+03  0.00000000000E+00 0.  1.
         21   -1    0    0  502  504 -0.00000000000E+00 -0.00000000000E+00 -0.66845295660E+02  0.66845295660E+02  0.00000000000E+00 0. -1.
          6    2    1    2  502    0  0.56278605292E+02  0.43478181620E+02  0.24490616831E+03  0.30919982624E+03  0.17483668831E+03 0.  0.
         24    2    3    3    0    0  0.21923792519E+02  0.66968999629E+02  0.64951276537E+02  0.12443531459E+03  0.79372410851E+02 0.  0.
         -6    2    1    2    0  503 -0.56278605292E+02 -0.43478181620E+02  0.22179969973E+03  0.29119663312E+03  0.17476480953E+03 0.  0.
        -24    2    5    5    0    0  0.14188190969E+02  0.15533433695E+01  0.18057465849E+03  0.19784245998E+03  0.79565784363E+02 0.  0.
          2    1    4    4  501    0  0.72427638226E+01  0.11470328251E+02 -0.18625151870E+02  0.23041752107E+02  0.00000000000E+00 0. -1.
         -1    1    4    4    0  501  0.14681028697E+02  0.55498671379E+02  0.83576428407E+02  0.10139356249E+03  0.00000000000E+00 0.  1.
          5    1    3    3  502    0  0.34354812773E+02 -0.23490818009E+02  0.17995489177E+03  0.18476451165E+03  0.47000000000E+01 0. -1.
         13    1    6    6    0    0 -0.24920419070E+02  0.18215761650E+02  0.37416696758E+02  0.48506189867E+02  0.00000000000E+00 0. -1.
        -14    1    6    6    0    0  0.39108610040E+02 -0.16662418281E+02  0.14315796174E+03  0.14933627011E+03  0.00000000000E+00 0.  1.
         -5    1    5    5    0  503 -0.70466796262E+02 -0.45031524989E+02  0.41225041239E+02  0.93354173144E+02  0.47000000000E+01 0.  1.
<mgrwt>
<rscale>  2 0.18873054E+03</rscale>
<asrwt>0</asrwt>
<pdfrwt beam="1">  1       21 0.82084792E-01 0.18874719E+03</pdfrwt>
<pdfrwt beam="2">  1       21 0.10283892E-01 0.18874719E+03</pdfrwt>
<totfact> 0.10035452E+05</totfact>
</mgrwt>
</event>
<event>
12    1  0.1473662E-001  0.2317518E+03  0.7546771E-02  0.1125576E+00
         21   -1    0    0  504  503  0.00000000000E+00  0.00000000000E+00  0.33426439295E+03  0.33426439295E+03  0.00000000000E+00 0.  1.
         21   -1    0    0  502  504 -0.00000000000E+00 -0.00000000000E+00 -0.21887331997E+03  0.21887331997E+03  0.00000000000E+00 0.  1.
          6    2    1    2  502    0 -0.23904514099E+02  0.15149339039E+03 -0.85790840225E+02  0.24624511184E+03  0.17249612665E+03 0.  0.
         24    2    3    3    0    0 -0.57929434872E+02  0.15733544003E+03 -0.45183558615E+02  0.19273935423E+03  0.83645947806E+02 0.  0.
         -6    2    1    2    0  503  0.23904514099E+02 -0.15149339039E+03  0.20118191321E+03  0.30689260108E+03  0.17374473594E+03 0.  0.
        -24    2    5    5    0    0  0.44970788007E+02 -0.16128600200E+03  0.11719756501E+03  0.21962780932E+03  0.80408700814E+02 0.  0.
          4    1    4    4  501    0 -0.48765819018E+02  0.34547282015E+02 -0.34837917324E+02  0.69175864885E+02  0.00000000000E+00 0. -1.
         -3    1    4    4    0  501 -0.91636158534E+01  0.12278815802E+03 -0.10345641292E+02  0.12356348934E+03  0.00000000000E+00 0.  1.
          5    1    3    3  502    0  0.34024920773E+02 -0.58420496392E+01 -0.40607281610E+02  0.53505757609E+02  0.47000000000E+01 0. -1.
         13    1    6    6    0    0 -0.97824783908E+01 -0.28747774625E+02 -0.55448438936E+01  0.30868701352E+02  0.00000000000E+00 0. -1.
        -14    1    6    6    0    0  0.54753266398E+02 -0.13253822737E+03  0.12274240890E+03  0.18875910796E+03  0.00000000000E+00 0.  1.
         -5    1    5    5    0  503 -0.21066273908E+02  0.97926116073E+01  0.83984348199E+02  0.87264791760E+02  0.47000000000E+01 0.  1.
<mgrwt>
<rscale>  2 0.23151782E+03</rscale>
<asrwt>0</asrwt>
<pdfrwt beam="1">  1       21 0.51425291E-01 0.23175182E+03</pdfrwt>
<pdfrwt beam="2">  1       21 0.33672819E-01 0.23175182E+03</pdfrwt>
<totfact> 0.29908377E+04</totfact>
</mgrwt>
</event>
<event>
12    1  0.1473662E-001  0.2021858E+03  0.7546771E-02  0.1148002E+00
         21   -1    0    0  504  503  0.00000000000E+00  0.00000000000E+00  0.60203291724E+02  0.60203291724E+02  0.00000000000E+00 0. -1.
         21   -1    0    0  502  504 -0.00000000000E+00 -0.00000000000E+00 -0.98501220589E+03  0.98501220589E+03  0.00000000000E+00 0. -1.
          6    2    1    2  502    0  0.78402509187E+02 -0.67879738028E+02 -0.75405074848E+03  0.78056962756E+03  0.17303699001E+03 0.  0.
         24    2    3    3    0    0  0.28278647228E+02 -0.10678852698E+03 -0.47174666286E+03  0.49118410244E+03  0.80705868339E+02 0.  0.
         -6    2    1    2    0  503 -0.78402509187E+02  0.67879738028E+02 -0.17075816569E+03  0.26464587005E+03  0.17356403171E+03 0.  0.
        -24    2    5    5    0    0 -0.11031228078E+03  0.48030694730E+02 -0.78543837986E+02  0.16495740394E+03  0.81031251384E+02 0.  0.
          4    1    4    4  501    0  0.38905862325E+02 -0.11451393402E+03 -0.38798151574E+03  0.40639483728E+03  0.00000000000E+00 0. -1.
         -3    1    4    4    0  501 -0.10627215098E+02  0.77254070421E+01 -0.83765147115E+02  0.84789265157E+02  0.00000000000E+00 0.  1.
          5    1    3    3  502    0  0.50123861960E+02  0.38908788951E+02 -0.28230408562E+03  0.28938552513E+03  0.47000000000E+01 0. -1.
         13    1    6    6    0    0 -0.52707079354E+02  0.49929387719E+02 -0.79033871234E+02  0.10731883700E+03  0.00000000000E+00 0. -1.
        -14    1    6    6    0    0 -0.57605201425E+02 -0.18986929884E+01  0.49003324832E+00  0.57638566939E+02  0.00000000000E+00 0.  1.
         -5    1    5    5    0  503  0.31909771591E+02  0.19849043297E+02 -0.92214327706E+02  0.99688466118E+02  0.47000000000E+01 0.  1.
<mgrwt>
<rscale>  2 0.20207261E+03</rscale>
<asrwt>0</asrwt>
<pdfrwt beam="1">  1       21 0.92620455E-02 0.20218577E+03</pdfrwt>
<pdfrwt beam="2">  1       21 0.15154033E+00 0.20218577E+03</pdfrwt>
<totfact> 0.26859770E+04</totfact>
</mgrwt>
</event>
<event>
12    1  0.1473662E-001  0.2042538E+03  0.7546771E-02  0.1146235E+00
         21   -1    0    0  504  503  0.00000000000E+00  0.00000000000E+00  0.27634223178E+04  0.27634223178E+04  0.00000000000E+00 0.  1.
         21   -1    0    0  502  504 -0.00000000000E+00 -0.00000000000E+00 -0.17502398241E+02  0.17502398241E+02  0.00000000000E+00 0. -1.
          6    2    1    2  502    0 -0.18002525120E+02  0.10773346790E+03  0.85560584651E+03  0.87960756960E+03  0.17238770521E+03 0.  0.
         24    2    3    3    0    0 -0.51060641342E+02  0.72742048412E+02  0.31301103226E+03  0.33486133425E+03  0.79105070351E+02 0.  0.
         -6    2    1    2    0  503  0.18002525120E+02 -0.10773346790E+03  0.18903140731E+04  0.19013171465E+04  0.17259491751E+03 0.  0.
        -24    2    5    5    0    0  0.37894103791E+02 -0.86853048449E+01  0.12223859898E+04  0.12257757132E+04  0.82384425755E+02 0.  0.
          2    1    4    4  501    0 -0.79637101737E+01  0.16147245689E+02  0.49198077442E+01  0.18664370638E+02  0.00000000000E+00 0. -1.
         -1    1    4    4    0  501 -0.43096931169E+02  0.56594802723E+02  0.30809122451E+03  0.31619696361E+03  0.00000000000E+00 0.  1.
          5    1    3    3  502    0  0.33058116223E+02  0.34991419492E+02  0.54259481425E+03  0.54474623536E+03  0.47000000000E+01 0. -1.
         11    1    6    6    0    0  0.63132165474E+02 -0.14280113436E+01  0.96146184664E+03  0.96353338919E+03  0.00000000000E+00 0. -1.
        -12    1    6    6    0    0 -0.25238061683E+02 -0.72572935013E+01  0.26092414312E+03  0.26224232406E+03  0.00000000000E+00 0.  1.
         -5    1    5    5    0  503 -0.19891578672E+02 -0.99048163060E+02  0.66792808332E+03  0.67554143322E+03  0.47000000000E+01 0.  1.
<mgrwt>
<rscale>  2 0.20420998E+03</rscale>
<asrwt>0</asrwt>
<pdfrwt beam="1">  1       21 0.42514155E+00 0.20425376E+03</pdfrwt>
<pdfrwt beam="2">  1       21 0.26926788E-02 0.20425376E+03</pdfrwt>
<totfact> 0.44995996E+03</totfact>
</mgrwt>
</event>
<event>
12    1  0.1473662E-001  0.1882914E+03  0.7546771E-02  0.1160093E+00
         21   -1    0    0  504  503  0.00000000000E+00  0.00000000000E+00  0.28297967544E+02  0.28297967544E+02  0.00000000000E+00 0.  1.
         21   -1    0    0  502  504 -0.00000000000E+00 -0.00000000000E+00 -0.12551805122E+04  0.12551805122E+04  0.00000000000E+00 0.  1.
          6    2    1    2  502    0  0.20504058812E+02  0.66128974715E+02 -0.57478939908E+03  0.60484418472E+03  0.17510047622E+03 0.  0.
         24    2    3    3    0    0  0.75784783408E+02  0.12747150259E+02 -0.34410683839E+03  0.36165267274E+03  0.80481775802E+02 0.  0.
         -6    2    1    2    0  503 -0.20504058812E+02 -0.66128974715E+02 -0.65209314559E+03  0.67863429504E+03  0.17471570664E+03 0.  0.
        -24    2    5    5    0    0  0.22372175697E+02 -0.23884469144E+02 -0.57069765296E+03  0.57729187570E+03  0.80617098322E+02 0.  0.
          4    1    4    4  501    0 -0.39707931701E+01 -0.22571501101E+02 -0.94667861725E+02  0.97402484075E+02  0.00000000000E+00 0. -1.
         -3    1    4    4    0  501  0.79755576578E+02  0.35318651359E+02 -0.24943897666E+03  0.26425018866E+03  0.00000000000E+00 0.  1.
          5    1    3    3  502    0 -0.55280724596E+02  0.53381824456E+02 -0.23068256069E+03  0.24319151198E+03  0.47000000000E+01 0. -1.
         13    1    6    6    0    0  0.28819364491E+02  0.12609802733E+01 -0.67255661350E+02  0.73181075590E+02  0.00000000000E+00 0. -1.
        -14    1    6    6    0    0 -0.64471887938E+01 -0.25145449417E+02 -0.50344199161E+03  0.50411080011E+03  0.00000000000E+00 0.  1.
         -5    1    5    5    0  503 -0.42876234509E+02 -0.42244505571E+02 -0.81395492631E+02  0.10134241934E+03  0.47000000000E+01 0.  1.
<mgrwt>
<rscale>  2 0.18820185E+03</rscale>
<asrwt>0</asrwt>
<pdfrwt beam="1">  1       21 0.43535335E-02 0.18829136E+03</pdfrwt>
<pdfrwt beam="2">  1       21 0.19310469E+00 0.18829136E+03</pdfrwt>
<totfact> 0.50721823E+04</totfact>
</mgrwt>
</event>
<event>
12    1  0.1473662E-001  0.1763589E+03  0.7546771E-02  0.1171572E+00
         21   -1    0    0  504  503  0.00000000000E+00  0.00000000000E+00  0.18312622255E+04  0.18312622255E+04  0.00000000000E+00 0.  1.
         21   -1    0    0  502  504 -0.00000000000E+00 -0.00000000000E+00 -0.26402449610E+02  0.26402449610E+02  0.00000000000E+00 0.  1.
          6    2    1    2  502    0 -0.29618514494E+02  0.79623681605E+01  0.34412524953E+03  0.38632248794E+03  0.17286474950E+03 0.  0.
         24    2    3    3    0    0 -0.13817630135E+02  0.61730662164E+02  0.29289305328E+03  0.31024670126E+03  0.80405680333E+02 0.  0.
         -6    2    1    2    0  503  0.29618514494E+02 -0.79623681605E+01  0.14607345264E+04  0.14713421872E+04  0.17367158526E+03 0.  0.
        -24    2    5    5    0    0  0.12361934950E+02  0.28368560448E+02  0.13627994565E+04  0.13653653321E+04  0.77733768015E+02 0.  0.
          2    1    4    4  501    0  0.20931806443E+02  0.58907943115E+02  0.22991085105E+03  0.23825886282E+03  0.00000000000E+00 0. -1.
         -1    1    4    4    0  501 -0.34749436578E+02  0.28227190493E+01  0.62982202236E+02  0.71987838444E+02  0.00000000000E+00 0.  1.
          5    1    3    3  502    0 -0.15800884359E+02 -0.53768294004E+02  0.51232196246E+02  0.76075786679E+02  0.47000000000E+01 0. -1.
         11    1    6    6    0    0 -0.31036570389E+01  0.50677608338E+02  0.62203757272E+03  0.62410623659E+03  0.00000000000E+00 0. -1.
        -12    1    6    6    0    0  0.15465591989E+02 -0.22309047890E+02  0.74076188378E+03  0.74125909547E+03  0.00000000000E+00 0.  1.
         -5    1    5    5    0  503  0.17256579544E+02 -0.36330928608E+02  0.97935069911E+02  0.10597685516E+03  0.47000000000E+01 0.  1.
<mgrwt>
<rscale>  2 0.17615998E+03</rscale>
<asrwt>0</asrwt>
<pdfrwt beam="1">  1       21 0.28173255E+00 0.17635894E+03</pdfrwt>
<pdfrwt beam="2">  1       21 0.40619168E-02 0.17635894E+03</pdfrwt>
<totfact> 0.16883279E+04</totfact>
</mgrwt>
</event>
<event>
12    1  0.1473662E-001  0.2909687E+03  0.7546771E-02  0.1089860E+00
         21   -1    0    0  504  503  0.00000000000E+00  0.00000000000E+00  0.56597613708E+03  0.56597613708E+03  0.00000000000E+00 0.  1.
         21   -1    0    0  502  504 -0.00000000000E+00 -0.00000000000E+00 -0.29540420651E+03  0.29540420651E+03  0.00000000000E+00 0. -1.
          6    2    1    2  502    0 -0.95398120066E+02 -0.21343760494E+03 -0.16735760424E+03  0.33566551114E+03  0.17322342555E+03 0.  0.
         24    2    3    3    0    0 -0.20795043224E+02 -0.17735270444E+03 -0.15903212901E+03  0.25224403515E+03  0.80308278641E+02 0.  0.
         -6    2    1    2    0  503  0.95398120066E+02  0.21343760494E+03  0.43792953481E+03  0.52571483244E+03  0.17302426154E+03 0.  0.
        -24    2    5    5    0    0  0.64980965941E+02  0.51977561024E+02  0.25373965266E+03  0.27884937976E+03  0.80305494666E+02 0.  0.
          4    1    4    4  501    0 -0.41886421016E+02 -0.16719499526E+03 -0.14126942836E+03  0.22285800434E+03  0.00000000000E+00 0. -1.
         -3    1    4    4    0  501  0.21091377791E+02 -0.10157709173E+02 -0.17762700646E+02  0.29386030814E+02  0.00000000000E+00 0.  1.
          5    1    3    3  502    0 -0.74603076842E+02 -0.36084900499E+02 -0.83254752264E+01  0.83421475988E+02  0.47000000000E+01 0. -1.
         11    1    6    6    0    0 -0.15111055487E+00 -0.14457823728E+02  0.84451063220E+02  0.85679831818E+02  0.00000000000E+00 0. -1.
        -12    1    6    6    0    0  0.65132076496E+02  0.66435384752E+02  0.16928858944E+03  0.19316954794E+03  0.00000000000E+00 0.  1.
         -5    1    5    5    0  503  0.30417154125E+02  0.16146004391E+03  0.18418988215E+03  0.24686545269E+03  0.47000000000E+01 0.  1.
<mgrwt>
<rscale>  2 0.29093904E+03</rscale>
<asrwt>0</asrwt>
<pdfrwt beam="1">  1       21 0.87073252E-01 0.29096867E+03</pdfrwt>
<pdfrwt beam="2">  1       21 0.45446801E-01 0.29096867E+03</pdfrwt>
<totfact> 0.49387882E+03</totfact>
</mgrwt>
</event>
<event>
12    1  0.1473662E-001  0.1845163E+03  0.7546771E-02  0.1163578E+00
         21   -1    0    0  504  503  0.00000000000E+00  0.00000000000E+00  0.42091429532E+02  0.42091429532E+02  0.00000000000E+00 0.  1.
         21   -1    0    0  502  504 -0.00000000000E+00 -0.00000000000E+00 -0.11906727782E+04  0.11906727782E+04  0.00000000000E+00 0.  1.
          6    2    1    2  502    0  0.62723613788E+02 -0.31293040902E+01 -0.92431590125E+03  0.94255298692E+03  0.17349986623E+03 0.  0.
         24    2    3    3    0    0  0.89679391683E+02 -0.30568443860E+02 -0.84457068514E+03  0.85389121475E+03  0.82787326133E+02 0.  0.
         -6    2    1    2    0  503 -0.62723613788E+02  0.31293040902E+01 -0.22426544741E+03  0.29021122080E+03  0.17315749336E+03 0.  0.
        -24    2    5    5    0    0 -0.36281154753E+02  0.51134798188E+02 -0.20867187707E+03  0.23303622155E+03  0.82648886864E+02 0.  0.
          2    1    4    4  501    0  0.64460697815E+02 -0.12098321161E+01 -0.25403363071E+03  0.26208725796E+03  0.00000000000E+00 0. -1.
         -1    1    4    4    0  501  0.25218693867E+02 -0.29358611743E+02 -0.59053705444E+03  0.59180395678E+03  0.00000000000E+00 0.  1.
          5    1    3    3  502    0 -0.26955777895E+02  0.27439139769E+02 -0.79745216107E+02  0.88661772174E+02  0.47000000000E+01 0. -1.
         13    1    6    6    0    0  0.13109532740E+02 -0.14700433795E+02 -0.59373316934E+02  0.62555202551E+02  0.00000000000E+00 0. -1.
        -14    1    6    6    0    0 -0.49390687493E+02  0.65835231983E+02 -0.14929856014E+03  0.17048101900E+03  0.00000000000E+00 0.  1.
         -5    1    5    5    0  503 -0.26442459035E+02 -0.48005494097E+02 -0.15593570343E+02  0.57174999251E+02  0.47000000000E+01 0.  1.
<mgrwt>
<rscale>  2 0.18443573E+03</rscale>
<asrwt>0</asrwt>
<pdfrwt beam="1">  1       21 0.64756056E-02 0.18451625E+03</pdfrwt>
<pdfrwt beam="2">  1       21 0.18318040E+00 0.18451625E+03</pdfrwt>
<totfact> 0.30121362E+04</totfact>
</mgrwt>
</event>
<event>
12    1  0.1473662E-001  0.2201231E+03  0.7546771E-02  0.1133832E+00
         21   -1    0    0  504  503  0.00000000000E+00  0.00000000000E+00  0.16507480455E+03  0.16507480455E+03  0.00000000000E+00 0.  1.
         21   -1    0    0  502  504 -0.00000000000E+00 -0.00000000000E+00 -0.60047251172E+03  0.60047251172E+03  0.00000000000E+00 0.  1.
          6    2    1    2  502    0  0.10606480974E+03 -0.83807203087E+02 -0.49154930077E+03  0.53858599706E+03  0.17372613503E+03 0.  0.
         24    2    3    3    0    0  0.95044068277E+02 -0.77281172862E+02 -0.20258744777E+03  0.24930224657E+03  0.78129261849E+02 0.  0.
         -6    2    1    2    0  503 -0.10606480974E+03  0.83807203087E+02  0.56151593593E+02  0.22696131921E+03  0.17345041885E+03 0.  0.
        -24    2    5    5    0    0  0.43980950400E+01  0.48660413374E+02 -0.83471680065E+01  0.94222740008E+02  0.80131582108E+02 0.  0.
          2    1    4    4  501    0 -0.12233110754E+02 -0.98463624974E+01 -0.95086512822E+01  0.18357949296E+02  0.00000000000E+00 0. -1.
         -1    1    4    4    0  501  0.10727717903E+03 -0.67434810365E+02 -0.19307879649E+03  0.23094429728E+03  0.00000000000E+00 0.  1.
          5    1    3    3  502    0  0.11020741467E+02 -0.65260302251E+01 -0.28896185299E+03  0.28928375049E+03  0.47000000000E+01 0. -1.
         11    1    6    6    0    0  0.26217011198E+02  0.54705643536E+02  0.14164379717E+02  0.62295013954E+02  0.00000000000E+00 0. -1.
        -12    1    6    6    0    0 -0.21818916158E+02 -0.60452301619E+01 -0.22511547724E+02  0.31927726053E+02  0.00000000000E+00 0.  1.
         -5    1    5    5    0  503 -0.11046290478E+03  0.35146789714E+02  0.64498761600E+02  0.13273857920E+03  0.47000000000E+01 0.  1.
<mgrwt>
<rscale>  2 0.22006865E+03</rscale>
<asrwt>0</asrwt>
<pdfrwt beam="1">  1       21 0.25396123E-01 0.22012306E+03</pdfrwt>
<pdfrwt beam="2">  1       21 0.92380388E-01 0.22012306E+03</pdfrwt>
<totfact> 0.14282566E+04</totfact>
</mgrwt>
</event>
<event>
12    1  0.1473662E-001  0.2223032E+03  0.7546771E-02  0.1132516E+00
         21   -1    0    0  504  503  0.00000000000E+00  0.00000000000E+00  0.18804473153E+03  0.18804473153E+03  0.00000000000E+00 0.  1.
         21   -1    0    0  502  504 -0.00000000000E+00 -0.00000000000E+00 -0.26240903102E+03  0.26240903102E+03  0.00000000000E+00 0.  1.
          6    2    1    2  502    0  0.80445588980E+02  0.10354966554E+03 -0.55827645622E+02  0.22920608023E+03  0.17951232598E+03 0.  0.
         24    2    3    3    0    0  0.30825942826E+02  0.47695028308E+02 -0.98337501459E+02  0.14311875464E+03  0.87107171110E+02 0.  0.
         -6    2    1    2    0  503 -0.80445588980E+02 -0.10354966554E+03 -0.18536653863E+02  0.22124768233E+03  0.17723685672E+03 0.  0.
        -24    2    5    5    0    0 -0.53307752045E+02 -0.14251538610E+02  0.45592014299E+02  0.10791104330E+03  0.80754806156E+02 0.  0.
          4    1    4    4  501    0 -0.15945640966E+02  0.60114835494E+01  0.86700410957E+01  0.19119911425E+02  0.00000000000E+00 0. -1.
         -3    1    4    4    0  501  0.46771583792E+02  0.41683544759E+02 -0.10700754255E+03  0.12399884321E+03  0.00000000000E+00 0.  1.
          5    1    3    3  502    0  0.49619646154E+02  0.55854637227E+02  0.42509855837E+02  0.86087325591E+02  0.47000000000E+01 0. -1.
         11    1    6    6    0    0 -0.27125811421E+02  0.33491185903E+02  0.24045899202E+02  0.49352552587E+02  0.00000000000E+00 0. -1.
        -12    1    6    6    0    0 -0.26181940624E+02 -0.47742724513E+02  0.21546115096E+02  0.58558490712E+02  0.00000000000E+00 0.  1.
         -5    1    5    5    0  503 -0.27137836935E+02 -0.89298126925E+02 -0.64128668162E+02  0.11333663903E+03  0.47000000000E+01 0.  1.
<mgrwt>
<rscale>  2 0.22184340E+03</rscale>
<asrwt>0</asrwt>
<pdfrwt beam="1">  1       21 0.28929959E-01 0.22230317E+03</pdfrwt>
<pdfrwt beam="2">  1       21 0.40370620E-01 0.22230317E+03</pdfrwt>
<totfact> 0.66742835E+04</totfact>
</mgrwt>
</event>
<event>
12    1  0.1473662E-001  0.1805086E+03  0.7546771E-02  0.1167441E+00
         21   -1    0    0  504  503  0.00000000000E+00  0.00000000000E+00  0.38651991920E+03  0.38651991920E+03  0.00000000000E+00 0.  1.
         21   -1    0    0  502  504 -0.00000000000E+00 -0.00000000000E+00 -0.12877671977E+03  0.12877671977E+03  0.00000000000E+00 0.  1.
          6    2    1    2  502    0  0.15246976216E+02  0.47560926123E+02 -0.23095117471E+02  0.18145007230E+03  0.17290526975E+03 0.  0.
         24    2    3    3    0    0  0.79048331960E+01  0.50083316461E+02  0.48960263373E+02  0.10882543856E+03  0.82915883354E+02 0.  0.
         -6    2    1    2    0  503 -0.15246976216E+02 -0.47560926123E+02  0.28083831690E+03  0.33384656668E+03  0.17346140166E+03 0.  0.
        -24    2    5    5    0    0  0.50669414611E+02 -0.45037577704E+02  0.11818316709E+03  0.15826147156E+03  0.80521173705E+02 0.  0.
          2    1    4    4  501    0  0.22806290505E+02  0.36890768079E+02  0.68408505165E+02  0.80998637241E+02  0.00000000000E+00 0. -1.
         -1    1    4    4    0  501 -0.14901457309E+02  0.13192548383E+02 -0.19448241792E+02  0.27826801318E+02  0.00000000000E+00 0.  1.
          5    1    3    3  502    0  0.73421430197E+01 -0.25223903384E+01 -0.72055380845E+02  0.72624633739E+02  0.47000000000E+01 0. -1.
         11    1    6    6    0    0  0.59461812569E+02 -0.11753061771E+02  0.10530950664E+03  0.12150692904E+03  0.00000000000E+00 0. -1.
        -12    1    6    6    0    0 -0.87923979578E+01 -0.33284515933E+02  0.12873660447E+02  0.36754542522E+02  0.00000000000E+00 0.  1.
         -5    1    5    5    0  503 -0.65916390827E+02 -0.25233484194E+01  0.16265514981E+03  0.17558509512E+03  0.47000000000E+01 0.  1.
<mgrwt>
<rscale>  2 0.18037490E+03</rscale>
<asrwt>0</asrwt>
<pdfrwt beam="1">  1       21 0.59464603E-01 0.18050864E+03</pdfrwt>
<pdfrwt beam="2">  1       21 0.19811803E-01 0.18050864E+03</pdfrwt>
<totfact> 0.62395940E+04</totfact>
</mgrwt>
</event>
<event>
12    1  0.1473662E-001  0.2137295E+03  0.7546771E-02  0.1138832E+00
         21   -1    0    0  504  503  0.00000000000E+00  0.00000000000E+00  0.20560102476E+03  0.20560102476E+03  0.00000000000E+00 0. -1.
         21   -1    0    0  502  504 -0.00000000000E+00 -0.00000000000E+00 -0.63895070518E+03  0.63895070518E+03  0.00000000000E+00 0. -1.
          6    2    1    2  502    0  0.11963311614E+03 -0.35127034904E+02 -0.55829494145E+03  0.59780726618E+03  0.17359232354E+03 0.  0.
         24    2    3    3    0    0  0.33729048510E+02 -0.78945699764E+02 -0.31659945741E+03  0.33754128448E+03  0.79553944419E+02 0.  0.
         -6    2    1    2    0  503 -0.11963311614E+03  0.35127034904E+02  0.12494526102E+03  0.24674446376E+03  0.17241090768E+03 0.  0.
        -24    2    5    5    0    0 -0.35641917263E+02 -0.38987749924E+02  0.84110311507E+02  0.12742511948E+03  0.79826221638E+02 0.  0.
          4    1    4    4  501    0  0.35083854660E+02 -0.72946907901E+02 -0.32029600490E+03  0.33036594707E+03  0.00000000000E+00 0. -1.
         -3    1    4    4    0  501 -0.13548061497E+01 -0.59987918630E+01  0.36965474936E+01  0.71753374061E+01  0.00000000000E+00 0.  1.
          5    1    3    3  502    0  0.85904067625E+02  0.43818664861E+02 -0.24169548404E+03  0.26026598170E+03  0.47000000000E+01 0. -1.
         13    1    6    6    0    0 -0.55528943108E+02 -0.13165819386E+02  0.30558817690E+02  0.64735181018E+02  0.00000000000E+00 0. -1.
        -14    1    6    6    0    0  0.19887025845E+02 -0.25821930538E+02  0.53551493817E+02  0.62689938457E+02  0.00000000000E+00 0.  1.
         -5    1    5    5    0  503 -0.83991198872E+02  0.74114784828E+02  0.40834949517E+02  0.11931934428E+03  0.47000000000E+01 0.  1.
<mgrwt>
<rscale>  2 0.21348946E+03</rscale>
<asrwt>0</asrwt>
<pdfrwt beam="1">  1       21 0.31630927E-01 0.21372947E+03</pdfrwt>
<pdfrwt beam="2">  1       21 0.98300108E-01 0.21372947E+03</pdfrwt>
<totfact> 0.80915894E+03</totfact>
</mgrwt>
</event>
<event>
12    1  0.1473662E-001  0.1880490E+03  0.7546771E-02  0.1160316E+00
         21   -1    0    0  504  503  0.00000000000E+00  0.00000000000E+00  0.21937436413E+03  0.21937436413E+03  0.00000000000E+00 0. -1.
         21   -1    0    0  502  504 -0.00000000000E+00 -0.00000000000E+00 -0.16567116627E+03  0.16567116627E+03  0.00000000000E+00 0.  1.
          6    2    1    2  502    0  0.73014820688E+02  0.25075984423E+01 -0.59009806843E+01  0.18777646531E+03  0.17288067347E+03 0.  0.
         24    2    3    3    0    0  0.24157705978E+02  0.63329459616E+02  0.15022475175E+02  0.10686789061E+03  0.81245652623E+02 0.  0.
         -6    2    1    2    0  503 -0.73014820688E+02 -0.25075984423E+01  0.59604178545E+02  0.19726906509E+03  0.17327715906E+03 0.  0.
        -24    2    5    5    0    0 -0.11413892238E+03  0.19789909025E+02  0.52094818956E+02  0.14965760575E+03  0.79146665731E+02 0.  0.
          4    1    4    4  501    0  0.29979678022E+02  0.74880472512E+02  0.30911481029E+02  0.86379314175E+02  0.00000000000E+00 0. -1.
         -3    1    4    4    0  501 -0.58219720440E+01 -0.11551012896E+02 -0.15889005854E+02  0.20488576437E+02  0.00000000000E+00 0.  1.
          5    1    3    3  502    0  0.48857114709E+02 -0.60821861174E+02 -0.20923455860E+02  0.80908574697E+02  0.47000000000E+01 0. -1.
         13    1    6    6    0    0 -0.44501228822E+02  0.24672832295E+02  0.60828671445E+02  0.79304699040E+02  0.00000000000E+00 0. -1.
        -14    1    6    6    0    0 -0.69637693554E+02 -0.48829232700E+01 -0.87338524887E+01  0.70352906709E+02  0.00000000000E+00 0.  1.
         -5    1    5    5    0  503  0.41124101688E+02 -0.22297507467E+02  0.75093595887E+01  0.47611459338E+02  0.47000000000E+01 0.  1.
<mgrwt>
<rscale>  2 0.18795761E+03</rscale>
<asrwt>0</asrwt>
<pdfrwt beam="1">  1       21 0.33749902E-01 0.18804900E+03</pdfrwt>
<pdfrwt beam="2">  1       21 0.25487872E-01 0.18804900E+03</pdfrwt>
<totfact> 0.12365143E+05</totfact>
</mgrwt>
</event>
<event>
12    1  0.1473662E-001  0.1877010E+03  0.7546771E-02  0.1160938E+00
         21   -1    0    0  504  503  0.00000000000E+00  0.00000000000E+00  0.57170415576E+03  0.57170415576E+03  0.00000000000E+00 0.  1.
         21   -1    0    0  502  504 -0.00000000000E+00 -0.00000000000E+00 -0.66074530679E+03  0.66074530679E+03  0.00000000000E+00 0.  1.
          6    2    1    2  502    0  0.28354587880E+02  0.55660915294E+02 -0.63159277918E+03  0.65889383785E+03  0.17700149913E+03 0.  0.
         24    2    3    3    0    0  0.14730252310E+02  0.86056308361E+02 -0.60332441248E+03  0.61495418611E+03  0.80905103494E+02 0.  0.
         -6    2    1    2    0  503 -0.28354587880E+02 -0.55660915294E+02  0.54255162815E+03  0.57355562469E+03  0.17521890669E+03 0.  0.
        -24    2    5    5    0    0 -0.50877870021E+02 -0.94403919551E+02  0.46753851983E+03  0.48604919615E+03  0.78427647313E+02 0.  0.
          2    1    4    4  501    0  0.38030526304E+02  0.72664506155E+02 -0.31943830414E+03  0.32979885011E+03  0.00000000000E+00 0. -1.
         -1    1    4    4    0  501 -0.23300273994E+02  0.13391802206E+02 -0.28388610835E+03  0.28515533599E+03  0.00000000000E+00 0.  1.
          5    1    3    3  502    0  0.13624335570E+02 -0.30395393068E+02 -0.28268366703E+02  0.43939651746E+02  0.47000000000E+01 0. -1.
         11    1    6    6    0    0  0.93146729889E+01 -0.20884162599E+02  0.27009765586E+02  0.35389812338E+02  0.00000000000E+00 0. -1.
        -12    1    6    6    0    0 -0.60192543010E+02 -0.73519756953E+02  0.44052875425E+03  0.45065938381E+03  0.00000000000E+00 0.  1.
         -5    1    5    5    0  503  0.22523282142E+02  0.38743004258E+02  0.75013108317E+02  0.87506428545E+02  0.47000000000E+01 0.  1.
<mgrwt>
<rscale>  2 0.18727954E+03</rscale>
<asrwt>0</asrwt>
<pdfrwt beam="1">  1       21 0.87954485E-01 0.18770096E+03</pdfrwt>
<pdfrwt beam="2">  1       21 0.10165312E+00 0.18770096E+03</pdfrwt>
<totfact> 0.87922077E+02</totfact>
</mgrwt>
</event>
<event>
12    1  0.1473662E-001  0.1818387E+03  0.7546771E-02  0.1166169E+00
         21   -1    0    0  504  503  0.00000000000E+00  0.00000000000E+00  0.87446432233E+03  0.87446432233E+03  0.00000000000E+00 0. -1.
         21   -1    0    0  502  504 -0.00000000000E+00 -0.00000000000E+00 -0.72711278674E+02  0.72711278674E+02  0.00000000000E+00 0.  1.
          6    2    1    2  502    0  0.25109721245E+02  0.45308142833E+02  0.71913312673E+02  0.19502445655E+03  0.17372302151E+03 0.  0.
         24    2    3    3    0    0 -0.32448841811E+02  0.61478558823E+02  0.81717648467E+02  0.13425698552E+03  0.80713218005E+02 0.  0.
         -6    2    1    2    0  503 -0.25109721245E+02 -0.45308142833E+02  0.72983973098E+03  0.75215114446E+03  0.17430428933E+03 0.  0.
        -24    2    5    5    0    0  0.17309644978E+02 -0.84326528543E+02  0.43432023763E+03  0.45102708696E+03  0.85911449345E+02 0.  0.
          4    1    4    4  501    0 -0.38153717081E+02  0.42335515924E+02  0.94633883062E+02  0.11046978709E+03  0.00000000000E+00 0. -1.
         -3    1    4    4    0  501  0.57048752701E+01  0.19143042899E+02 -0.12916234595E+02  0.23787198435E+02  0.00000000000E+00 0.  1.
          5    1    3    3  502    0  0.57558563056E+02 -0.16170415989E+02 -0.98043357942E+01  0.60767471024E+02  0.47000000000E+01 0. -1.
         13    1    6    6    0    0  0.34891574325E+02 -0.94985593138E+01  0.22807334625E+03  0.23092227233E+03  0.00000000000E+00 0. -1.
        -14    1    6    6    0    0 -0.17581929348E+02 -0.74827969229E+02  0.20624689138E+03  0.22010481463E+03  0.00000000000E+00 0.  1.
         -5    1    5    5    0  503 -0.42419366222E+02  0.39018385710E+02  0.29551949335E+03  0.30112405750E+03  0.47000000000E+01 0.  1.
<mgrwt>
<rscale>  2 0.18169926E+03</rscale>
<asrwt>0</asrwt>
<pdfrwt beam="1">  1       21 0.13453297E+00 0.18183870E+03</pdfrwt>
<pdfrwt beam="2">  1       21 0.11186351E-01 0.18183870E+03</pdfrwt>
<totfact> 0.26537429E+04</totfact>
</mgrwt>
</event>
<event>
12    1  0.1473662E-001  0.2169384E+03  0.7546771E-02  0.1136462E+00
         21   -1    0    0  504  503  0.00000000000E+00  0.00000000000E+00  0.14681655101E+03  0.14681655101E+03  0.00000000000E+00 0. -1.
         21   -1    0    0  502  504 -0.00000000000E+00 -0.00000000000E+00 -0.32524560030E+03  0.32524560030E+03  0.00000000000E+00 0. -1.
          6    2    1    2  502    0 -0.12399016801E+03 -0.40320061134E+02 -0.12371520261E+03  0.24973531196E+03  0.17338686684E+03 0.  0.
         24    2    3    3    0    0 -0.71499622645E+02 -0.91089465622E+02 -0.99129048496E+02  0.17253842888E+03  0.80829786572E+02 0.  0.
         -6    2    1    2    0  503  0.12399016801E+03  0.40320061134E+02 -0.54713846686E+02  0.22232683935E+03  0.17157024621E+03 0.  0.
        -24    2    5    5    0    0  0.15436792964E+03  0.33249488590E+02 -0.24721018817E+02  0.17880143157E+03  0.80148842585E+02 0.  0.
          2    1    4    4  501    0 -0.60845755769E+02 -0.27099171207E+02 -0.18649670791E+02  0.69169222172E+02  0.00000000000E+00 0. -1.
         -1    1    4    4    0  501 -0.10653866875E+02 -0.63990294415E+02 -0.80479377705E+02  0.10336920670E+03  0.00000000000E+00 0.  1.
          5    1    3    3  502    0 -0.52490545361E+02  0.50769404488E+02 -0.24586154109E+02  0.77196883086E+02  0.47000000000E+01 0. -1.
         13    1    6    6    0    0  0.71930714969E+02  0.55932750108E+02 -0.19223832077E+02  0.93123874545E+02  0.00000000000E+00 0. -1.
        -14    1    6    6    0    0  0.82437214674E+02 -0.22683261518E+02 -0.54971867393E+01  0.85677557029E+02  0.00000000000E+00 0.  1.
         -5    1    5    5    0  503 -0.30377761638E+02  0.70705725441E+01 -0.29992827870E+02  0.43525407773E+02  0.47000000000E+01 0.  1.
<mgrwt>
<rscale>  2 0.21657521E+03</rscale>
<asrwt>0</asrwt>
<pdfrwt beam="1">  1       21 0.22587162E-01 0.21693841E+03</pdfrwt>
<pdfrwt beam="2">  1       21 0.50037783E-01 0.21693841E+03</pdfrwt>
<totfact> 0.69133793E+04</totfact>
</mgrwt>
</event>
<event>
12    1  0.1473662E-001  0.1900016E+03  0.7546771E-02  0.1158737E+00
         21   -1    0    0  504  503  0.00000000000E+00  0.00000000000E+00  0.24469864321E+03  0.24469864321E+03  0.00000000000E+00 0. -1.
         21   -1    0    0  502  504 -0.00000000000E+00 -0.00000000000E+00 -0.19092780810E+03  0.19092780810E+03  0.00000000000E+00 0. -1.
          6    2    1    2  502    0 -0.68509998088E+02  0.34036678942E+02 -0.78155079308E+02  0.20431483862E+03  0.17258105779E+03 0.  0.
         24    2    3    3    0    0 -0.10914863259E+03  0.23499919584E+01 -0.68824003537E+02  0.15173438863E+03  0.79797460943E+02 0.  0.
         -6    2    1    2    0  503  0.68509998088E+02 -0.34036678942E+02  0.13192591442E+03  0.23131161268E+03  0.17392095882E+03 0.  0.
        -24    2    5    5    0    0  0.84212106430E+02 -0.66512819601E+02  0.52067451690E+02  0.14355786639E+03  0.79888719089E+02 0.  0.
          4    1    4    4  501    0 -0.11504120677E+03 -0.15762201669E+02 -0.60742491447E+02  0.13104417776E+03  0.00000000000E+00 0. -1.
         -3    1    4    4    0  501  0.58925741815E+01  0.18112193628E+02 -0.80815120896E+01  0.20690210877E+02  0.00000000000E+00 0.  1.
          5    1    3    3  502    0  0.40638634501E+02  0.31686686983E+02 -0.93310757712E+01  0.52580449990E+02  0.47000000000E+01 0. -1.
         13    1    6    6    0    0  0.43881307161E+02 -0.32618740883E+02 -0.16478500838E+02  0.57105974861E+02  0.00000000000E+00 0. -1.
        -14    1    6    6    0    0  0.40330799269E+02 -0.33894078718E+02  0.68545952528E+02  0.86451891534E+02  0.00000000000E+00 0.  1.
         -5    1    5    5    0  503 -0.15702108342E+02  0.32476140659E+02  0.79858462727E+02  0.87753746288E+02  0.47000000000E+01 0.  1.
<mgrwt>
<rscale>  2 0.18969444E+03</rscale>
<asrwt>0</asrwt>
<pdfrwt beam="1">  1       21 0.37645945E-01 0.19000162E+03</pdfrwt>
<pdfrwt beam="2">  1       21 0.29373509E-01 0.19000162E+03</pdfrwt>
<totfact> 0.75642081E+04</totfact>
</mgrwt>
</event>
<event>
12    1  0.1473662E-001  0.2630078E+03  0.7546771E-02  0.1105378E+00
         21   -1    0    0  504  503  0.00000000000E+00  0.00000000000E+00  0.54530118950E+02  0.54530118950E+02  0.00000000000E+00 0.  1.
         21   -1    0    0  502  504 -0.00000000000E+00 -0.00000000000E+00 -0.16534175607E+04  0.16534175607E+04  0.00000000000E+00 0.  1.
          6    2    1    2  502    0 -0.17173926584E+03  0.98458122766E+02 -0.12121770972E+04  0.12403815656E+04  0.17316101114E+03 0.  0.
         24    2    3    3    0    0 -0.17153236971E+03  0.28497212893E+02 -0.95703510214E+03  0.97577979049E+03  0.77424594254E+02 0.  0.
         -6    2    1    2    0  503  0.17173926584E+03 -0.98458122766E+02 -0.38671034455E+03  0.46756611411E+03  0.17287221614E+03 0.  0.
        -24    2    5    5    0    0  0.16057578470E+03 -0.13324525314E+03 -0.30951139824E+03  0.38202936726E+03  0.81303454370E+02 0.  0.
          4    1    4    4  501    0  0.56443832209E+01 -0.75884066906E+01 -0.53655608151E+02  0.54482724455E+02  0.00000000000E+00 0. -1.
         -3    1    4    4    0  501 -0.17717675293E+03  0.36085619584E+02 -0.90337949399E+03  0.92129706604E+03  0.00000000000E+00 0.  1.
          5    1    3    3  502    0 -0.20689612938E+00  0.69960909872E+02 -0.25514199507E+03  0.26460177506E+03  0.47000000000E+01 0. -1.
         13    1    6    6    0    0  0.10998538493E+02  0.11062301403E+02 -0.15663256359E+02  0.22106106873E+02  0.00000000000E+00 0. -1.
        -14    1    6    6    0    0  0.14957724620E+03 -0.14430755454E+03 -0.29384814188E+03  0.35992326039E+03  0.00000000000E+00 0.  1.
         -5    1    5    5    0  503  0.11163481146E+02  0.34787130374E+02 -0.77198946305E+02  0.85536746850E+02  0.47000000000E+01 0.  1.
<mgrwt>
<rscale>  2 0.26296029E+03</rscale>
<asrwt>0</asrwt>
<pdfrwt beam="1">  1       21 0.83892510E-02 0.26300782E+03</pdfrwt>
<pdfrwt beam="2">  1       21 0.25437187E+00 0.26300782E+03</pdfrwt>
<totfact> 0.65090041E+03</totfact>
</mgrwt>
</event>
<event>
12    1  0.1473662E-001  0.2217411E+03  0.7546771E-02  0.1132629E+00
         21   -1    0    0  504  503  0.00000000000E+00  0.00000000000E+00  0.12741462014E+03  0.12741462014E+03  0.00000000000E+00 0.  1.
         21   -1    0    0  502  504 -0.00000000000E+00 -0.00000000000E+00 -0.38558575407E+03  0.38558575407E+03  0.00000000000E+00 0. -1.
          6    2    1    2  502    0  0.78198774389E+02  0.11463850810E+03 -0.12668770538E+03  0.25537993632E+03  0.17295115301E+03 0.  0.
         24    2    3    3    0    0  0.10415097145E+03  0.57834580530E+02 -0.42684392303E+02  0.15059993190E+03  0.81646301699E+02 0.  0.
         -6    2    1    2    0  503 -0.78198774389E+02 -0.11463850810E+03 -0.13148342856E+03  0.25762043789E+03  0.17269441849E+03 0.  0.
        -24    2    5    5    0    0  0.21819116932E+02 -0.35140208471E+02 -0.33875814683E+02  0.96769903185E+02  0.80659377799E+02 0.  0.
          2    1    4    4  501    0  0.53905652353E+02  0.35826479696E+02  0.19577317607E+02  0.67621205016E+02  0.00000000000E+00 0. -1.
         -1    1    4    4    0  501  0.50245319102E+02  0.22008100833E+02 -0.62261709910E+02  0.82978726881E+02  0.00000000000E+00 0.  1.
          5    1    3    3  502    0 -0.25952197066E+02  0.56803927568E+02 -0.84003313074E+02  0.10478000442E+03  0.47000000000E+01 0. -1.
         13    1    6    6    0    0 -0.19717103015E+01 -0.57326477510E+02 -0.15541697443E+02  0.59428587605E+02  0.00000000000E+00 0. -1.
        -14    1    6    6    0    0  0.23790827233E+02  0.22186269039E+02 -0.18334117239E+02  0.37341315580E+02  0.00000000000E+00 0.  1.
         -5    1    5    5    0  503 -0.10001789132E+03 -0.79498299627E+02 -0.97607613878E+02  0.16085053470E+03  0.47000000000E+01 0.  1.
<mgrwt>
<rscale>  2 0.22169109E+03</rscale>
<asrwt>0</asrwt>
<pdfrwt beam="1">  1       21 0.19602249E-01 0.22174115E+03</pdfrwt>
<pdfrwt beam="2">  1       21 0.59320886E-01 0.22174115E+03</pdfrwt>
<totfact> 0.62807226E+04</totfact>
</mgrwt>
</event>
<event>
12    1  0.1473662E-001  0.2105418E+03  0.7546771E-02  0.1141308E+00
         21   -1    0    0  504  503  0.00000000000E+00  0.00000000000E+00  0.37993843589E+03  0.37993843589E+03  0.00000000000E+00 0. -1.
         21   -1    0    0  502  504 -0.00000000000E+00 -0.00000000000E+00 -0.11621089435E+03  0.11621089435E+03  0.00000000000E+00 0. -1.
          6    2    1    2  502    0  0.55079523669E+02 -0.10635087708E+03  0.12855837047E+03  0.24595230261E+03  0.17210757554E+03 0.  0.
         24    2    3    3    0    0  0.34501799995E+02 -0.90281462146E+02  0.16116346118E+03  0.20391837884E+03  0.79170243130E+02 0.  0.
         -6    2    1    2    0  503 -0.55079523669E+02  0.10635087708E+03  0.13516917107E+03  0.25019702764E+03  0.17315768781E+03 0.  0.
        -24    2    5    5    0    0 -0.75523610209E+02  0.13167312530E+03  0.12941158619E+03  0.21681414710E+03  0.84966982511E+02 0.  0.
          4    1    4    4  501    0  0.45000920958E+02 -0.55946410880E+02  0.15003357862E+03  0.16632846567E+03  0.00000000000E+00 0. -1.
         -3    1    4    4    0  501 -0.10499120963E+02 -0.34335051265E+02  0.11129882564E+02  0.37589913172E+02  0.00000000000E+00 0.  1.
          5    1    3    3  502    0  0.20577723674E+02 -0.16069414933E+02 -0.32605090708E+02  0.42033923776E+02  0.47000000000E+01 0. -1.
         11    1    6    6    0    0 -0.94911060979E+01  0.65113961454E+02  0.12545570418E+02  0.66987315279E+02  0.00000000000E+00 0. -1.
        -12    1    6    6    0    0 -0.66032504111E+02  0.66559163846E+02  0.11686601577E+03  0.14982683182E+03  0.00000000000E+00 0.  1.
         -5    1    5    5    0  503  0.20444086540E+02 -0.25322248221E+02  0.57575848791E+01  0.33382880539E+02  0.47000000000E+01 0.  1.
<mgrwt>
<rscale>  2 0.21032576E+03</rscale>
<asrwt>0</asrwt>
<pdfrwt beam="1">  1       21 0.58452067E-01 0.21054180E+03</pdfrwt>
<pdfrwt beam="2">  1       21 0.17878599E-01 0.21054180E+03</pdfrwt>
<totfact> 0.77305724E+04</totfact>
</mgrwt>
</event>
<event>
12    1  0.1473662E-001  0.2347168E+03  0.7546771E-02  0.1123602E+00
         21   -1    0    0  504  503  0.00000000000E+00  0.00000000000E+00  0.10072665077E+04  0.10072665077E+04  0.00000000000E+00 0. -1.
         21   -1    0    0  502  504 -0.00000000000E+00 -0.00000000000E+00 -0.61923130613E+02  0.61923130613E+02  0.00000000000E+00 0. -1.
          6    2    1    2  502    0 -0.13472092003E+03  0.81809235392E+02  0.28721213116E+03  0.37092151680E+03  0.17392379381E+03 0.  0.
         24    2    3    3    0    0 -0.13832059699E+03  0.96675930337E+02  0.29761382066E+03  0.35183588249E+03  0.82071181912E+02 0.  0.
         -6    2    1    2    0  503  0.13472092003E+03 -0.81809235392E+02  0.65813124589E+03  0.69826812147E+03  0.17204405062E+03 0.  0.
        -24    2    5    5    0    0  0.96946516315E+02 -0.57710857915E+02  0.63074606489E+03  0.64554549339E+03  0.78480669702E+02 0.  0.
          2    1    4    4  501    0 -0.96991667962E+02  0.58517077733E+02  0.26152489546E+03  0.28500333855E+03  0.00000000000E+00 0. -1.
         -1    1    4    4    0  501 -0.41328929029E+02  0.38158852604E+02  0.36088925195E+02  0.66832543932E+02  0.00000000000E+00 0.  1.
          5    1    3    3  502    0  0.35996769582E+01 -0.14866694945E+02 -0.10401689500E+02  0.19085634316E+02  0.47000000000E+01 0. -1.
         13    1    6    6    0    0  0.78750888541E+02 -0.60426986738E+02  0.33936216618E+03  0.35358139516E+03  0.00000000000E+00 0. -1.
        -14    1    6    6    0    0  0.18195627775E+02  0.27161288236E+01  0.29138389871E+03  0.29196409823E+03  0.00000000000E+00 0.  1.
         -5    1    5    5    0  503  0.37774403718E+02 -0.24098377477E+02  0.27385181002E+02  0.52722628081E+02  0.47000000000E+01 0.  1.
<mgrwt>
<rscale>  2 0.23436863E+03</rscale>
<asrwt>0</asrwt>
<pdfrwt beam="1">  1       21 0.15496407E+00 0.23471677E+03</pdfrwt>
<pdfrwt beam="2">  1       21 0.95266362E-02 0.23471677E+03</pdfrwt>
<totfact> 0.23614287E+04</totfact>
</mgrwt>
</event>
<event>
12    1  0.1473662E-001  0.2102329E+03  0.7546771E-02  0.1141656E+00
         21   -1    0    0  504  503  0.00000000000E+00  0.00000000000E+00  0.20924445971E+03  0.20924445971E+03  0.00000000000E+00 0. -1.
         21   -1    0    0  502  504 -0.00000000000E+00 -0.00000000000E+00 -0.23032665746E+03  0.23032665746E+03  0.00000000000E+00 0. -1.
          6    2    1    2  502    0 -0.11369679048E+03 -0.21072300398E+02 -0.76124994296E+02  0.22359087060E+03  0.17557579744E+03 0.  0.
         24    2    3    3    0    0 -0.81618756743E+01  0.75573655631E+01  0.12686193002E+02  0.82641259015E+02  0.80900606981E+02 0.  0.
         -6    2    1    2    0  503  0.11369679048E+03  0.21072300398E+02  0.55042796544E+02  0.21598024657E+03  0.17391594363E+03 0.  0.
        -24    2    5    5    0    0  0.64858184785E+02 -0.49615428651E+02  0.51650344507E+00  0.11411184576E+03  0.79705531013E+02 0.  0.
          2    1    4    4  501    0 -0.20532703970E+02 -0.28030935169E+02  0.25219493290E+02  0.42934229941E+02  0.00000000000E+00 0. -1.
         -1    1    4    4    0  501  0.12370828296E+02  0.35588300733E+02 -0.12533300288E+02  0.39707029074E+02  0.00000000000E+00 0.  1.
          5    1    3    3  502    0 -0.10553491480E+03 -0.28629665961E+02 -0.88811187298E+02  0.14094961158E+03  0.47000000000E+01 0. -1.
         11    1    6    6    0    0  0.11702859494E+02  0.59017811320E+01  0.29252435565E+02  0.32054530528E+02  0.00000000000E+00 0. -1.
        -12    1    6    6    0    0  0.53155325291E+02 -0.55517209783E+02 -0.28735932120E+02  0.82057315236E+02  0.00000000000E+00 0.  1.
         -5    1    5    5    0  503  0.48838605693E+02  0.70687729049E+02  0.54526293099E+02  0.10186840081E+03  0.47000000000E+01 0.  1.
<mgrwt>
<rscale>  2 0.20988596E+03</rscale>
<asrwt>0</asrwt>
<pdfrwt beam="1">  1       21 0.32191455E-01 0.21023288E+03</pdfrwt>
<pdfrwt beam="2">  1       21 0.35434870E-01 0.21023288E+03</pdfrwt>
<totfact> 0.70730611E+04</totfact>
</mgrwt>
</event>
<event>
12    1  0.1473662E-001  0.2048331E+03  0.7546771E-02  0.1146352E+00
         21   -1    0    0  504  503  0.00000000000E+00  0.00000000000E+00  0.59303699055E+03  0.59303699055E+03  0.00000000000E+00 0. -1.
         21   -1    0    0  502  504 -0.00000000000E+00 -0.00000000000E+00 -0.85419663662E+02  0.85419663662E+02  0.00000000000E+00 0. -1.
          6    2    1    2  502    0 -0.50903135934E+02  0.90990015546E+02  0.10674100460E+03  0.22828066452E+03  0.17276604861E+03 0.  0.
         24    2    3    3    0    0 -0.23940388184E+02  0.94176163151E+02  0.13765412619E+03  0.18686988827E+03  0.80804732485E+02 0.  0.
         -6    2    1    2    0  503  0.50903135934E+02 -0.90990015546E+02  0.40087632229E+03  0.45017598969E+03  0.17631302773E+03 0.  0.
        -24    2    5    5    0    0  0.50406556272E+02 -0.52673098565E+02  0.39668394132E+03  0.41134174223E+03  0.80799773325E+02 0.  0.
          4    1    4    4  501    0 -0.11758749443E+02  0.98431120032E+02  0.78847991450E+02  0.12666475175E+03  0.00000000000E+00 0. -1.
         -3    1    4    4    0  501 -0.12181638741E+02 -0.42549568818E+01  0.58806134742E+02  0.60205136523E+02  0.00000000000E+00 0.  1.
          5    1    3    3  502    0 -0.26962747750E+02 -0.31861476042E+01 -0.30913121594E+02  0.41410776249E+02  0.47000000000E+01 0. -1.
         11    1    6    6    0    0 -0.11962349798E+02 -0.42656491338E+02  0.19630334102E+03  0.20124034328E+03  0.00000000000E+00 0. -1.
        -12    1    6    6    0    0  0.62368906070E+02 -0.10016607227E+02  0.20038060030E+03  0.21010139895E+03  0.00000000000E+00 0.  1.
         -5    1    5    5    0  503  0.49657966247E+00 -0.38316916981E+02  0.41923809739E+01  0.38834247470E+02  0.47000000000E+01 0.  1.
<mgrwt>
<rscale>  2 0.20406755E+03</rscale>
<asrwt>0</asrwt>
<pdfrwt beam="1">  1       21 0.91236458E-01 0.20483309E+03</pdfrwt>
<pdfrwt beam="2">  1       21 0.13141487E-01 0.20483309E+03</pdfrwt>
<totfact> 0.50429553E+04</totfact>
</mgrwt>
</event>
<event>
12    1  0.1473662E-001  0.2961041E+03  0.7546771E-02  0.1087315E+00
         21   -1    0    0  504  503  0.00000000000E+00  0.00000000000E+00  0.26007160156E+03  0.26007160156E+03  0.00000000000E+00 0.  1.
         21   -1    0    0  502  504 -0.00000000000E+00 -0.00000000000E+00 -0.38685080023E+03  0.38685080023E+03  0.00000000000E+00 0. -1.
          6    2    1    2  502    0 -0.58648663228E+02 -0.23358863206E+03 -0.18042109650E+03  0.34599865515E+03  0.17076294264E+03 0.  0.
         24    2    3    3    0    0 -0.37218536825E+02 -0.38007282305E+02 -0.78809431377E+02  0.12450749240E+03  0.80382934741E+02 0.  0.
         -6    2    1    2    0  503  0.58648663228E+02  0.23358863206E+03  0.53641897835E+02  0.30092374664E+03  0.17226239683E+03 0.  0.
        -24    2    5    5    0    0  0.95654671283E+02  0.22352083913E+03  0.59284527820E+02  0.26187589958E+03  0.77155361959E+02 0.  0.
          2    1    4    4  501    0 -0.41806488742E+01  0.15777659717E+02 -0.54458337405E+02  0.56851762366E+02  0.00000000000E+00 0. -1.
         -1    1    4    4    0  501 -0.33037887951E+02 -0.53784942022E+02 -0.24351093972E+02  0.67655730032E+02  0.00000000000E+00 0.  1.
          5    1    3    3  502    0 -0.21430126402E+02 -0.19558134976E+03 -0.10161166512E+03  0.22149116276E+03  0.47000000000E+01 0. -1.
         13    1    6    6    0    0  0.25061018229E+02  0.12277694440E+03 -0.26887592486E-01  0.12530855292E+03  0.00000000000E+00 0. -1.
        -14    1    6    6    0    0  0.70593653053E+02  0.10074389473E+03  0.59311415412E+02  0.13656734666E+03  0.00000000000E+00 0.  1.
         -5    1    5    5    0  503 -0.37006008055E+02  0.10067792933E+02 -0.56426299844E+01  0.39047847058E+02  0.47000000000E+01 0.  1.
<mgrwt>
<rscale>  2 0.29588643E+03</rscale>
<asrwt>0</asrwt>
<pdfrwt beam="1">  1       21 0.40011016E-01 0.29610412E+03</pdfrwt>
<pdfrwt beam="2">  1       21 0.59515507E-01 0.29610412E+03</pdfrwt>
<totfact> 0.15033242E+04</totfact>
</mgrwt>
</event>
<event>
12    1  0.1473662E-001  0.1770674E+03  0.7546771E-02  0.1170767E+00
         21   -1    0    0  504  503  0.00000000000E+00  0.00000000000E+00  0.35131511018E+03  0.35131511018E+03  0.00000000000E+00 0. -1.
         21   -1    0    0  502  504 -0.00000000000E+00 -0.00000000000E+00 -0.16185062430E+03  0.16185062430E+03  0.00000000000E+00 0.  1.
          6    2    1    2  502    0  0.16671628341E-01 -0.40576489889E+02 -0.77294341374E+02  0.19320271515E+03  0.17235551086E+03 0.  0.
         24    2    3    3    0    0  0.29269985516E+02  0.30323556952E+02 -0.11832533078E+02  0.92257624332E+02  0.81210899823E+02 0.  0.
         -6    2    1    2    0  503 -0.16671628341E-01  0.40576489889E+02  0.26675882725E+03  0.31996301933E+03  0.17195816356E+03 0.  0.
        -24    2    5    5    0    0 -0.49093484981E+02  0.50189363935E-01  0.85910725104E+02  0.12818439515E+03  0.81488733486E+02 0.  0.
          4    1    4    4  501    0  0.17836661079E+01  0.21144239315E+02  0.32786555551E+02  0.39054046473E+02  0.00000000000E+00 0. -1.
         -3    1    4    4    0  501  0.27486319408E+02  0.91793176372E+01 -0.44619088630E+02  0.53203577859E+02  0.00000000000E+00 0.  1.
          5    1    3    3  502    0 -0.29253313888E+02 -0.70900046841E+02 -0.65461808296E+02  0.10094509082E+03  0.47000000000E+01 0. -1.
         13    1    6    6    0    0 -0.28111730589E+02  0.40608835572E+02  0.42003255911E+02  0.64835333194E+02  0.00000000000E+00 0. -1.
        -14    1    6    6    0    0 -0.20981754392E+02 -0.40558646208E+02  0.43907469194E+02  0.63349061955E+02  0.00000000000E+00 0.  1.
         -5    1    5    5    0  503  0.49076813353E+02  0.40526300525E+02  0.18084810215E+03  0.19177862419E+03  0.47000000000E+01 0.  1.
<mgrwt>
<rscale>  2 0.17697066E+03</rscale>
<asrwt>0</asrwt>
<pdfrwt beam="1">  1       21 0.54048478E-01 0.17706743E+03</pdfrwt>
<pdfrwt beam="2">  1       21 0.24900096E-01 0.17706743E+03</pdfrwt>
<totfact> 0.49763733E+04</totfact>
</mgrwt>
</event>
<event>
12    1  0.1473662E-001  0.1760200E+03  0.7546771E-02  0.1171980E+00
         21   -1    0    0  504  503  0.00000000000E+00  0.00000000000E+00  0.13428040088E+03  0.13428040088E+03  0.00000000000E+00 0. -1.
         21   -1    0    0  502  504 -0.00000000000E+00 -0.00000000000E+00 -0.37122521599E+03  0.37122521599E+03  0.00000000000E+00 0. -1.
          6    2    1    2  502    0 -0.28179248348E+02 -0.67712879299E+01 -0.27496050220E+03  0.32647560233E+03  0.17361774324E+03 0.  0.
         24    2    3    3    0    0  0.34520517523E+02 -0.10315367658E+02 -0.72797537072E+02  0.11473100237E+03  0.81028689739E+02 0.  0.
         -6    2    1    2    0  503  0.28179248348E+02  0.67712879299E+01  0.38015687099E+02  0.17903001454E+03  0.17253009379E+03 0.  0.
        -24    2    5    5    0    0 -0.38550714867E+02 -0.31795753492E+02  0.36160163724E+02  0.10179117948E+03  0.80973818132E+02 0.  0.
          2    1    4    4  501    0  0.25916601190E+02 -0.42534049187E+02 -0.62315027806E+02  0.79774546367E+02  0.00000000000E+00 0. -1.
         -1    1    4    4    0  501  0.86039163327E+01  0.32218681529E+02 -0.10482509265E+02  0.34956456002E+02  0.00000000000E+00 0.  1.
          5    1    3    3  502    0 -0.62699765872E+02  0.35440797278E+01 -0.20216296513E+03  0.21174459996E+03  0.47000000000E+01 0. -1.
         13    1    6    6    0    0 -0.43000521030E+02 -0.34715558353E+02  0.57526690417E+02  0.79771767631E+02  0.00000000000E+00 0. -1.
        -14    1    6    6    0    0  0.44498061628E+01  0.29198048610E+01 -0.21366526693E+02  0.22019411851E+02  0.00000000000E+00 0.  1.
         -5    1    5    5    0  503  0.66729963216E+02  0.38567041422E+02  0.18555233746E+01  0.77238835062E+02  0.47000000000E+01 0.  1.
<mgrwt>
<rscale>  2 0.17575121E+03</rscale>
<asrwt>0</asrwt>
<pdfrwt beam="1">  1       21 0.20658523E-01 0.17602000E+03</pdfrwt>
<pdfrwt beam="2">  1       21 0.57111572E-01 0.17602000E+03</pdfrwt>
<totfact> 0.63025853E+04</totfact>
</mgrwt>
</event>
<event>
12    1  0.1473662E-001  0.1810535E+03  0.7546771E-02  0.1166802E+00
         21   -1    0    0  504  503  0.00000000000E+00  0.00000000000E+00  0.11933831546E+04  0.11933831546E+04  0.00000000000E+00 0. -1.
         21   -1    0    0  502  504 -0.00000000000E+00 -0.00000000000E+00 -0.57572754087E+02  0.57572754087E+02  0.00000000000E+00 0. -1.
          6    2    1    2  502    0  0.21624854071E+02 -0.44855424188E+02  0.11558963939E+03  0.21480534056E+03  0.17407103781E+03 0.  0.
         24    2    3    3    0    0  0.74158142234E+02 -0.30342321565E+02  0.36965760009E+02  0.11902339590E+03  0.79874994967E+02 0.  0.
         -6    2    1    2    0  503 -0.21624854071E+02  0.44855424188E+02  0.10202207611E+04  0.10361505681E+04  0.17400561778E+03 0.  0.
        -24    2    5    5    0    0 -0.57188104456E+02  0.66256343609E+02  0.48910100508E+03  0.50339074477E+03  0.80759311473E+02 0.  0.
          4    1    4    4  501    0  0.46179071931E+02 -0.56791696892E+02  0.15074477906E+02  0.74733147963E+02  0.00000000000E+00 0. -1.
         -3    1    4    4    0  501  0.27979070303E+02  0.26449375327E+02  0.21891282103E+02  0.44290247937E+02  0.00000000000E+00 0.  1.
          5    1    3    3  502    0 -0.52533288163E+02 -0.14513102623E+02  0.78623879383E+02  0.95781944657E+02  0.47000000000E+01 0. -1.
         11    1    6    6    0    0 -0.48577859972E+02  0.78119429526E+02  0.30159236443E+03  0.31531001892E+03  0.00000000000E+00 0. -1.
        -12    1    6    6    0    0 -0.86102444844E+01 -0.11863085917E+02  0.18750864065E+03  0.18808072585E+03  0.00000000000E+00 0.  1.
         -5    1    5    5    0  503  0.35563250386E+02 -0.21400919421E+02  0.53111975602E+03  0.53275982334E+03  0.47000000000E+01 0.  1.
<mgrwt>
<rscale>  2 0.18103777E+03</rscale>
<asrwt>0</asrwt>
<pdfrwt beam="1">  1       21 0.18359739E+00 0.18105350E+03</pdfrwt>
<pdfrwt beam="2">  1       21 0.88573477E-02 0.18105350E+03</pdfrwt>
<totfact> 0.17435046E+04</totfact>
</mgrwt>
</event>
<event>
12    1  0.1473662E-001  0.1923261E+03  0.7546771E-02  0.1157971E+00
         21   -1    0    0  504  503  0.00000000000E+00  0.00000000000E+00  0.16895446468E+04  0.16895446468E+04  0.00000000000E+00 0. -1.
         21   -1    0    0  502  504 -0.00000000000E+00 -0.00000000000E+00 -0.62343980076E+02  0.62343980076E+02  0.00000000000E+00 0. -1.
          6    2    1    2  502    0 -0.68731000277E+02  0.39775288633E+02  0.96062483750E+02  0.20871868279E+03  0.16742002203E+03 0.  0.
         24    2    3    3    0    0  0.16379779151E+02  0.97943855715E+01  0.78105360255E+02  0.11659242374E+03  0.84434109333E+02 0.  0.
         -6    2    1    2    0  503  0.68731000277E+02 -0.39775288633E+02  0.15311381829E+04  0.15431699440E+04  0.17516654069E+03 0.  0.
        -24    2    5    5    0    0  0.17627822942E+02  0.42235687176E+02  0.89263533853E+03  0.89737949259E+03  0.79984452875E+02 0.  0.
          4    1    4    4  501    0 -0.13827679079E+02  0.36301804115E+02  0.62276500307E+02  0.73398829563E+02  0.00000000000E+00 0. -1.
         -3    1    4    4    0  501  0.30207458229E+02 -0.26507418544E+02  0.15828859948E+02  0.43193594175E+02  0.00000000000E+00 0.  1.
          5    1    3    3  502    0 -0.85110779427E+02  0.29980903061E+02  0.17957123495E+02  0.92126259054E+02  0.47000000000E+01 0. -1.
         13    1    6    6    0    0 -0.88323866264E+01  0.39731204173E+01  0.11576926872E+02  0.15093772728E+02  0.00000000000E+00 0. -1.
        -14    1    6    6    0    0  0.26460209569E+02  0.38262566759E+02  0.88105841166E+03  0.88228571986E+03  0.00000000000E+00 0.  1.
         -5    1    5    5    0  503  0.51103177334E+02 -0.82010975809E+02  0.63850284440E+03  0.64579045145E+03  0.47000000000E+01 0.  1.
<mgrwt>
<rscale>  2 0.19054459E+03</rscale>
<asrwt>0</asrwt>
<pdfrwt beam="1">  1       21 0.25992991E+00 0.19232613E+03</pdfrwt>
<pdfrwt beam="2">  1       21 0.95913828E-02 0.19232613E+03</pdfrwt>
<totfact> 0.50819075E+03</totfact>
</mgrwt>
</event>
<event>
12    1  0.1473662E-001  0.3105939E+03  0.7546771E-02  0.1080166E+00
         21   -1    0    0  504  503  0.00000000000E+00  0.00000000000E+00  0.13784054074E+04  0.13784054074E+04  0.00000000000E+00 0. -1.
         21   -1    0    0  502  504 -0.00000000000E+00 -0.00000000000E+00 -0.75375422371E+02  0.75375422371E+02  0.00000000000E+00 0.  1.
          6    2    1    2  502    0  0.13788549640E+03 -0.21701461042E+03  0.45448520383E+03  0.55047737661E+03  0.17424348024E+03 0.  0.
         24    2    3    3    0    0  0.77907708833E+02 -0.21532993920E+03  0.40593564211E+03  0.47315129394E+03  0.81558614558E+02 0.  0.
         -6    2    1    2    0  503 -0.13788549640E+03  0.21701461042E+03  0.84854478123E+03  0.90330345320E+03  0.17268796006E+03 0.  0.
        -24    2    5    5    0    0 -0.10457395916E+03  0.23604104150E+03  0.72336964485E+03  0.77229746722E+03  0.80800053105E+02 0.  0.
          4    1    4    4  501    0  0.64757550237E+01 -0.68721579004E+02  0.19277141408E+03  0.20475695083E+03  0.00000000000E+00 0. -1.
         -3    1    4    4    0  501  0.71431953809E+02 -0.14660836019E+03  0.21316422803E+03  0.26839434311E+03  0.00000000000E+00 0.  1.
          5    1    3    3  502    0  0.59977787563E+02 -0.16846712198E+01  0.48549561724E+02  0.77326082673E+02  0.47000000000E+01 0. -1.
         11    1    6    6    0    0 -0.73289277269E+02  0.19023486145E+03  0.64375945194E+03  0.67526798579E+03  0.00000000000E+00 0. -1.
        -12    1    6    6    0    0 -0.31284681886E+02  0.45806180051E+02  0.79610192912E+02  0.97029481433E+02  0.00000000000E+00 0.  1.
         -5    1    5    5    0  503 -0.33311537240E+02 -0.19026431082E+02  0.12517513639E+03  0.13100598598E+03  0.47000000000E+01 0.  1.
<mgrwt>
<rscale>  2 0.31037613E+03</rscale>
<asrwt>0</asrwt>
<pdfrwt beam="1">  1       21 0.21206235E+00 0.31059385E+03</pdfrwt>
<pdfrwt beam="2">  1       21 0.11596220E-01 0.31059385E+03</pdfrwt>
<totfact> 0.64496921E+03</totfact>
</mgrwt>
</event>
<event>
12    1  0.1473662E-001  0.1983739E+03  0.7546771E-02  0.1151196E+00
         21   -1    0    0  504  503  0.00000000000E+00  0.00000000000E+00  0.38842710637E+02  0.38842710637E+02  0.00000000000E+00 0. -1.
         21   -1    0    0  502  504 -0.00000000000E+00 -0.00000000000E+00 -0.11111050968E+04  0.11111050968E+04  0.00000000000E+00 0. -1.
          6    2    1    2  502    0  0.79324366128E+02  0.56437335428E+02 -0.36332734793E+03  0.41378131825E+03  0.17242589621E+03 0.  0.
         24    2    3    3    0    0  0.10847384501E+03  0.15938590182E+02 -0.30774324631E+03  0.33893799631E+03  0.90290896471E+02 0.  0.
         -6    2    1    2    0  503 -0.79324366128E+02 -0.56437335428E+02 -0.70893503823E+03  0.73616648919E+03  0.17284294456E+03 0.  0.
        -24    2    5    5    0    0 -0.59456345155E+01 -0.78202616991E+02 -0.52578889760E+03  0.53761482196E+03  0.80154426389E+02 0.  0.
          4    1    4    4  501    0  0.76927289445E+02  0.46748882567E+02 -0.14805279293E+03  0.17327116141E+03  0.00000000000E+00 0. -1.
         -3    1    4    4    0  501  0.31546555565E+02 -0.30810292384E+02 -0.15969045338E+03  0.16566683490E+03  0.00000000000E+00 0.  1.
          5    1    3    3  502    0 -0.29149478882E+02  0.40498745246E+02 -0.55584101630E+02  0.74843321944E+02  0.47000000000E+01 0. -1.
         13    1    6    6    0    0 -0.40078132234E+02 -0.62326729825E+02 -0.36943102706E+03  0.37678928022E+03  0.00000000000E+00 0. -1.
        -14    1    6    6    0    0  0.34132497719E+02 -0.15875887166E+02 -0.15635787054E+03  0.16082554174E+03  0.00000000000E+00 0.  1.
         -5    1    5    5    0  503 -0.73378731613E+02  0.21765281562E+02 -0.18314614062E+03  0.19855166723E+03  0.47000000000E+01 0.  1.
<mgrwt>
<rscale>  2 0.19828304E+03</rscale>
<asrwt>0</asrwt>
<pdfrwt beam="1">  1       21 0.59758025E-02 0.19837392E+03</pdfrwt>
<pdfrwt beam="2">  1       21 0.17093922E+00 0.19837392E+03</pdfrwt>
<totfact> 0.41579351E+04</totfact>
</mgrwt>
</event>
<event>
12    1  0.1473662E-001  0.1848042E+03  0.7546771E-02  0.1163331E+00
         21   -1    0    0  504  503  0.00000000000E+00  0.00000000000E+00  0.66655336030E+03  0.66655336030E+03  0.00000000000E+00 0. -1.
         21   -1    0    0  502  504 -0.00000000000E+00 -0.00000000000E+00 -0.66176414780E+02  0.66176414780E+02  0.00000000000E+00 0.  1.
          6    2    1    2  502    0 -0.63626479068E+02 -0.34205112979E+01  0.12518040842E+03  0.22286278179E+03  0.17302501587E+03 0.  0.
         24    2    3    3    0    0 -0.18904170947E+02  0.19672394137E+01  0.14977650642E+03  0.17132473043E+03  0.80981008090E+02 0.  0.
         -6    2    1    2    0  503  0.63626479068E+02  0.34205112979E+01  0.47519653710E+03  0.50986699329E+03  0.17347211085E+03 0.  0.
        -24    2    5    5    0    0 -0.46955095297E+01  0.46594149430E+02  0.33601176678E+03  0.34885038718E+03  0.81238061586E+02 0.  0.
          4    1    4    4  501    0  0.29116621470E+02  0.12217764713E+02  0.39197219181E+02  0.50333621089E+02  0.00000000000E+00 0. -1.
         -3    1    4    4    0  501 -0.48020792417E+02 -0.10250525299E+02  0.11057928724E+03  0.12099110934E+03  0.00000000000E+00 0.  1.
          5    1    3    3  502    0 -0.44722308121E+02 -0.53877507115E+01 -0.24596097995E+02  0.51538051360E+02  0.47000000000E+01 0. -1.
         13    1    6    6    0    0  0.35309260080E+02  0.47793200927E+01  0.14109552989E+03  0.14552502982E+03  0.00000000000E+00 0. -1.
        -14    1    6    6    0    0 -0.40004769609E+02  0.41814829337E+02  0.19491623688E+03  0.20332535736E+03  0.00000000000E+00 0.  1.
         -5    1    5    5    0  503  0.68321988598E+02 -0.43173638132E+02  0.13918477032E+03  0.16101660612E+03  0.47000000000E+01 0.  1.
<mgrwt>
<rscale>  2 0.18469923E+03</rscale>
<asrwt>0</asrwt>
<pdfrwt beam="1">  1       21 0.10254667E+00 0.18480423E+03</pdfrwt>
<pdfrwt beam="2">  1       21 0.10180987E-01 0.18480423E+03</pdfrwt>
<totfact> 0.61008784E+04</totfact>
</mgrwt>
</event>
<event>
12    1  0.1473662E-001  0.1992804E+03  0.7546771E-02  0.1150571E+00
         21   -1    0    0  504  503  0.00000000000E+00  0.00000000000E+00  0.15613569161E+04  0.15613569161E+04  0.00000000000E+00 0. -1.
         21   -1    0    0  502  504 -0.00000000000E+00 -0.00000000000E+00 -0.25410055942E+02  0.25410055942E+02  0.00000000000E+00 0. -1.
          6    2    1    2  502    0 -0.11867144881E+02 -0.98319794856E+02  0.71789884033E+03  0.74504456787E+03  0.17293077224E+03 0.  0.
         24    2    3    3    0    0 -0.67050121231E+02 -0.33807329410E+02  0.33666737049E+03  0.35444689421E+03  0.81541573348E+02 0.  0.
         -6    2    1    2    0  503  0.11867144881E+02  0.98319794856E+02  0.81804801979E+03  0.84172240413E+03  0.17171613710E+03 0.  0.
        -24    2    5    5    0    0  0.56783754121E+02  0.11414382604E+03  0.61424276023E+03  0.63237442689E+03  0.79687135311E+02 0.  0.
          2    1    4    4  501    0 -0.18257235564E+01 -0.46237194205E+01 -0.39910358987E+01  0.63749835552E+01  0.00000000000E+00 0. -1.
         -1    1    4    4    0  501 -0.65224397675E+02 -0.29183609989E+02  0.34065840639E+03  0.34807191066E+03  0.00000000000E+00 0.  1.
          5    1    3    3  502    0  0.55182976350E+02 -0.64512465446E+02  0.38123146984E+03  0.39059767366E+03  0.47000000000E+01 0. -1.
         11    1    6    6    0    0  0.39427328166E+02  0.11184130021E+03  0.59349370090E+03  0.60522538252E+03  0.00000000000E+00 0. -1.
        -12    1    6    6    0    0  0.17356425955E+02  0.23025258323E+01  0.20749059333E+02  0.27149044373E+02  0.00000000000E+00 0.  1.
         -5    1    5    5    0  503 -0.44916609240E+02 -0.15824031189E+02  0.20380525956E+03  0.20934797723E+03  0.47000000000E+01 0.  1.
<mgrwt>
<rscale>  2 0.19901656E+03</rscale>
<asrwt>0</asrwt>
<pdfrwt beam="1">  1       21 0.24020868E+00 0.19928036E+03</pdfrwt>
<pdfrwt beam="2">  1       21 0.39092406E-02 0.19928036E+03</pdfrwt>
<totfact> 0.30773046E+04</totfact>
</mgrwt>
</event>
<event>
12    1  0.1473662E-001  0.2364171E+03  0.7546771E-02  0.1123273E+00
         21   -1    0    0  504  503  0.00000000000E+00  0.00000000000E+00  0.80501190487E+03  0.80501190487E+03  0.00000000000E+00 0.  1.
         21   -1    0    0  502  504 -0.00000000000E+00 -0.00000000000E+00 -0.88263394277E+02  0.88263394277E+02  0.00000000000E+00 0. -1.
          6    2    1    2  502    0 -0.13704537267E+03 -0.66032869406E+02  0.14603727630E+03  0.27788476302E+03  0.18097315115E+03 0.  0.
         24    2    3    3    0    0 -0.11484876755E+03 -0.74178010797E+01  0.28358552866E+02  0.14447266663E+03  0.82600730649E+02 0.  0.
         -6    2    1    2    0  503  0.13704537267E+03  0.66032869406E+02  0.57071123429E+03  0.61539053612E+03  0.17277854319E+03 0.  0.
        -24    2    5    5    0    0  0.64791256916E+02  0.10079060234E+03  0.29994289190E+03  0.33296117772E+03  0.80874934170E+02 0.  0.
          2    1    4    4  501    0 -0.15212203132E+02  0.27445788872E+02 -0.87554747184E+01  0.32578225680E+02  0.00000000000E+00 0. -1.
         -1    1    4    4    0  501 -0.99636564416E+02 -0.34863589952E+02  0.37114027584E+02  0.11189444095E+03  0.00000000000E+00 0.  1.
          5    1    3    3  502    0 -0.22196605123E+02 -0.58615068327E+02  0.11767872343E+03  0.13341209639E+03  0.47000000000E+01 0. -1.
         11    1    6    6    0    0 -0.13359409097E+02  0.46325287575E+02  0.82250069488E+02  0.95339288917E+02  0.00000000000E+00 0. -1.
        -12    1    6    6    0    0  0.78150666013E+02  0.54465314768E+02  0.21769282241E+03  0.23762188880E+03  0.00000000000E+00 0.  1.
         -5    1    5    5    0  503  0.72254115755E+02 -0.34757732937E+02  0.27076834240E+03  0.28242935840E+03  0.47000000000E+01 0.  1.
<mgrwt>
<rscale>  2 0.23484847E+03</rscale>
<asrwt>0</asrwt>
<pdfrwt beam="1">  1       21 0.12384798E+00 0.23641712E+03</pdfrwt>
<pdfrwt beam="2">  1       21 0.13578984E-01 0.23641712E+03</pdfrwt>
<totfact> 0.22355965E+04</totfact>
</mgrwt>
</event>
<event>
12    1  0.1473662E-001  0.1824902E+03  0.7546771E-02  0.1166349E+00
         21   -1    0    0  504  503  0.00000000000E+00  0.00000000000E+00  0.30123322572E+03  0.30123322572E+03  0.00000000000E+00 0.  1.
         21   -1    0    0  502  504 -0.00000000000E+00 -0.00000000000E+00 -0.11215094823E+03  0.11215094823E+03  0.00000000000E+00 0.  1.
          6    2    1    2  502    0  0.90865516116E+01 -0.44736203468E+02  0.13426110380E+03  0.22655838326E+03  0.17668832364E+03 0.  0.
         24    2    3    3    0    0  0.42266766542E+02 -0.46166855777E+02  0.15400046005E+02  0.10305528820E+03  0.80407542453E+02 0.  0.
         -6    2    1    2    0  503 -0.90865516116E+01  0.44736203468E+02  0.54821173685E+02  0.18682579068E+03  0.17266911032E+03 0.  0.
        -24    2    5    5    0    0 -0.44151110988E+02 -0.25483622025E+02  0.96389367353E+01  0.96140225387E+02  0.80940090457E+02 0.  0.
          2    1    4    4  501    0  0.38866527898E+02 -0.54745881313E+02 -0.17089662526E+02  0.69280409040E+02  0.00000000000E+00 0. -1.
         -1    1    4    4    0  501  0.34002386442E+01  0.85790255353E+01  0.32489708532E+02  0.33774879162E+02  0.00000000000E+00 0.  1.
          5    1    3    3  502    0 -0.33180214930E+02  0.14306523092E+01  0.11886105780E+03  0.12350309506E+03  0.47000000000E+01 0. -1.
         13    1    6    6    0    0 -0.59526854801E+02 -0.18468390870E+02  0.30420776398E+02  0.69353814174E+02  0.00000000000E+00 0. -1.
        -14    1    6    6    0    0  0.15375743812E+02 -0.70152311550E+01 -0.20781839663E+02  0.26786411214E+02  0.00000000000E+00 0.  1.
         -5    1    5    5    0  503  0.35064559377E+02  0.70219825493E+02  0.45182236950E+02  0.90685565292E+02  0.47000000000E+01 0.  1.
<mgrwt>
<rscale>  2 0.18151014E+03</rscale>
<asrwt>0</asrwt>
<pdfrwt beam="1">  1       21 0.46343573E-01 0.18249016E+03</pdfrwt>
<pdfrwt beam="2">  1       21 0.17253992E-01 0.18249016E+03</pdfrwt>
<totfact> 0.13586286E+05</totfact>
</mgrwt>
</event>
<event>
12    1  0.1473662E-001  0.2275000E+03  0.7546771E-02  0.1128434E+00
         21   -1    0    0  504  503  0.00000000000E+00  0.00000000000E+00  0.22095649022E+03  0.22095649022E+03  0.00000000000E+00 0.  1.
         21   -1    0    0  502  504 -0.00000000000E+00 -0.00000000000E+00 -0.24295979329E+03  0.24295979329E+03  0.00000000000E+00 0. -1.
          6    2    1    2  502    0  0.19164486531E+02  0.14586907097E+03 -0.55273583184E+02  0.23411836945E+03  0.17352572866E+03 0.  0.
         24    2    3    3    0    0  0.53503033747E+02  0.11447027704E+03  0.14301956521E+02  0.15028600214E+03  0.80095677358E+02 0.  0.
         -6    2    1    2    0  503 -0.19164486531E+02 -0.14586907097E+03  0.33270280111E+02  0.22979791406E+03  0.17336408612E+03 0.  0.
        -24    2    5    5    0    0 -0.21600095850E+02 -0.17432636484E+03  0.14893143508E+02  0.19551148938E+03  0.84538104650E+02 0.  0.
          4    1    4    4  501    0  0.32417011597E+01  0.95596940036E+02  0.48701605033E+01  0.95775790438E+02  0.00000000000E+00 0. -1.
         -3    1    4    4    0  501  0.50261332587E+02  0.18873337005E+02  0.94317960175E+01  0.54510211697E+02  0.00000000000E+00 0.  1.
          5    1    3    3  502    0 -0.34338547216E+02  0.31398793930E+02 -0.69575539705E+02  0.83832367319E+02  0.47000000000E+01 0. -1.
         13    1    6    6    0    0  0.12153703228E+02 -0.28855813363E+02 -0.25977828307E+02  0.40684370839E+02  0.00000000000E+00 0. -1.
        -14    1    6    6    0    0 -0.33753799078E+02 -0.14547055148E+03  0.40870971816E+02  0.15482711854E+03  0.00000000000E+00 0.  1.
         -5    1    5    5    0  503  0.24356093190E+01  0.28457293872E+02  0.18377136603E+02  0.34286424675E+02  0.47000000000E+01 0.  1.
<mgrwt>
<rscale>  2 0.22746916E+03</rscale>
<asrwt>0</asrwt>
<pdfrwt beam="1">  1       21 0.33993306E-01 0.22749998E+03</pdfrwt>
<pdfrwt beam="2">  1       21 0.37378430E-01 0.22749998E+03</pdfrwt>
<totfact> 0.56658044E+04</totfact>
</mgrwt>
</event>
<event>
12    1  0.1473662E-001  0.1878127E+03  0.7546771E-02  0.1160919E+00
         21   -1    0    0  504  503  0.00000000000E+00  0.00000000000E+00  0.28592496891E+03  0.28592496891E+03  0.00000000000E+00 0.  1.
         21   -1    0    0  502  504 -0.00000000000E+00 -0.00000000000E+00 -0.33467126912E+03  0.33467126912E+03  0.00000000000E+00 0.  1.
          6    2    1    2  502    0 -0.58620302134E+02 -0.44419940672E+02 -0.27166245957E+03  0.32910829063E+03  0.17059397430E+03 0.  0.
         24    2    3    3    0    0 -0.26733417106E+02 -0.79472713393E+02 -0.25189524141E+03  0.27754955494E+03  0.80944147633E+02 0.  0.
         -6    2    1    2    0  503  0.58620302134E+02  0.44419940672E+02  0.22291615936E+03  0.29148794740E+03  0.17281243712E+03 0.  0.
        -24    2    5    5    0    0  0.10541506136E+03  0.25773893737E+02  0.17859771061E+03  0.22422994076E+03  0.81272968044E+02 0.  0.
          4    1    4    4  501    0  0.25662677636E+02 -0.50547407343E+02 -0.12119454161E+03  0.13379734799E+03  0.00000000000E+00 0. -1.
         -3    1    4    4    0  501 -0.52396094742E+02 -0.28925306050E+02 -0.13070069980E+03  0.14375220695E+03  0.00000000000E+00 0.  1.
          5    1    3    3  502    0 -0.31886885028E+02  0.35052772721E+02 -0.19767218162E+02  0.51558735691E+02  0.47000000000E+01 0. -1.
         13    1    6    6    0    0  0.62056623268E+02  0.43413398441E+02  0.59654732822E+02  0.96407649093E+02  0.00000000000E+00 0. -1.
        -14    1    6    6    0    0  0.43358438097E+02 -0.17639504704E+02  0.11894297779E+03  0.12782229166E+03  0.00000000000E+00 0.  1.
         -5    1    5    5    0  503 -0.46794759231E+02  0.18646046935E+02  0.44318448749E+02  0.67258006641E+02  0.47000000000E+01 0.  1.
<mgrwt>
<rscale>  2 0.18730080E+03</rscale>
<asrwt>0</asrwt>
<pdfrwt beam="1">  1       21 0.43988457E-01 0.18781270E+03</pdfrwt>
<pdfrwt beam="2">  1       21 0.51487887E-01 0.18781270E+03</pdfrwt>
<totfact> 0.17845884E+04</totfact>
</mgrwt>
</event>
<event>
12    1  0.1473662E-001  0.1767075E+03  0.7546771E-02  0.1172056E+00
         21   -1    0    0  504  503  0.00000000000E+00  0.00000000000E+00  0.23079928895E+03  0.23079928895E+03  0.00000000000E+00 0.  1.
         21   -1    0    0  502  504 -0.00000000000E+00 -0.00000000000E+00 -0.25561434588E+03  0.25561434588E+03  0.00000000000E+00 0.  1.
          6    2    1    2  502    0  0.25844896068E+02 -0.25549571453E+02 -0.18148617614E+03  0.25330373563E+03  0.17293007576E+03 0.  0.
         24    2    3    3    0    0  0.46929045396E+02 -0.76696332861E+02 -0.11712095866E+03  0.16830077229E+03  0.80766132880E+02 0.  0.
         -6    2    1    2    0  503 -0.25844896068E+02  0.25549571453E+02  0.15667111922E+03  0.23310989920E+03  0.16874135905E+03 0.  0.
        -24    2    5    5    0    0 -0.48060077044E+02 -0.39546005436E+02  0.10409127514E+03  0.14640535261E+03  0.82011439204E+02 0.  0.
          2    1    4    4  501    0  0.14428581870E+02 -0.63029055313E+02 -0.24412664145E+02  0.69114571250E+02  0.00000000000E+00 0. -1.
         -1    1    4    4    0  501  0.32500463526E+02 -0.13667277548E+02 -0.92708294520E+02  0.99186201045E+02  0.00000000000E+00 0.  1.
          5    1    3    3  502    0 -0.21084149328E+02  0.51146761408E+02 -0.64365217478E+02  0.85002963339E+02  0.47000000000E+01 0. -1.
         11    1    6    6    0    0  0.18830366773E+02  0.32965004582E+01  0.56943804681E+01  0.19946819220E+02  0.00000000000E+00 0. -1.
        -12    1    6    6    0    0 -0.66890443817E+02 -0.42842505894E+02  0.98396894670E+02  0.12645853339E+03  0.00000000000E+00 0.  1.
         -5    1    5    5    0  503  0.22215180976E+02  0.65095576889E+02  0.52579844080E+02  0.86704546592E+02  0.47000000000E+01 0.  1.
<mgrwt>
<rscale>  2 0.17567424E+03</rscale>
<asrwt>0</asrwt>
<pdfrwt beam="1">  1       21 0.35507583E-01 0.17670753E+03</pdfrwt>
<pdfrwt beam="2">  1       21 0.39325284E-01 0.17670753E+03</pdfrwt>
<totfact> 0.48038706E+04</totfact>
</mgrwt>
</event>
<event>
12    1  0.1473662E-001  0.1990705E+03  0.7546771E-02  0.1150562E+00
         21   -1    0    0  504  503  0.00000000000E+00  0.00000000000E+00  0.54555900360E+02  0.54555900360E+02  0.00000000000E+00 0.  1.
         21   -1    0    0  502  504 -0.00000000000E+00 -0.00000000000E+00 -0.13632690241E+04  0.13632690241E+04  0.00000000000E+00 0.  1.
          6    2    1    2  502    0 -0.24042338306E+02 -0.95325630932E+02 -0.11392799742E+04  0.11565413621E+04  0.17310127896E+03 0.  0.
         24    2    3    3    0    0 -0.15634511108E+02 -0.55112913436E+02 -0.10795984090E+04  0.10839346584E+04  0.78100881940E+02 0.  0.
         -6    2    1    2    0  503  0.24042338306E+02  0.95325630932E+02 -0.16943314953E+03  0.26128356231E+03  0.17290603758E+03 0.  0.
        -24    2    5    5    0    0 -0.47737689659E+02  0.22884835140E+02 -0.93128093975E+02  0.13382928497E+03  0.80217410422E+02 0.  0.
          4    1    4    4  501    0  0.13249362891E+02  0.15331360337E+02 -0.18681487767E+03  0.18791060307E+03  0.00000000000E+00 0. -1.
         -3    1    4    4    0  501 -0.28883874000E+02 -0.70444273773E+02 -0.89278353130E+03  0.89602405528E+03  0.00000000000E+00 0.  1.
          5    1    3    3  502    0 -0.84078271976E+01 -0.40212717495E+02 -0.59681565240E+02  0.72606703796E+02  0.47000000000E+01 0. -1.
         13    1    6    6    0    0 -0.30024147988E+02 -0.67233746088E+01 -0.94416116125E+02  0.99302850979E+02  0.00000000000E+00 0. -1.
        -14    1    6    6    0    0 -0.17713541671E+02  0.29608209749E+02  0.12880221498E+01  0.34526433991E+02  0.00000000000E+00 0.  1.
         -5    1    5    5    0  503  0.71780027965E+02  0.72440795791E+02 -0.76305055552E+02  0.12745427734E+03  0.47000000000E+01 0.  1.
<mgrwt>
<rscale>  2 0.19902805E+03</rscale>
<asrwt>0</asrwt>
<pdfrwt beam="1">  1       21 0.83932156E-02 0.19907050E+03</pdfrwt>
<pdfrwt beam="2">  1       21 0.20973369E+00 0.19907050E+03</pdfrwt>
<totfact> 0.12788590E+04</totfact>
</mgrwt>
</event>
<event>
12    1  0.1473662E-001  0.2069097E+03  0.7546771E-02  0.1144226E+00
         21   -1    0    0  504  503  0.00000000000E+00  0.00000000000E+00  0.17689450056E+03  0.17689450056E+03  0.00000000000E+00 0.  1.
         21   -1    0    0  502  504 -0.00000000000E+00 -0.00000000000E+00 -0.40052131429E+03  0.40052131429E+03  0.00000000000E+00 0.  1.
          6    2    1    2  502    0 -0.56776610700E+02  0.97308240293E+02  0.70279426965E+02  0.21851961719E+03  0.17354869084E+03 0.  0.
         24    2    3    3    0    0 -0.79949610941E+02  0.12587341283E+03  0.57040532882E+02  0.17914557322E+03  0.81261661715E+02 0.  0.
         -6    2    1    2    0  503  0.56776610700E+02 -0.97308240293E+02 -0.29390624069E+03  0.35889619766E+03  0.17243295864E+03 0.  0.
        -24    2    5    5    0    0 -0.20314113097E+02 -0.57926898257E+02 -0.92843714858E+02  0.13993935467E+03  0.84822631799E+02 0.  0.
          2    1    4    4  501    0 -0.35921455731E+02  0.11615587090E+03  0.56461987084E+02  0.13405406861E+03  0.00000000000E+00 0. -1.
         -1    1    4    4    0  501 -0.44028155210E+02  0.97175419345E+01  0.57854579775E+00  0.45091504607E+02  0.00000000000E+00 0.  1.
          5    1    3    3  502    0  0.23173000240E+02 -0.28565172540E+02  0.13238894083E+02  0.39374043975E+02  0.47000000000E+01 0. -1.
         11    1    6    6    0    0  0.15615572347E+02 -0.53270588580E+02 -0.20767524318E+02  0.59269653058E+02  0.00000000000E+00 0. -1.
        -12    1    6    6    0    0 -0.35929685444E+02 -0.46563096770E+01 -0.72076190541E+02  0.80669701616E+02  0.00000000000E+00 0.  1.
         -5    1    5    5    0  503  0.77090723797E+02 -0.39381342036E+02 -0.20106252583E+03  0.21895684299E+03  0.47000000000E+01 0.  1.
<mgrwt>
<rscale>  2 0.20667557E+03</rscale>
<asrwt>0</asrwt>
<pdfrwt beam="1">  1       21 0.27214539E-01 0.20690970E+03</pdfrwt>
<pdfrwt beam="2">  1       21 0.61618664E-01 0.20690970E+03</pdfrwt>
<totfact> 0.31251866E+04</totfact>
</mgrwt>
</event>
<event>
12    1  0.1473662E-001  0.1814706E+03  0.7546771E-02  0.1166425E+00
         21   -1    0    0  504  503  0.00000000000E+00  0.00000000000E+00  0.24488121572E+03  0.24488121572E+03  0.00000000000E+00 0. -1.
         21   -1    0    0  502  504 -0.00000000000E+00 -0.00000000000E+00 -0.14156462881E+03  0.14156462881E+03  0.00000000000E+00 0. -1.
          6    2    1    2  502    0 -0.50592468299E+02  0.22228120961E+02  0.95216247940E+02  0.20479451092E+03  0.17268749411E+03 0.  0.
         24    2    3    3    0    0  0.32569965237E+02  0.96935971849E+01  0.13569248856E+02  0.87485401737E+02  0.79465731864E+02 0.  0.
         -6    2    1    2    0  503  0.50592468299E+02 -0.22228120961E+02  0.81003389703E+01  0.18165133360E+03  0.17285226148E+03 0.  0.
        -24    2    5    5    0    0  0.32851288825E+02 -0.45239242562E+02  0.64931953657E+02  0.11764989929E+03  0.80619749143E+02 0.  0.
          2    1    4    4  501    0  0.72533020962E+01 -0.57948099021E+01  0.44005617190E+02  0.44974265502E+02  0.00000000000E+00 0. -1.
         -1    1    4    4    0  501  0.25316663141E+02  0.15488407087E+02 -0.30436368334E+02  0.42511136236E+02  0.00000000000E+00 0.  1.
          5    1    3    3  502    0 -0.83162433536E+02  0.12534523776E+02  0.81646999084E+02  0.11730910918E+03  0.47000000000E+01 0. -1.
         11    1    6    6    0    0  0.22641911623E+02 -0.52604080503E+00 -0.13808804129E+02  0.26525760165E+02  0.00000000000E+00 0. -1.
        -12    1    6    6    0    0  0.10209377202E+02 -0.44713201757E+02  0.78740757786E+02  0.91124139123E+02  0.00000000000E+00 0.  1.
         -5    1    5    5    0  503  0.17741179474E+02  0.23011121601E+02 -0.56831614686E+02  0.64001434315E+02  0.47000000000E+01 0.  1.
<mgrwt>
<rscale>  2 0.18143139E+03</rscale>
<asrwt>0</asrwt>
<pdfrwt beam="1">  1       21 0.37674033E-01 0.18147064E+03</pdfrwt>
<pdfrwt beam="2">  1       21 0.21779174E-01 0.18147064E+03</pdfrwt>
<totfact> 0.13418293E+05</totfact>
</mgrwt>
</event>
<event>
12    1  0.1473662E-001  0.1912695E+03  0.7546771E-02  0.1161428E+00
         21   -1    0    0  504  503  0.00000000000E+00  0.00000000000E+00  0.86232615004E+03  0.86232615004E+03  0.00000000000E+00 0. -1.
         21   -1    0    0  502  504 -0.00000000000E+00 -0.00000000000E+00 -0.13438039105E+03  0.13438039105E+03  0.00000000000E+00 0. -1.
          6    2    1    2  502    0  0.81648061754E+02 -0.32367143910E+01 -0.61536666348E+02  0.18438486168E+03  0.15340838830E+03 0.  0.
         24    2    3    3    0    0  0.83126579451E+02 -0.49694397012E+02 -0.38491434215E+02  0.13229191577E+03  0.81486190025E+02 0.  0.
         -6    2    1    2    0  503 -0.81648061754E+02  0.32367143910E+01  0.78948242534E+03  0.81232167941E+03  0.17293677634E+03 0.  0.
        -24    2    5    5    0    0 -0.17349137571E+02  0.22221645902E+01  0.68178920622E+03  0.68680155988E+03  0.80956348387E+02 0.  0.
          4    1    4    4  501    0  0.53627959067E+02  0.13368419562E+02 -0.64255461816E+01  0.55641354037E+02  0.00000000000E+00 0. -1.
         -3    1    4    4    0  501  0.29498620384E+02 -0.63062816574E+02 -0.32065888033E+02  0.76650561734E+02  0.00000000000E+00 0.  1.
          5    1    3    3  502    0 -0.14785176971E+01  0.46457682621E+02 -0.23045232133E+02  0.52092945906E+02  0.47000000000E+01 0. -1.
         11    1    6    6    0    0 -0.28093798757E+02  0.78366392776E+01  0.66718075041E+03  0.66781796035E+03  0.00000000000E+00 0. -1.
        -12    1    6    6    0    0  0.10744661186E+02 -0.56144746873E+01  0.14608455806E+02  0.18983599529E+02  0.00000000000E+00 0.  1.
         -5    1    5    5    0  503 -0.64298924183E+02  0.10145498008E+01  0.10769321912E+03  0.12552011953E+03  0.47000000000E+01 0.  1.
<mgrwt>
<rscale>  2 0.18674755E+03</rscale>
<asrwt>0</asrwt>
<pdfrwt beam="1">  1       21 0.13266556E+00 0.19126947E+03</pdfrwt>
<pdfrwt beam="2">  1       21 0.20673907E-01 0.19126947E+03</pdfrwt>
<totfact> 0.89182627E+03</totfact>
</mgrwt>
</event>
<event>
12    1  0.1473662E-001  0.1753075E+03  0.7546771E-02  0.1172531E+00
         21   -1    0    0  504  503  0.00000000000E+00  0.00000000000E+00  0.79758260036E+02  0.79758260036E+02  0.00000000000E+00 0. -1.
         21   -1    0    0  502  504 -0.00000000000E+00 -0.00000000000E+00 -0.48178603716E+03  0.48178603716E+03  0.00000000000E+00 0. -1.
          6    2    1    2  502    0  0.79018931239E+01 -0.30182068554E+02 -0.74574473224E+02  0.19011681514E+03  0.17207455990E+03 0.  0.
         24    2    3    3    0    0  0.10611797927E+02  0.44841381348E+02 -0.15128400475E+02  0.94243006495E+02  0.80805420833E+02 0.  0.
         -6    2    1    2    0  503 -0.79018931239E+01  0.30182068554E+02 -0.32745330390E+03  0.37142748206E+03  0.17250887227E+03 0.  0.
        -24    2    5    5    0    0 -0.60126074521E+02 -0.91328289689E+00 -0.10542257289E+03  0.14117974261E+03  0.72123657192E+02 0.  0.
          2    1    4    4  501    0  0.30348087870E+02  0.25712445972E+02 -0.40551463521E+02  0.56802794904E+02  0.00000000000E+00 0. -1.
         -1    1    4    4    0  501 -0.19736289944E+02  0.19128935376E+02  0.25423063046E+02  0.37440211591E+02  0.00000000000E+00 0.  1.
          5    1    3    3  502    0 -0.27099048029E+01 -0.75023449902E+02 -0.59446072749E+02  0.95873808647E+02  0.47000000000E+01 0. -1.
         11    1    6    6    0    0 -0.62708472578E+01 -0.29105634238E+02 -0.53537262567E+02  0.61259284626E+02  0.00000000000E+00 0. -1.
        -12    1    6    6    0    0 -0.53855227263E+02  0.28192351341E+02 -0.51885310323E+02  0.79920457988E+02  0.00000000000E+00 0.  1.
         -5    1    5    5    0  503  0.52224181397E+02  0.31095351451E+02 -0.22203073101E+03  0.23024773944E+03  0.47000000000E+01 0.  1.
<mgrwt>
<rscale>  2 0.17520053E+03</rscale>
<asrwt>0</asrwt>
<pdfrwt beam="1">  1       21 0.12270502E-01 0.17530747E+03</pdfrwt>
<pdfrwt beam="2">  1       21 0.74120929E-01 0.17530747E+03</pdfrwt>
<totfact> 0.92684949E+04</totfact>
</mgrwt>
</event>
<event>
12    1  0.1473662E-001  0.2360671E+03  0.7546771E-02  0.1122453E+00
         21   -1    0    0  504  503  0.00000000000E+00  0.00000000000E+00  0.28647236000E+03  0.28647236000E+03  0.00000000000E+00 0.  1.
         21   -1    0    0  502  504 -0.00000000000E+00 -0.00000000000E+00 -0.12754482035E+04  0.12754482035E+04  0.00000000000E+00 0.  1.
          6    2    1    2  502    0  0.12016738572E+03  0.10616196644E+03 -0.12134379483E+04  0.12361738428E+04  0.17315759106E+03 0.  0.
         24    2    3    3    0    0  0.12258181466E+03  0.13187279069E+03 -0.89195500915E+03  0.91362113987E+03  0.81872551333E+02 0.  0.
         -6    2    1    2    0  503 -0.12016738572E+03 -0.10616196644E+03  0.22446210483E+03  0.32574672076E+03  0.17325451183E+03 0.  0.
        -24    2    5    5    0    0  0.81409741436E+01 -0.32185845564E+02  0.10351494453E+03  0.13447255299E+03  0.79153772188E+02 0.  0.
          2    1    4    4  501    0  0.99960841220E+02  0.12411960891E+03 -0.60386696799E+03  0.62454236215E+03  0.00000000000E+00 0. -1.
         -1    1    4    4    0  501  0.22620973435E+02  0.77531817721E+01 -0.28808804116E+03  0.28907877772E+03  0.00000000000E+00 0.  1.
          5    1    3    3  502    0 -0.24144289353E+01 -0.25710824249E+02 -0.32148293919E+03  0.32255270289E+03  0.47000000000E+01 0. -1.
         13    1    6    6    0    0 -0.30392606837E+02  0.33883089853E+01  0.22506821246E+02  0.37970359370E+02  0.00000000000E+00 0. -1.
        -14    1    6    6    0    0  0.38533580981E+02 -0.35574154549E+02  0.81008123287E+02  0.96502193620E+02  0.00000000000E+00 0.  1.
         -5    1    5    5    0  503 -0.12830835986E+03 -0.73976120873E+02  0.12094716030E+03  0.19127416776E+03  0.47000000000E+01 0.  1.
<mgrwt>
<rscale>  2 0.23604935E+03</rscale>
<asrwt>0</asrwt>
<pdfrwt beam="1">  1       21 0.44072671E-01 0.23606713E+03</pdfrwt>
<pdfrwt beam="2">  1       21 0.19622280E+00 0.23606713E+03</pdfrwt>
<totfact> 0.67028063E+02</totfact>
</mgrwt>
</event>
<event>
12    1  0.1473662E-001  0.2890478E+03  0.7546771E-02  0.1090952E+00
         21   -1    0    0  504  503  0.00000000000E+00  0.00000000000E+00  0.48564286726E+02  0.48564286726E+02  0.00000000000E+00 0. -1.
         21   -1    0    0  502  504 -0.00000000000E+00 -0.00000000000E+00 -0.18707220651E+04  0.18707220651E+04  0.00000000000E+00 0. -1.
          6    2    1    2  502    0  0.14017574772E+03  0.18426292357E+03 -0.11862248105E+04  0.12207454844E+04  0.17172120203E+03 0.  0.
         24    2    3    3    0    0  0.12207985197E+03  0.54032799257E+02 -0.66947485112E+03  0.68751011676E+03  0.81550908664E+02 0.  0.
         -6    2    1    2    0  503 -0.14017574772E+03 -0.18426292357E+03 -0.63593296780E+03  0.69854086741E+03  0.17305068236E+03 0.  0.
        -24    2    5    5    0    0 -0.14675843898E+03 -0.17014347377E+03 -0.63892234885E+03  0.68199646999E+03  0.80066073581E+02 0.  0.
          2    1    4    4  501    0  0.97885070901E+02  0.16143528023E+02 -0.31650314976E+03  0.33168711825E+03  0.00000000000E+00 0. -1.
         -1    1    4    4    0  501  0.24194781064E+02  0.37889271233E+02 -0.35297170136E+03  0.35582299851E+03  0.00000000000E+00 0.  1.
          5    1    3    3  502    0  0.18095895753E+02  0.13023012431E+03 -0.51674995941E+03  0.53323536761E+03  0.47000000000E+01 0. -1.
         11    1    6    6    0    0 -0.39435084705E+02 -0.18450475459E+02 -0.21140775306E+03  0.21584435134E+03  0.00000000000E+00 0. -1.
        -12    1    6    6    0    0 -0.10732335428E+03 -0.15169299831E+03 -0.42751459579E+03  0.46615211865E+03  0.00000000000E+00 0.  1.
         -5    1    5    5    0  503  0.65826912660E+01 -0.14119449799E+02  0.29893810566E+01  0.16544397421E+02  0.47000000000E+01 0.  1.
<mgrwt>
<rscale>  2 0.28884905E+03</rscale>
<asrwt>0</asrwt>
<pdfrwt beam="1">  1       21 0.74714292E-02 0.28904775E+03</pdfrwt>
<pdfrwt beam="2">  1       21 0.28780337E+00 0.28904775E+03</pdfrwt>
<totfact> 0.49620700E+03</totfact>
</mgrwt>
</event>
<event>
12    1  0.1473662E-001  0.1856113E+03  0.7546771E-02  0.1162585E+00
         21   -1    0    0  504  503  0.00000000000E+00  0.00000000000E+00  0.44228796537E+03  0.44228796537E+03  0.00000000000E+00 0.  1.
         21   -1    0    0  502  504 -0.00000000000E+00 -0.00000000000E+00 -0.12650938554E+03  0.12650938554E+03  0.00000000000E+00 0.  1.
          6    2    1    2  502    0  0.64078208241E+02  0.11437740605E+02 -0.18871516612E+02  0.18611961008E+03  0.17334225231E+03 0.  0.
         24    2    3    3    0    0  0.63044135238E+02  0.39944219652E+02  0.43113943216E+02  0.11772388006E+03  0.80187256880E+02 0.  0.
         -6    2    1    2    0  503 -0.64078208241E+02 -0.11437740605E+02  0.33465009643E+03  0.38267774083E+03  0.17382384072E+03 0.  0.
        -24    2    5    5    0    0 -0.41391534109E+02  0.53614828544E+02  0.26365255820E+03  0.28363602048E+03  0.79680058536E+02 0.  0.
          4    1    4    4  501    0  0.72000384164E+02  0.57919347655E+01  0.39244301144E+02  0.82205334379E+02  0.00000000000E+00 0. -1.
         -3    1    4    4    0  501 -0.89562489259E+01  0.34152284886E+02  0.38696420722E+01  0.35518545684E+02  0.00000000000E+00 0.  1.
          5    1    3    3  502    0  0.10340730026E+01 -0.28506479047E+02 -0.61985459828E+02  0.68395730018E+02  0.47000000000E+01 0. -1.
         11    1    6    6    0    0  0.20771190879E+01 -0.11165613440E+01 -0.52730177809E+01  0.57763179845E+01  0.00000000000E+00 0. -1.
        -12    1    6    6    0    0 -0.43468653197E+02  0.54731389888E+02  0.26892557598E+03  0.27785970249E+03  0.00000000000E+00 0.  1.
         -5    1    5    5    0  503 -0.22686674132E+02 -0.65052569148E+02  0.70997538231E+02  0.99041720355E+02  0.47000000000E+01 0.  1.
<mgrwt>
<rscale>  2 0.18549850E+03</rscale>
<asrwt>0</asrwt>
<pdfrwt beam="1">  1       21 0.68044302E-01 0.18561133E+03</pdfrwt>
<pdfrwt beam="2">  1       21 0.19462983E-01 0.18561133E+03</pdfrwt>
<totfact> 0.48054306E+04</totfact>
</mgrwt>
</event>
<event>
12    1  0.1473662E-001  0.1857502E+03  0.7546771E-02  0.1162477E+00
         21   -1    0    0  504  503  0.00000000000E+00  0.00000000000E+00  0.53430260479E+03  0.53430260479E+03  0.00000000000E+00 0.  1.
         21   -1    0    0  502  504 -0.00000000000E+00 -0.00000000000E+00 -0.11792644635E+03  0.11792644635E+03  0.00000000000E+00 0.  1.
          6    2    1    2  502    0  0.17009868522E+02  0.65570236879E+02 -0.11380759725E+02  0.18609849542E+03  0.17295761537E+03 0.  0.
         24    2    3    3    0    0 -0.45568580228E+01 -0.30866770331E+02 -0.11793349026E+02  0.87166800379E+02  0.80532263977E+02 0.  0.
         -6    2    1    2    0  503 -0.17009868522E+02 -0.65570236879E+02  0.42775691817E+03  0.46613055573E+03  0.17237436687E+03 0.  0.
        -24    2    5    5    0    0 -0.53369513731E+01  0.32245771394E+02  0.18364644101E+03  0.20285077388E+03  0.79712912052E+02 0.  0.
          4    1    4    4  501    0 -0.41293217383E+02 -0.24550869184E+02  0.98693787087E-01  0.48040448790E+02  0.00000000000E+00 0. -1.
         -3    1    4    4    0  501  0.36736359360E+02 -0.63159011475E+01 -0.11892042814E+02  0.39126351588E+02  0.00000000000E+00 0.  1.
          5    1    3    3  502    0  0.21566726545E+02  0.96437007210E+02  0.41258930170E+00  0.98931695040E+02  0.47000000000E+01 0. -1.
         13    1    6    6    0    0  0.37124760617E+02  0.18541250769E+02  0.85500969575E+02  0.95039158400E+02  0.00000000000E+00 0. -1.
        -14    1    6    6    0    0 -0.42461711990E+02  0.13704520625E+02  0.98145471431E+02  0.10781161548E+03  0.00000000000E+00 0.  1.
         -5    1    5    5    0  503 -0.11672917149E+02 -0.97816008273E+02  0.24411047716E+03  0.26327978185E+03  0.47000000000E+01 0.  1.
<mgrwt>
<rscale>  2 0.18561429E+03</rscale>
<asrwt>0</asrwt>
<pdfrwt beam="1">  1       21 0.82200399E-01 0.18575018E+03</pdfrwt>
<pdfrwt beam="2">  1       21 0.18142531E-01 0.18575018E+03</pdfrwt>
<totfact> 0.35915347E+04</totfact>
</mgrwt>
</event>
<event>
12    1  0.1473662E-001  0.2776959E+03  0.7546771E-02  0.1097077E+00
         21   -1    0    0  504  503  0.00000000000E+00  0.00000000000E+00  0.54795339306E+03  0.54795339306E+03  0.00000000000E+00 0. -1.
         21   -1    0    0  502  504 -0.00000000000E+00 -0.00000000000E+00 -0.58485991088E+03  0.58485991088E+03  0.00000000000E+00 0.  1.
          6    2    1    2  502    0 -0.11837060192E+03 -0.18216215993E+03 -0.51228776567E+03  0.58271241256E+03  0.17297499527E+03 0.  0.
         24    2    3    3    0    0 -0.84932086410E+02 -0.12669710910E+03 -0.48027213943E+03  0.51031354167E+03  0.80578943506E+02 0.  0.
         -6    2    1    2    0  503  0.11837060192E+03  0.18216215993E+03  0.47538124785E+03  0.55010089139E+03  0.17154885015E+03 0.  0.
        -24    2    5    5    0    0  0.80377652989E+02  0.14679359726E+03  0.21293639308E+03  0.28253073014E+03  0.80453580889E+02 0.  0.
          2    1    4    4  501    0 -0.65505479532E+00 -0.71923875752E+02 -0.19331638804E+03  0.20626366351E+03  0.00000000000E+00 0. -1.
         -1    1    4    4    0  501 -0.84277031614E+02 -0.54773233348E+02 -0.28695575139E+03  0.30404987816E+03  0.00000000000E+00 0.  1.
          5    1    3    3  502    0 -0.33438515510E+02 -0.55465050831E+02 -0.32015626233E+02  0.72398870891E+02  0.47000000000E+01 0. -1.
         11    1    6    6    0    0  0.40493855931E+01  0.73410229106E+02  0.12443502783E+03  0.14453212588E+03  0.00000000000E+00 0. -1.
        -12    1    6    6    0    0  0.76328267396E+02  0.73383368159E+02  0.88501365246E+02  0.13799860426E+03  0.00000000000E+00 0.  1.
         -5    1    5    5    0  503  0.37992948931E+02  0.35368562668E+02  0.26244485477E+03  0.26757016125E+03  0.47000000000E+01 0.  1.
<mgrwt>
<rscale>  2 0.27747409E+03</rscale>
<asrwt>0</asrwt>
<pdfrwt beam="1">  1       21 0.84300522E-01 0.27769588E+03</pdfrwt>
<pdfrwt beam="2">  1       21 0.89978447E-01 0.27769588E+03</pdfrwt>
<totfact> 0.11966997E+03</totfact>
</mgrwt>
</event>
<event>
12    1  0.1473662E-001  0.2567904E+03  0.7546771E-02  0.1109199E+00
         21   -1    0    0  504  503  0.00000000000E+00  0.00000000000E+00  0.14196364075E+04  0.14196364075E+04  0.00000000000E+00 0.  1.
         21   -1    0    0  502  504 -0.00000000000E+00 -0.00000000000E+00 -0.47218583087E+02  0.47218583087E+02  0.00000000000E+00 0.  1.
          6    2    1    2  502    0 -0.11811031216E+03 -0.14771986565E+03  0.78658745857E+03  0.82721562888E+03  0.17261130364E+03 0.  0.
         24    2    3    3    0    0 -0.13142070143E+03 -0.16765320396E+03  0.74380938888E+03  0.77795552652E+03  0.81138133371E+02 0.  0.
         -6    2    1    2    0  503  0.11811031216E+03  0.14771986565E+03  0.58583036586E+03  0.63963936172E+03  0.17369539703E+03 0.  0.
        -24    2    5    5    0    0 -0.64346573668E+01  0.47761075706E+02  0.20382255628E+03  0.22556779097E+03  0.83753619069E+02 0.  0.
          4    1    4    4  501    0 -0.18110628092E+02  0.65912684469E+01  0.46704398637E+02  0.50524652612E+02  0.00000000000E+00 0. -1.
         -3    1    4    4    0  501 -0.11331007334E+03 -0.17424447241E+03  0.69710499024E+03  0.72743087391E+03  0.00000000000E+00 0.  1.
          5    1    3    3  502    0  0.13310389276E+02  0.19933338310E+02  0.42778069689E+02  0.49260102367E+02  0.47000000000E+01 0. -1.
         11    1    6    6    0    0 -0.60366041519E+00  0.63155455762E+02  0.86542870521E+02  0.10713843585E+03  0.00000000000E+00 0. -1.
        -12    1    6    6    0    0 -0.58309969516E+01 -0.15394380056E+02  0.11727968576E+03  0.11842935512E+03  0.00000000000E+00 0.  1.
         -5    1    5    5    0  503  0.12454496953E+03  0.99958789947E+02  0.38200780958E+03  0.41407157075E+03  0.47000000000E+01 0.  1.
<mgrwt>
<rscale>  2 0.25660717E+03</rscale>
<asrwt>0</asrwt>
<pdfrwt beam="1">  1       21 0.21840557E+00 0.25679037E+03</pdfrwt>
<pdfrwt beam="2">  1       21 0.72643985E-02 0.25679037E+03</pdfrwt>
<totfact> 0.13917143E+04</totfact>
</mgrwt>
</event>
<event>
12    1  0.1473662E-001  0.2035565E+03  0.7546771E-02  0.1146936E+00
         21   -1    0    0  504  503  0.00000000000E+00  0.00000000000E+00  0.18412306200E+03  0.18412306200E+03  0.00000000000E+00 0. -1.
         21   -1    0    0  502  504 -0.00000000000E+00 -0.00000000000E+00 -0.23761582537E+03  0.23761582537E+03  0.00000000000E+00 0. -1.
          6    2    1    2  502    0  0.97349502130E+02 -0.41726300202E+02 -0.76863598759E+02  0.21684515323E+03  0.17290401375E+03 0.  0.
         24    2    3    3    0    0  0.12161907259E+03 -0.66197886862E+02 -0.39706467872E+02  0.16594708863E+03  0.82392193746E+02 0.  0.
         -6    2    1    2    0  503 -0.97349502130E+02  0.41726300202E+02  0.23370835388E+02  0.20489373414E+03  0.17383105778E+03 0.  0.
        -24    2    5    5    0    0 -0.10754450524E+03  0.56462782370E+01  0.64704447743E+02  0.14889138076E+03  0.79901668587E+02 0.  0.
          4    1    4    4  501    0  0.87829658242E+02 -0.20614494807E+02  0.96658354120E+01  0.90732764959E+02  0.00000000000E+00 0. -1.
         -3    1    4    4    0  501  0.33789414349E+02 -0.45583392055E+02 -0.49372303284E+02  0.75214323668E+02  0.00000000000E+00 0.  1.
          5    1    3    3  502    0 -0.24269570460E+02  0.24471586660E+02 -0.37157130888E+02  0.50898064598E+02  0.47000000000E+01 0. -1.
         11    1    6    6    0    0 -0.75326461352E+02  0.15978931318E+02  0.12877201211E+01  0.77013377078E+02  0.00000000000E+00 0. -1.
        -12    1    6    6    0    0 -0.32218043888E+02 -0.10332653081E+02  0.63416727622E+02  0.71878003686E+02  0.00000000000E+00 0.  1.
         -5    1    5    5    0  503  0.10195003110E+02  0.36080021965E+02 -0.41333612355E+02  0.56002353376E+02  0.47000000000E+01 0.  1.
<mgrwt>
<rscale>  2 0.20335843E+03</rscale>
<asrwt>0</asrwt>
<pdfrwt beam="1">  1       21 0.28326625E-01 0.20355649E+03</pdfrwt>
<pdfrwt beam="2">  1       21 0.36556281E-01 0.20355649E+03</pdfrwt>
<totfact> 0.85579075E+04</totfact>
</mgrwt>
</event>
<event>
12    1  0.1473662E-001  0.3372531E+03  0.7546771E-02  0.1068009E+00
         21   -1    0    0  504  503  0.00000000000E+00  0.00000000000E+00  0.29898884292E+03  0.29898884292E+03  0.00000000000E+00 0. -1.
         21   -1    0    0  502  504 -0.00000000000E+00 -0.00000000000E+00 -0.65897006102E+03  0.65897006102E+03  0.00000000000E+00 0.  1.
          6    2    1    2  502    0  0.18468821443E+03 -0.22258941632E+03 -0.49156840186E+03  0.59594394905E+03  0.17278284605E+03 0.  0.
         24    2    3    3    0    0  0.10474495525E+03 -0.15451298190E+03 -0.19697722034E+03  0.28316386681E+03  0.80845426027E+02 0.  0.
         -6    2    1    2    0  503 -0.18468821443E+03  0.22258941632E+03  0.13158718376E+03  0.36201495490E+03  0.17344698278E+03 0.  0.
        -24    2    5    5    0    0 -0.54585854554E+02  0.37309819379E+02  0.74014486377E+02  0.12836594769E+03  0.81412739743E+02 0.  0.
          4    1    4    4  501    0  0.10851593020E+03 -0.10194546744E+03 -0.12793743380E+03  0.19630734170E+03  0.00000000000E+00 0. -1.
         -3    1    4    4    0  501 -0.37709749526E+01 -0.52567514457E+02 -0.69039786536E+02  0.86856525105E+02  0.00000000000E+00 0.  1.
          5    1    3    3  502    0  0.79943259180E+02 -0.68076434424E+02 -0.29459118153E+03  0.31278008224E+03  0.47000000000E+01 0. -1.
         13    1    6    6    0    0 -0.15480174432E+02  0.57375865465E+02  0.31696953741E+02  0.67352227986E+02  0.00000000000E+00 0. -1.
        -14    1    6    6    0    0 -0.39105680122E+02 -0.20066046086E+02  0.42317532637E+02  0.61013719701E+02  0.00000000000E+00 0.  1.
         -5    1    5    5    0  503 -0.13010235988E+03  0.18527959694E+03  0.57572697384E+02  0.23364900721E+03  0.47000000000E+01 0.  1.
<mgrwt>
<rscale>  2 0.33716778E+03</rscale>
<asrwt>0</asrwt>
<pdfrwt beam="1">  1       21 0.45998284E-01 0.33725308E+03</pdfrwt>
<pdfrwt beam="2">  1       21 0.10138001E+00 0.33725308E+03</pdfrwt>
<totfact> 0.32808229E+03</totfact>
</mgrwt>
</event>
<event>
12    1  0.1473662E-001  0.3669156E+03  0.7546771E-02  0.1055900E+00
         21   -1    0    0  504  503  0.00000000000E+00  0.00000000000E+00  0.11198306200E+04  0.11198306200E+04  0.00000000000E+00 0.  1.
         21   -1    0    0  502  504 -0.00000000000E+00 -0.00000000000E+00 -0.12277013558E+03  0.12277013558E+03  0.00000000000E+00 0.  1.
          6    2    1    2  502    0  0.14563420244E+03  0.28887833102E+03  0.58915706533E+03  0.69395493963E+03  0.17264819595E+03 0.  0.
         24    2    3    3    0    0  0.37778553002E+02  0.18641958236E+03  0.25629325002E+03  0.32933041244E+03  0.81196125497E+02 0.  0.
         -6    2    1    2    0  503 -0.14563420244E+03 -0.28887833102E+03  0.40790341910E+03  0.54864581595E+03  0.17310985240E+03 0.  0.
        -24    2    5    5    0    0 -0.32892598433E+02 -0.14043568249E+03  0.11279300730E+03  0.19956397121E+03  0.79368836217E+02 0.  0.
          2    1    4    4  501    0  0.62473846507E+02  0.11909488460E+03  0.17904031430E+03  0.22392411031E+03  0.00000000000E+00 0. -1.
         -1    1    4    4    0  501 -0.24695293504E+02  0.67324697766E+02  0.77252935719E+02  0.10540630213E+03  0.00000000000E+00 0.  1.
          5    1    3    3  502    0  0.10785564944E+03  0.10245874865E+03  0.33286381531E+03  0.36462452719E+03  0.47000000000E+01 0. -1.
         13    1    6    6    0    0  0.22435454497E+02 -0.15950927791E+02  0.27084532763E+02  0.38618047994E+02  0.00000000000E+00 0. -1.
        -14    1    6    6    0    0 -0.55328052930E+02 -0.12448475470E+03  0.85708474537E+02  0.16094592322E+03  0.00000000000E+00 0.  1.
         -5    1    5    5    0  503 -0.11274160401E+03 -0.14844264853E+03  0.29511041180E+03  0.34908184474E+03  0.47000000000E+01 0.  1.
<mgrwt>
<rscale>  2 0.36686116E+03</rscale>
<asrwt>0</asrwt>
<pdfrwt beam="1">  1       21 0.17228163E+00 0.36691557E+03</pdfrwt>
<pdfrwt beam="2">  1       21 0.18887714E-01 0.36691557E+03</pdfrwt>
<totfact> 0.47292824E+03</totfact>
</mgrwt>
</event>
<event>
12    1  0.1473662E-001  0.2229483E+03  0.7546771E-02  0.1132279E+00
         21   -1    0    0  504  503  0.00000000000E+00  0.00000000000E+00  0.42382440134E+03  0.42382440134E+03  0.00000000000E+00 0.  1.
         21   -1    0    0  502  504 -0.00000000000E+00 -0.00000000000E+00 -0.25469365164E+03  0.25469365164E+03  0.00000000000E+00 0.  1.
          6    2    1    2  502    0  0.56801493162E+02 -0.12147764500E+03 -0.16583255734E+03  0.27786034626E+03  0.17810869460E+03 0.  0.
         24    2    3    3    0    0  0.43122362172E+02 -0.98647979680E+02 -0.19584449277E+03  0.23747323804E+03  0.80296397323E+02 0.  0.
         -6    2    1    2    0  503 -0.56801493162E+02  0.12147764500E+03  0.33496330704E+03  0.40065770672E+03  0.17419228752E+03 0.  0.
        -24    2    5    5    0    0 -0.67150004949E+02  0.70639597993E+01  0.17764271735E+03  0.20580021778E+03  0.78979566452E+02 0.  0.
          4    1    4    4  501    0  0.28084822590E+02 -0.97781296059E+02 -0.10809402820E+03  0.14843940869E+03  0.00000000000E+00 0. -1.
         -3    1    4    4    0  501  0.15037539582E+02 -0.86668362098E+00 -0.87750464567E+02  0.89033829351E+02  0.00000000000E+00 0.  1.
          5    1    3    3  502    0  0.13679130990E+02 -0.22829665317E+02  0.30011935422E+02  0.40387108227E+02  0.47000000000E+01 0. -1.
         13    1    6    6    0    0  0.15447912591E+02 -0.96051272321E+01  0.19893130201E+02  0.26956132916E+02  0.00000000000E+00 0. -1.
        -14    1    6    6    0    0 -0.82597917540E+02  0.16669087031E+02  0.15774958715E+03  0.17884408486E+03  0.00000000000E+00 0.  1.
         -5    1    5    5    0  503  0.10348511787E+02  0.11441368520E+03  0.15732058969E+03  0.19485748895E+03  0.47000000000E+01 0.  1.
<mgrwt>
<rscale>  2 0.22216513E+03</rscale>
<asrwt>0</asrwt>
<pdfrwt beam="1">  1       21 0.65203754E-01 0.22294828E+03</pdfrwt>
<pdfrwt beam="2">  1       21 0.39183639E-01 0.22294828E+03</pdfrwt>
<totfact> 0.13336407E+04</totfact>
</mgrwt>
</event>
<event>
12    1  0.1473662E-001  0.4176306E+03  0.7546771E-02  0.1037865E+00
         21   -1    0    0  504  503  0.00000000000E+00  0.00000000000E+00  0.44093491531E+03  0.44093491531E+03  0.00000000000E+00 0. -1.
         21   -1    0    0  502  504 -0.00000000000E+00 -0.00000000000E+00 -0.17914327943E+04  0.17914327943E+04  0.00000000000E+00 0.  1.
          6    2    1    2  502    0  0.35437495676E+03  0.13769107388E+03 -0.16606809922E+04  0.17123891830E+04  0.17284361223E+03 0.  0.
         24    2    3    3    0    0  0.28123244166E+03  0.11892738287E+03 -0.10171701871E+04  0.10644461686E+04  0.71937803951E+02 0.  0.
         -6    2    1    2    0  503 -0.35437495676E+03 -0.13769107388E+03  0.31018311321E+03  0.51997852664E+03  0.17211525977E+03 0.  0.
        -24    2    5    5    0    0 -0.18981636078E+03 -0.14462347576E+03  0.17597836471E+03  0.30746830518E+03  0.81376736759E+02 0.  0.
          2    1    4    4  501    0  0.19179318629E+03  0.87362098956E+02 -0.57994264103E+03  0.61704961675E+03  0.00000000000E+00 0. -1.
         -1    1    4    4    0  501  0.89439255374E+02  0.31565283917E+02 -0.43722754606E+03  0.44739655182E+03  0.00000000000E+00 0.  1.
          5    1    3    3  502    0  0.73142515095E+02  0.18763691009E+02 -0.64351080512E+03  0.64794301440E+03  0.47000000000E+01 0. -1.
         13    1    6    6    0    0 -0.96369900095E+02 -0.64406485122E+02  0.36771270193E+02  0.12160377988E+03  0.00000000000E+00 0. -1.
        -14    1    6    6    0    0 -0.93446460689E+02 -0.80216990635E+02  0.13920709452E+03  0.18586452530E+03  0.00000000000E+00 0.  1.
         -5    1    5    5    0  503 -0.16455859597E+03  0.69324018741E+01  0.13420474850E+03  0.21251022146E+03  0.47000000000E+01 0.  1.
<mgrwt>
<rscale>  2 0.41755540E+03</rscale>
<asrwt>0</asrwt>
<pdfrwt beam="1">  1       21 0.67836143E-01 0.41763065E+03</pdfrwt>
<pdfrwt beam="2">  1       21 0.27560504E+00 0.41763065E+03</pdfrwt>
<totfact> 0.74050662E+01</totfact>
</mgrwt>
</event>
<event>
12    1  0.1473662E-001  0.1845370E+03  0.7546771E-02  0.1164684E+00
         21   -1    0    0  504  503  0.00000000000E+00  0.00000000000E+00  0.91591700601E+02  0.91591700601E+02  0.00000000000E+00 0.  1.
         21   -1    0    0  502  504 -0.00000000000E+00 -0.00000000000E+00 -0.39537561475E+03  0.39537561475E+03  0.00000000000E+00 0.  1.
          6    2    1    2  502    0  0.34845040733E+02 -0.33629951408E+02 -0.22102169908E+03  0.28472122052E+03  0.17283064385E+03 0.  0.
         24    2    3    3    0    0  0.65965239169E+02  0.31306723012E+02 -0.11819891446E+03  0.15910333376E+03  0.77532984928E+02 0.  0.
         -6    2    1    2    0  503 -0.34845040733E+02  0.33629951408E+02 -0.82762215063E+02  0.20224609483E+03  0.17806950366E+03 0.  0.
        -24    2    5    5    0    0 -0.55403907981E+02  0.73386736007E+02 -0.91936567726E+02  0.15631649989E+03  0.86760069221E+02 0.  0.
          2    1    4    4  501    0  0.40381872400E+02  0.61856285869E+01 -0.59708816124E+01  0.41286911325E+02  0.00000000000E+00 0. -1.
         -1    1    4    4    0  501  0.25583366769E+02  0.25121094426E+02 -0.11222803284E+03  0.11781642244E+03  0.00000000000E+00 0.  1.
          5    1    3    3  502    0 -0.31120198435E+02 -0.64936674420E+02 -0.10282278463E+03  0.12561788676E+03  0.47000000000E+01 0. -1.
         13    1    6    6    0    0 -0.32426818955E+02  0.38114250018E+01 -0.73998568488E+02  0.80881479255E+02  0.00000000000E+00 0. -1.
        -14    1    6    6    0    0 -0.22977089026E+02  0.69575311006E+02 -0.17937999238E+02  0.75435020636E+02  0.00000000000E+00 0.  1.
         -5    1    5    5    0  503  0.20558867248E+02 -0.39756784600E+02  0.91743526629E+01  0.45929594936E+02  0.47000000000E+01 0.  1.
<mgrwt>
<rscale>  2 0.18326132E+03</rscale>
<asrwt>0</asrwt>
<pdfrwt beam="1">  1       21 0.14091031E-01 0.18453698E+03</pdfrwt>
<pdfrwt beam="2">  1       21 0.60827017E-01 0.18453698E+03</pdfrwt>
<totfact> 0.11089932E+05</totfact>
</mgrwt>
</event>
<event>
12    1  0.1473662E-001  0.2013034E+03  0.7546771E-02  0.1148786E+00
         21   -1    0    0  504  503  0.00000000000E+00  0.00000000000E+00  0.55404545553E+03  0.55404545553E+03  0.00000000000E+00 0. -1.
         21   -1    0    0  502  504 -0.00000000000E+00 -0.00000000000E+00 -0.72894654671E+02  0.72894654671E+02  0.00000000000E+00 0.  1.
          6    2    1    2  502    0 -0.62468919362E+02  0.83988666037E+02  0.23930773127E+03  0.31227977648E+03  0.17115492001E+03 0.  0.
         24    2    3    3    0    0 -0.67425225071E+02  0.12194765863E+03  0.19049393703E+03  0.25006782752E+03  0.82635258197E+02 0.  0.
         -6    2    1    2    0  503  0.62468919362E+02 -0.83988666037E+02  0.24184306959E+03  0.31466033372E+03  0.17194939197E+03 0.  0.
        -24    2    5    5    0    0  0.33757722603E+01 -0.38616168648E+02  0.21843335820E+03  0.23642499554E+03  0.81737642608E+02 0.  0.
          4    1    4    4  501    0 -0.65471489752E+02  0.12260961651E+03  0.19820567994E+03  0.24208495532E+03  0.00000000000E+00 0. -1.
         -3    1    4    4    0  501 -0.19537353185E+01 -0.66195787915E+00 -0.77117429118E+01  0.79828722066E+01  0.00000000000E+00 0.  1.
          5    1    3    3  502    0  0.49563057088E+01 -0.37958992591E+02  0.48813794238E+02  0.62211948954E+02  0.47000000000E+01 0. -1.
         13    1    6    6    0    0 -0.17828480498E+02  0.20383732343E+02  0.79928080828E+02  0.84391050272E+02  0.00000000000E+00 0. -1.
        -14    1    6    6    0    0  0.21204252758E+02 -0.58999900992E+02  0.13850527738E+03  0.15203394527E+03  0.00000000000E+00 0.  1.
         -5    1    5    5    0  503  0.59093147102E+02 -0.45372497389E+02  0.23409711388E+02  0.78235338186E+02  0.47000000000E+01 0.  1.
<mgrwt>
<rscale>  2 0.20113363E+03</rscale>
<asrwt>0</asrwt>
<pdfrwt beam="1">  1       21 0.85237760E-01 0.20130339E+03</pdfrwt>
<pdfrwt beam="2">  1       21 0.11214563E-01 0.20130339E+03</pdfrwt>
<totfact> 0.78533569E+04</totfact>
</mgrwt>
</event>
<event>
12    1  0.1473662E-001  0.2339723E+03  0.7546771E-02  0.1123885E+00
         21   -1    0    0  504  503  0.00000000000E+00  0.00000000000E+00  0.83979045949E+03  0.83979045949E+03  0.00000000000E+00 0.  1.
         21   -1    0    0  502  504 -0.00000000000E+00 -0.00000000000E+00 -0.14074565343E+03  0.14074565343E+03  0.00000000000E+00 0.  1.
          6    2    1    2  502    0 -0.64020778497E+02 -0.14384012492E+03 -0.97157132687E+01  0.23417393930E+03  0.17307338659E+03 0.  0.
         24    2    3    3    0    0 -0.10732822362E+03 -0.12742990928E+03  0.79691333876E+01  0.18437761632E+03  0.78573971197E+02 0.  0.
         -6    2    1    2    0  503  0.64020778497E+02  0.14384012492E+03  0.70876051932E+03  0.74636217362E+03  0.17299242424E+03 0.  0.
        -24    2    5    5    0    0 -0.57527433199E+01  0.11649268887E+02  0.29098604476E+03  0.30262760390E+03  0.82108397129E+02 0.  0.
          4    1    4    4  501    0 -0.99104553505E+01 -0.46431289605E+02 -0.24732113556E+02  0.53532786408E+02  0.00000000000E+00 0. -1.
         -3    1    4    4    0  501 -0.97417768271E+02 -0.80998619675E+02  0.32701246944E+02  0.13084482992E+03  0.00000000000E+00 0.  1.
          5    1    3    3  502    0  0.43307445125E+02 -0.16410215638E+02 -0.17684846656E+02  0.49796322975E+02  0.47000000000E+01 0. -1.
         11    1    6    6    0    0  0.13758254495E+02  0.15674464177E+02  0.14445195866E+02  0.25370102041E+02  0.00000000000E+00 0. -1.
        -12    1    6    6    0    0 -0.19510997814E+02 -0.40251952899E+01  0.27654084889E+03  0.27725750186E+03  0.00000000000E+00 0.  1.
         -5    1    5    5    0  503  0.69773521817E+02  0.13219085603E+03  0.41777447457E+03  0.44373456972E+03  0.47000000000E+01 0.  1.
<mgrwt>
<rscale>  2 0.23395733E+03</rscale>
<asrwt>0</asrwt>
<pdfrwt beam="1">  1       21 0.12919853E+00 0.23397230E+03</pdfrwt>
<pdfrwt beam="2">  1       21 0.21653178E-01 0.23397230E+03</pdfrwt>
<totfact> 0.84817422E+03</totfact>
</mgrwt>
</event>
<event>
12    1  0.1473662E-001  0.2186080E+03  0.7546771E-02  0.1135109E+00
         21   -1    0    0  504  503  0.00000000000E+00  0.00000000000E+00  0.17695501291E+03  0.17695501291E+03  0.00000000000E+00 0. -1.
         21   -1    0    0  502  504 -0.00000000000E+00 -0.00000000000E+00 -0.31619491541E+03  0.31619491541E+03  0.00000000000E+00 0. -1.
          6    2    1    2  502    0 -0.64104762058E+02  0.11615815050E+03 -0.16488863293E+03  0.27304245539E+03  0.17251604195E+03 0.  0.
         24    2    3    3    0    0 -0.94619525539E+01  0.27836414870E+02 -0.12977409015E+02  0.88961832927E+02  0.82954204439E+02 0.  0.
         -6    2    1    2    0  503  0.64104762058E+02 -0.11615815050E+03  0.25648730429E+02  0.22010747293E+03  0.17374494473E+03 0.  0.
        -24    2    5    5    0    0  0.93792610581E+02 -0.71534624228E+02 -0.26269853725E+02  0.14533945284E+03  0.80741532519E+02 0.  0.
          2    1    4    4  501    0 -0.16663478119E+02 -0.12647080001E+02  0.25269432221E+02  0.32804943840E+02  0.00000000000E+00 0. -1.
         -1    1    4    4    0  501  0.72015255649E+01  0.40483494871E+02 -0.38246841236E+02  0.56156889087E+02  0.00000000000E+00 0.  1.
          5    1    3    3  502    0 -0.54642809504E+02  0.88321735633E+02 -0.15191122391E+03  0.18408062246E+03  0.47000000000E+01 0. -1.
         11    1    6    6    0    0  0.58087706515E+02  0.46121179471E+01 -0.43777605885E+01  0.58434733403E+02  0.00000000000E+00 0. -1.
        -12    1    6    6    0    0  0.35704904067E+02 -0.76146742175E+02 -0.21892093136E+02  0.86904719436E+02  0.00000000000E+00 0.  1.
         -5    1    5    5    0  503 -0.29687848523E+02 -0.44623526274E+02  0.51918584154E+02  0.74768020086E+02  0.47000000000E+01 0.  1.
<mgrwt>
<rscale>  2 0.21836370E+03</rscale>
<asrwt>0</asrwt>
<pdfrwt beam="1">  1       21 0.27223848E-01 0.21860796E+03</pdfrwt>
<pdfrwt beam="2">  1       21 0.48645371E-01 0.21860796E+03</pdfrwt>
<totfact> 0.51264149E+04</totfact>
</mgrwt>
</event>
<event>
12    1  0.1473662E-001  0.1936812E+03  0.7546771E-02  0.1155539E+00
         21   -1    0    0  504  503  0.00000000000E+00  0.00000000000E+00  0.37746896137E+03  0.37746896137E+03  0.00000000000E+00 0. -1.
         21   -1    0    0  502  504 -0.00000000000E+00 -0.00000000000E+00 -0.20997977772E+03  0.20997977772E+03  0.00000000000E+00 0. -1.
          6    2    1    2  502    0  0.41002933716E+01 -0.86831730331E+02 -0.13038542296E+03  0.23214366824E+03  0.17127102028E+03 0.  0.
         24    2    3    3    0    0  0.18696499344E+02 -0.86064109444E+02 -0.21283063133E+02  0.12196629584E+03  0.81646913730E+02 0.  0.
         -6    2    1    2    0  503 -0.41002933716E+01  0.86831730331E+02  0.29787460660E+03  0.35530507085E+03  0.17307758466E+03 0.  0.
        -24    2    5    5    0    0 -0.42848708967E+02  0.70632342871E+02  0.10544492148E+03  0.15828950399E+03  0.84332650194E+02 0.  0.
          4    1    4    4  501    0  0.29531216656E+02 -0.90051688885E+02  0.32781573039E+01  0.94826925203E+02  0.00000000000E+00 0. -1.
         -3    1    4    4    0  501 -0.10834717312E+02  0.39875794402E+01 -0.24561220437E+02  0.27139370634E+02  0.00000000000E+00 0.  1.
          5    1    3    3  502    0 -0.14596205972E+02 -0.76762088653E+00 -0.10910235983E+03  0.11017737241E+03  0.47000000000E+01 0. -1.
         13    1    6    6    0    0 -0.62583534370E+02  0.36189003126E+02  0.90599978439E+02  0.11590814818E+03  0.00000000000E+00 0. -1.
        -14    1    6    6    0    0  0.19734825404E+02  0.34443339745E+02  0.14844943039E+02  0.42381355811E+02  0.00000000000E+00 0.  1.
         -5    1    5    5    0  503  0.38748415595E+02  0.16199387460E+02  0.19242968513E+03  0.19701556685E+03  0.47000000000E+01 0.  1.
<mgrwt>
<rscale>  2 0.19327678E+03</rscale>
<asrwt>0</asrwt>
<pdfrwt beam="1">  1       21 0.58072148E-01 0.19368121E+03</pdfrwt>
<pdfrwt beam="2">  1       21 0.32304581E-01 0.19368121E+03</pdfrwt>
<totfact> 0.25605626E+04</totfact>
</mgrwt>
</event>
<event>
12    1  0.1473662E-001  0.2499732E+03  0.7546771E-02  0.1114522E+00
         21   -1    0    0  504  503  0.00000000000E+00  0.00000000000E+00  0.13133970531E+04  0.13133970531E+04  0.00000000000E+00 0. -1.
         21   -1    0    0  502  504 -0.00000000000E+00 -0.00000000000E+00 -0.70890484497E+02  0.70890484497E+02  0.00000000000E+00 0.  1.
          6    2    1    2  502    0 -0.15703023072E+03 -0.66421633010E+02  0.21865204942E+03  0.33210735501E+03  0.18280112100E+03 0.  0.
         24    2    3    3    0    0 -0.10921567272E+03  0.14185712768E+02  0.53061023040E+02  0.14177539718E+03  0.71801765060E+02 0.  0.
         -6    2    1    2    0  503  0.15703023072E+03  0.66421633010E+02  0.10238545191E+04  0.10521801825E+04  0.17243762205E+03 0.  0.
        -24    2    5    5    0    0  0.68567696324E+02  0.61429339919E+02  0.32150843739E+03  0.34425175995E+03  0.81648675014E+02 0.  0.
          2    1    4    4  501    0 -0.33371415002E+02  0.31026172748E+02 -0.34632574770E+01  0.45697580756E+02  0.00000000000E+00 0. -1.
         -1    1    4    4    0  501 -0.75844257719E+02 -0.16840459981E+02  0.56524280517E+02  0.96077816426E+02  0.00000000000E+00 0.  1.
          5    1    3    3  502    0 -0.47814558001E+02 -0.80607345777E+02  0.16559102638E+03  0.19033195782E+03  0.47000000000E+01 0. -1.
         13    1    6    6    0    0  0.49006931072E+02  0.14867678092E+02  0.25838477903E+03  0.26341112577E+03  0.00000000000E+00 0. -1.
        -14    1    6    6    0    0  0.19560765252E+02  0.46561661827E+02  0.63123658358E+02  0.80840634176E+02  0.00000000000E+00 0.  1.
         -5    1    5    5    0  503  0.88462534398E+02  0.49922930907E+01  0.70234608175E+03  0.70792842260E+03  0.47000000000E+01 0.  1.
<mgrwt>
<rscale>  2 0.24808292E+03</rscale>
<asrwt>0</asrwt>
<pdfrwt beam="1">  1       21 0.20206107E+00 0.24997315E+03</pdfrwt>
<pdfrwt beam="2">  1       21 0.10906229E-01 0.24997315E+03</pdfrwt>
<totfact> 0.86697055E+03</totfact>
</mgrwt>
</event>
<event>
12    1  0.1473662E-001  0.1811489E+03  0.7546771E-02  0.1167680E+00
         21   -1    0    0  504  503  0.00000000000E+00  0.00000000000E+00  0.41422354417E+03  0.41422354417E+03  0.00000000000E+00 0.  1.
         21   -1    0    0  502  504 -0.00000000000E+00 -0.00000000000E+00 -0.12280598326E+03  0.12280598326E+03  0.00000000000E+00 0. -1.
          6    2    1    2  502    0  0.44406266005E+02  0.30527971873E+02 -0.16413219798E+02  0.18189095988E+03  0.17294812510E+03 0.  0.
         24    2    3    3    0    0  0.44136260023E+02 -0.43306325419E+02 -0.37242119639E+02  0.10503063573E+03  0.76295554895E+02 0.  0.
         -6    2    1    2    0  503 -0.44406266005E+02 -0.30527971873E+02  0.30783078071E+03  0.35513856755E+03  0.16870014547E+03 0.  0.
        -24    2    5    5    0    0 -0.65864149462E+01  0.19399289823E+02  0.54874329482E+02  0.94500640894E+02  0.74158383112E+02 0.  0.
          2    1    4    4  501    0 -0.18627493679E+02 -0.21449900202E+02 -0.24163537517E+02  0.37295553149E+02  0.00000000000E+00 0. -1.
         -1    1    4    4    0  501  0.62763753701E+02 -0.21856425217E+02 -0.13078582123E+02  0.67735082581E+02  0.00000000000E+00 0.  1.
          5    1    3    3  502    0  0.27000598241E+00  0.73834297292E+02  0.20828899842E+02  0.76860324150E+02  0.47000000000E+01 0. -1.
         11    1    6    6    0    0  0.17352294794E+02 -0.14657508368E+02  0.46906059601E+02  0.52116438035E+02  0.00000000000E+00 0. -1.
        -12    1    6    6    0    0 -0.23938709740E+02  0.34056798192E+02  0.79682698813E+01  0.42384202859E+02  0.00000000000E+00 0.  1.
         -5    1    5    5    0  503 -0.37819851059E+02 -0.49927261697E+02  0.25295645123E+03  0.26063792666E+03  0.47000000000E+01 0.  1.
<mgrwt>
<rscale>  2 0.18012751E+03</rscale>
<asrwt>0</asrwt>
<pdfrwt beam="1">  1       21 0.63726698E-01 0.18114891E+03</pdfrwt>
<pdfrwt beam="2">  1       21 0.18893228E-01 0.18114891E+03</pdfrwt>
<totfact> 0.58700701E+04</totfact>
</mgrwt>
</event>
<event>
12    1  0.1473662E-001  0.1816602E+03  0.7546771E-02  0.1166245E+00
         21   -1    0    0  504  503  0.00000000000E+00  0.00000000000E+00  0.23642082915E+03  0.23642082915E+03  0.00000000000E+00 0. -1.
         21   -1    0    0  502  504 -0.00000000000E+00 -0.00000000000E+00 -0.59107088881E+03  0.59107088881E+03  0.00000000000E+00 0. -1.
          6    2    1    2  502    0  0.20544296076E+02 -0.45894170055E+02 -0.53900121484E+03  0.56879057690E+03  0.17456250408E+03 0.  0.
         24    2    3    3    0    0 -0.55723185650E+02 -0.23050190219E+02 -0.34262246668E+03  0.35683473501E+03  0.79400810764E+02 0.  0.
         -6    2    1    2    0  503 -0.20544296076E+02  0.45894170055E+02  0.18435115517E+03  0.25870114106E+03  0.17439205551E+03 0.  0.
        -24    2    5    5    0    0 -0.21858099134E+02 -0.40154997329E+02  0.11383831015E+03  0.14734434244E+03  0.81614913359E+02 0.  0.
          4    1    4    4  501    0 -0.24755494804E+02  0.95845679607E+01 -0.27071274490E+03  0.27201119227E+03  0.00000000000E+00 0. -1.
         -3    1    4    4    0  501 -0.30967690846E+02 -0.32634758179E+02 -0.71909721772E+02  0.84823542741E+02  0.00000000000E+00 0.  1.
          5    1    3    3  502    0  0.76267481726E+02 -0.22843979836E+02 -0.19637874816E+03  0.21195584189E+03  0.47000000000E+01 0. -1.
         11    1    6    6    0    0  0.99276269336E+01  0.18891106722E+02  0.96034460600E+01  0.23402091059E+02  0.00000000000E+00 0. -1.
        -12    1    6    6    0    0 -0.31785726067E+02 -0.59046104051E+02  0.10423486409E+03  0.12394225138E+03  0.00000000000E+00 0.  1.
         -5    1    5    5    0  503  0.13138030576E+01  0.86049167383E+02  0.70512845024E+02  0.11135679862E+03  0.47000000000E+01 0.  1.
<mgrwt>
<rscale>  2 0.18161919E+03</rscale>
<asrwt>0</asrwt>
<pdfrwt beam="1">  1       21 0.36372436E-01 0.18166015E+03</pdfrwt>
<pdfrwt beam="2">  1       21 0.90933982E-01 0.18166015E+03</pdfrwt>
<totfact> 0.75385534E+03</totfact>
</mgrwt>
</event>
<event>
12    1  0.1473662E-001  0.2186122E+03  0.7546771E-02  0.1135482E+00
         21   -1    0    0  504  503  0.00000000000E+00  0.00000000000E+00  0.17309557931E+03  0.17309557931E+03  0.00000000000E+00 0. -1.
         21   -1    0    0  502  504 -0.00000000000E+00 -0.00000000000E+00 -0.27315189466E+03  0.27315189466E+03  0.00000000000E+00 0. -1.
          6    2    1    2  502    0  0.10762992760E+03 -0.71094913682E+02 -0.62266251982E+02  0.22730677933E+03  0.17650098506E+03 0.  0.
         24    2    3    3    0    0  0.11919052484E+03 -0.95009095391E+02 -0.12596285656E+02  0.17078482740E+03  0.75997904168E+02 0.  0.
         -6    2    1    2    0  503 -0.10762992760E+03  0.71094913682E+02 -0.37790063371E+02  0.21894069464E+03  0.17282433512E+03 0.  0.
        -24    2    5    5    0    0 -0.62984672320E+02  0.71194642236E+02 -0.91866565455E+02  0.14865864257E+03  0.68001324485E+02 0.  0.
          4    1    4    4  501    0  0.11185729280E+03 -0.98274122303E+02 -0.29756661038E+02  0.15183977062E+03  0.00000000000E+00 0. -1.
         -3    1    4    4    0  501  0.73332320427E+01  0.32650269122E+01  0.17160375382E+02  0.18945056775E+02  0.00000000000E+00 0.  1.
          5    1    3    3  502    0 -0.11560597240E+02  0.23914181709E+02 -0.49669966326E+02  0.56521951932E+02  0.47000000000E+01 0. -1.
         13    1    6    6    0    0 -0.38501150155E+02  0.78847065352E+02 -0.84860296759E+02  0.12206747414E+03  0.00000000000E+00 0. -1.
        -14    1    6    6    0    0 -0.24483522165E+02 -0.76524231167E+01 -0.70062686963E+01  0.26591168425E+02  0.00000000000E+00 0.  1.
         -5    1    5    5    0  503 -0.44645255282E+02 -0.99728553786E-01  0.54076502084E+02  0.70282052066E+02  0.47000000000E+01 0.  1.
<mgrwt>
<rscale>  2 0.21786902E+03</rscale>
<asrwt>0</asrwt>
<pdfrwt beam="1">  1       21 0.26630089E-01 0.21861218E+03</pdfrwt>
<pdfrwt beam="2">  1       21 0.42023368E-01 0.21861218E+03</pdfrwt>
<totfact> 0.72329139E+04</totfact>
</mgrwt>
</event>
<event>
12    1  0.1473662E-001  0.3544850E+03  0.7546771E-02  0.1060807E+00
         21   -1    0    0  504  503  0.00000000000E+00  0.00000000000E+00  0.83763498652E+03  0.83763498652E+03  0.00000000000E+00 0.  1.
         21   -1    0    0  502  504 -0.00000000000E+00 -0.00000000000E+00 -0.82666563000E+03  0.82666563000E+03  0.00000000000E+00 0. -1.
          6    2    1    2  502    0  0.18517311552E+03 -0.24775624750E+03 -0.74742520914E+03  0.82714952740E+03  0.17279946913E+03 0.  0.
         24    2    3    3    0    0  0.65770318388E+02 -0.40429114886E+02 -0.29342395948E+03  0.31394314341E+03  0.80637641218E+02 0.  0.
         -6    2    1    2    0  503 -0.18517311552E+03  0.24775624750E+03  0.75839456566E+03  0.83715108912E+03  0.17316866893E+03 0.  0.
        -24    2    5    5    0    0 -0.23320770467E+02  0.46554629082E+02  0.23117385311E+03  0.25007184183E+03  0.79896081818E+02 0.  0.
          2    1    4    4  501    0 -0.11252069084E+02 -0.12010686767E+02 -0.13019332256E+03  0.13122944370E+03  0.00000000000E+00 0. -1.
         -1    1    4    4    0  501  0.77022387472E+02 -0.28418428119E+02 -0.16323063692E+03  0.18271369970E+03  0.00000000000E+00 0.  1.
          5    1    3    3  502    0  0.11940279714E+03 -0.20732713261E+03 -0.45400124966E+03  0.51320638399E+03  0.47000000000E+01 0. -1.
         11    1    6    6    0    0 -0.20120064244E+02  0.73168581363E+01  0.70848633810E+01  0.22551024085E+02  0.00000000000E+00 0. -1.
        -12    1    6    6    0    0 -0.32007062231E+01  0.39237770945E+02  0.22408898973E+03  0.22752081774E+03  0.00000000000E+00 0.  1.
         -5    1    5    5    0  503 -0.16185234506E+03  0.20120161842E+03  0.52722071255E+03  0.58707924729E+03  0.47000000000E+01 0.  1.
<mgrwt>
<rscale>  2 0.35443996E+03</rscale>
<asrwt>0</asrwt>
<pdfrwt beam="1">  1       21 0.12886692E+00 0.35448502E+03</pdfrwt>
<pdfrwt beam="2">  1       21 0.12717933E+00 0.35448502E+03</pdfrwt>
<totfact> 0.17375528E+02</totfact>
</mgrwt>
</event>
<event>
12    1  0.1473662E-001  0.1802917E+03  0.7546771E-02  0.1167806E+00
         21   -1    0    0  504  503  0.00000000000E+00  0.00000000000E+00  0.21080947362E+03  0.21080947362E+03  0.00000000000E+00 0.  1.
         21   -1    0    0  502  504 -0.00000000000E+00 -0.00000000000E+00 -0.15454109703E+03  0.15454109703E+03  0.00000000000E+00 0.  1.
          6    2    1    2  502    0 -0.25296306837E+02  0.38959338141E+02  0.11119439373E+02  0.18063425628E+03  0.17420493518E+03 0.  0.
         24    2    3    3    0    0  0.44590009173E+02  0.29602645110E+02  0.38785670355E+02  0.10474515821E+03  0.81256596208E+02 0.  0.
         -6    2    1    2    0  503  0.25296306837E+02 -0.38959338141E+02  0.45148937222E+02  0.18471631437E+03  0.17298542451E+03 0.  0.
        -24    2    5    5    0    0  0.57070369356E+02  0.28709591326E+02  0.42192489755E+02  0.10975295235E+03  0.78639917753E+02 0.  0.
          4    1    4    4  501    0  0.33841235671E+02 -0.22938845913E+02  0.29262798941E+02  0.50276548066E+02  0.00000000000E+00 0. -1.
         -3    1    4    4    0  501  0.10748773502E+02  0.52541491023E+02  0.95228714140E+01  0.54468610141E+02  0.00000000000E+00 0.  1.
          5    1    3    3  502    0 -0.69886316010E+02  0.93566930311E+01 -0.27666230982E+02  0.75889098075E+02  0.47000000000E+01 0. -1.
         11    1    6    6    0    0 -0.23166337113E+01  0.30331941711E+02  0.40065875074E+02  0.50305743461E+02  0.00000000000E+00 0. -1.
        -12    1    6    6    0    0  0.59387003068E+02 -0.16223503846E+01  0.21266146813E+01  0.59447208884E+02  0.00000000000E+00 0.  1.
         -5    1    5    5    0  503 -0.31774062520E+02 -0.67668929467E+02  0.29564474662E+01  0.74963362024E+02  0.47000000000E+01 0.  1.
<mgrwt>
<rscale>  2 0.17999645E+03</rscale>
<asrwt>0</asrwt>
<pdfrwt beam="1">  1       21 0.32432227E-01 0.18029169E+03</pdfrwt>
<pdfrwt beam="2">  1       21 0.23775553E-01 0.18029169E+03</pdfrwt>
<totfact> 0.15306531E+05</totfact>
</mgrwt>
</event>
<event>
12    1  0.1473662E-001  0.2640901E+03  0.7546771E-02  0.1104737E+00
         21   -1    0    0  504  503  0.00000000000E+00  0.00000000000E+00  0.84558190484E+02  0.84558190484E+02  0.00000000000E+00 0. -1.
         21   -1    0    0  502  504 -0.00000000000E+00 -0.00000000000E+00 -0.13776467945E+04  0.13776467945E+04  0.00000000000E+00 0.  1.
          6    2    1    2  502    0 -0.86038474252E+02  0.17918251273E+03 -0.18329963851E+03  0.32146899845E+03  0.17388090053E+03 0.  0.
         24    2    3    3    0    0 -0.65555255382E+02  0.14295286793E+03 -0.20838983484E+03  0.27264526069E+03  0.78588173117E+02 0.  0.
         -6    2    1    2    0  503  0.86038474252E+02 -0.17918251273E+03 -0.11097889655E+04  0.11407359865E+04  0.17360314250E+03 0.  0.
        -24    2    5    5    0    0  0.55848595802E+02 -0.18712468317E+03 -0.73736535155E+03  0.76697677920E+03  0.80068754585E+02 0.  0.
          2    1    4    4  501    0 -0.66595515081E+02  0.52028405633E+02 -0.91568750110E+02  0.12460639477E+03  0.00000000000E+00 0. -1.
         -1    1    4    4    0  501  0.10402596983E+01  0.90924462300E+02 -0.11682108473E+03  0.14803886592E+03  0.00000000000E+00 0.  1.
          5    1    3    3  502    0 -0.20483218870E+02  0.36229644796E+02  0.25090196330E+02  0.48823737763E+02  0.47000000000E+01 0. -1.
         13    1    6    6    0    0  0.28613620722E+02 -0.45082932207E+02 -0.99521370956E+02  0.11294119419E+03  0.00000000000E+00 0. -1.
        -14    1    6    6    0    0  0.27234975080E+02 -0.14204175096E+03 -0.63784398060E+03  0.65403558502E+03  0.00000000000E+00 0.  1.
         -5    1    5    5    0  503  0.30189878450E+02  0.79421704424E+01 -0.37242361392E+03  0.37375920729E+03  0.47000000000E+01 0.  1.
<mgrwt>
<rscale>  2 0.26404435E+03</rscale>
<asrwt>0</asrwt>
<pdfrwt beam="1">  1       21 0.13008953E-01 0.26409006E+03</pdfrwt>
<pdfrwt beam="2">  1       21 0.21194566E+00 0.26409006E+03</pdfrwt>
<totfact> 0.54041285E+03</totfact>
</mgrwt>
</event>
<event>
12    1  0.1473662E-001  0.3056730E+03  0.7546771E-02  0.1082821E+00
         21   -1    0    0  504  503  0.00000000000E+00  0.00000000000E+00  0.40059311495E+03  0.40059311495E+03  0.00000000000E+00 0.  1.
         21   -1    0    0  502  504 -0.00000000000E+00 -0.00000000000E+00 -0.23092821712E+03  0.23092821712E+03  0.00000000000E+00 0. -1.
          6    2    1    2  502    0  0.24084137674E+03  0.65262993953E+02  0.89445732707E+02  0.31549746006E+03  0.17109728540E+03 0.  0.
         24    2    3    3    0    0  0.11366751553E+03 -0.29314012198E+01  0.76161113634E+02  0.17050698584E+03  0.10170162138E+03 0.  0.
         -6    2    1    2    0  503 -0.24084137674E+03 -0.65262993953E+02  0.80219165126E+02  0.31602387201E+03  0.17655635387E+03 0.  0.
        -24    2    5    5    0    0 -0.18333362307E+03 -0.82049528441E+02  0.11698999377E+03  0.24557450500E+03  0.79226487988E+02 0.  0.
          2    1    4    4  501    0  0.72865178035E+02 -0.30412371345E+02 -0.10403487144E+01  0.78964098338E+02  0.00000000000E+00 0. -1.
         -1    1    4    4    0  501  0.40802337490E+02  0.27480970125E+02  0.77201462348E+02  0.91542887503E+02  0.00000000000E+00 0.  1.
          5    1    3    3  502    0  0.12717386122E+03  0.68194395173E+02  0.13284619073E+02  0.14499047422E+03  0.47000000000E+01 0. -1.
         13    1    6    6    0    0 -0.11427821921E+03 -0.42739512352E+02  0.25955740087E+02  0.12473923899E+03  0.00000000000E+00 0. -1.
        -14    1    6    6    0    0 -0.69055403861E+02 -0.39310016089E+02  0.91034253680E+02  0.12083526600E+03  0.00000000000E+00 0.  1.
         -5    1    5    5    0  503 -0.57507753675E+02  0.16786534488E+02 -0.36770828641E+02  0.70449367007E+02  0.47000000000E+01 0.  1.
<mgrwt>
<rscale>  2 0.30488990E+03</rscale>
<asrwt>0</asrwt>
<pdfrwt beam="1">  1       21 0.61629710E-01 0.30567298E+03</pdfrwt>
<pdfrwt beam="2">  1       21 0.35527418E-01 0.30567298E+03</pdfrwt>
<totfact> 0.17656355E+04</totfact>
</mgrwt>
</event>
<event>
12    1  0.1473662E-001  0.2028716E+03  0.7546771E-02  0.1151152E+00
         21   -1    0    0  504  503  0.00000000000E+00  0.00000000000E+00  0.18266206678E+03  0.18266206678E+03  0.00000000000E+00 0. -1.
         21   -1    0    0  502  504 -0.00000000000E+00 -0.00000000000E+00 -0.30270038956E+03  0.30270038956E+03  0.00000000000E+00 0. -1.
          6    2    1    2  502    0 -0.23121026175E+02 -0.66159218812E+02 -0.19506415785E+03  0.26906227163E+03  0.17156006602E+03 0.  0.
         24    2    3    3    0    0  0.19071541308E+02 -0.60684358677E+02 -0.76768003052E+02  0.14325981902E+03  0.10287727823E+03 0.  0.
         -6    2    1    2    0  503  0.23121026175E+02  0.66159218812E+02  0.75025835067E+02  0.21630018472E+03  0.19038190538E+03 0.  0.
        -24    2    5    5    0    0 -0.41364343529E+02  0.16609826355E+02  0.95476549839E+02  0.13231312063E+03  0.80025590127E+02 0.  0.
          4    1    4    4  501    0  0.58959638335E+02 -0.34402427708E+02 -0.24685504032E+02  0.72588842766E+02  0.00000000000E+00 0. -1.
         -3    1    4    4    0  501 -0.39888097027E+02 -0.26281930970E+02 -0.52082499020E+02  0.70670976250E+02  0.00000000000E+00 0.  1.
          5    1    3    3  502    0 -0.42192567484E+02 -0.54748601343E+01 -0.11829615480E+03  0.12580245261E+03  0.47000000000E+01 0. -1.
         13    1    6    6    0    0  0.24185088323E+02  0.12815906856E+01  0.27501671846E+02  0.36645639935E+02  0.00000000000E+00 0. -1.
        -14    1    6    6    0    0 -0.65549431853E+02  0.15328235669E+02  0.67974877993E+02  0.95667480698E+02  0.00000000000E+00 0.  1.
         -5    1    5    5    0  503  0.64485369704E+02  0.49549392457E+02 -0.20450714771E+02  0.83987064084E+02  0.47000000000E+01 0.  1.
<mgrwt>
<rscale>  2 0.19833442E+03</rscale>
<asrwt>0</asrwt>
<pdfrwt beam="1">  1       21 0.28101857E-01 0.20287162E+03</pdfrwt>
<pdfrwt beam="2">  1       21 0.46569290E-01 0.20287162E+03</pdfrwt>
<totfact> 0.53161404E+04</totfact>
</mgrwt>
</event>
<event>
12    1  0.1473662E-001  0.2503154E+03  0.7546771E-02  0.1114096E+00
         21   -1    0    0  504  503  0.00000000000E+00  0.00000000000E+00  0.10638062465E+04  0.10638062465E+04  0.00000000000E+00 0. -1.
         21   -1    0    0  502  504 -0.00000000000E+00 -0.00000000000E+00 -0.81884044578E+02  0.81884044578E+02  0.00000000000E+00 0. -1.
          6    2    1    2  502    0 -0.17190874972E+03  0.14554140167E+02  0.17374219411E+03  0.29963312951E+03  0.17271138079E+03 0.  0.
         24    2    3    3    0    0 -0.36392856074E+02  0.66191932966E+02  0.83687612150E+02  0.12886153700E+03  0.62416883346E+02 0.  0.
         -6    2    1    2    0  503  0.17190874972E+03 -0.14554140167E+02  0.80818000785E+03  0.84605716161E+03  0.18136525137E+03 0.  0.
        -24    2    5    5    0    0  0.18287450216E+03 -0.17766067810E+02  0.81013362874E+03  0.83354833112E+03  0.68757597322E+02 0.  0.
          4    1    4    4  501    0 -0.36897720947E+00  0.49360004756E+02  0.18921629053E+02  0.52863732934E+02  0.00000000000E+00 0. -1.
         -3    1    4    4    0  501 -0.36023878864E+02  0.16831928210E+02  0.64765983097E+02  0.75997804062E+02  0.00000000000E+00 0.  1.
          5    1    3    3  502    0 -0.13551589365E+03 -0.51637792799E+02  0.90054581965E+02  0.17077159251E+03  0.47000000000E+01 0. -1.
         11    1    6    6    0    0  0.59868806143E+02  0.18149568153E+02  0.36561028236E+03  0.37092392662E+03  0.00000000000E+00 0. -1.
        -12    1    6    6    0    0  0.12300569602E+03 -0.35915635964E+02  0.44452334638E+03  0.46262440450E+03  0.00000000000E+00 0.  1.
         -5    1    5    5    0  503 -0.10965752441E+02  0.32119276429E+01 -0.19536208899E+01  0.12508830495E+02  0.47000000000E+01 0.  1.
<mgrwt>
<rscale>  2 0.24875148E+03</rscale>
<asrwt>0</asrwt>
<pdfrwt beam="1">  1       21 0.16366249E+00 0.25031539E+03</pdfrwt>
<pdfrwt beam="2">  1       21 0.12597546E-01 0.25031539E+03</pdfrwt>
<totfact> 0.12244251E+04</totfact>
</mgrwt>
</event>
<event>
12    1  0.1473662E-001  0.2089228E+03  0.7546771E-02  0.1142542E+00
         21   -1    0    0  504  503  0.00000000000E+00  0.00000000000E+00  0.73123573324E+02  0.73123573324E+02  0.00000000000E+00 0. -1.
         21   -1    0    0  502  504 -0.00000000000E+00 -0.00000000000E+00 -0.62654687653E+03  0.62654687653E+03  0.00000000000E+00 0. -1.
          6    2    1    2  502    0  0.10522049502E+03 -0.54429528460E+02 -0.35533837216E+03  0.41220636490E+03  0.17208951855E+03 0.  0.
         24    2    3    3    0    0  0.11378182331E+03 -0.81925899465E+02 -0.34261017163E+03  0.38037173204E+03  0.87422928982E+02 0.  0.
         -6    2    1    2    0  503 -0.10522049502E+03  0.54429528460E+02 -0.19808493105E+03  0.28746408496E+03  0.17135937118E+03 0.  0.
        -24    2    5    5    0    0 -0.19535418597E+02  0.81804969680E+02 -0.98351418770E+02  0.15307580208E+03  0.81764992294E+02 0.  0.
          2    1    4    4  501    0  0.12853186690E+02 -0.55677865321E+02 -0.16242971705E+03  0.17218781047E+03  0.00000000000E+00 0. -1.
         -1    1    4    4    0  501  0.10092863662E+03 -0.26248034144E+02 -0.18018045458E+03  0.20818392157E+03  0.00000000000E+00 0.  1.
          5    1    3    3  502    0 -0.85613282890E+01  0.27496371005E+02 -0.12728200526E+02  0.31834632857E+02  0.47000000000E+01 0. -1.
         11    1    6    6    0    0  0.11439867311E+02  0.41432040554E+02 -0.73096731528E+00  0.42988589902E+02  0.00000000000E+00 0. -1.
        -12    1    6    6    0    0 -0.30975285908E+02  0.40372929126E+02 -0.97620451454E+02  0.11008721218E+03  0.00000000000E+00 0.  1.
         -5    1    5    5    0  503 -0.85685076419E+02 -0.27375441220E+02 -0.99733512285E+02  0.13438828288E+03  0.47000000000E+01 0.  1.
<mgrwt>
<rscale>  2 0.20877237E+03</rscale>
<asrwt>0</asrwt>
<pdfrwt beam="1">  1       21 0.11249780E-01 0.20892278E+03</pdfrwt>
<pdfrwt beam="2">  1       21 0.96391831E-01 0.20892278E+03</pdfrwt>
<totfact> 0.58487216E+04</totfact>
</mgrwt>
</event>
<event>
12    1  0.1473662E-001  0.1879242E+03  0.7546771E-02  0.1160457E+00
         21   -1    0    0  504  503  0.00000000000E+00  0.00000000000E+00  0.11423598460E+03  0.11423598460E+03  0.00000000000E+00 0.  1.
         21   -1    0    0  502  504 -0.00000000000E+00 -0.00000000000E+00 -0.55268680308E+03  0.55268680308E+03  0.00000000000E+00 0.  1.
          6    2    1    2  502    0  0.64741038223E+02 -0.34116166182E+02 -0.44078474836E+03  0.47898411768E+03  0.17256672847E+03 0.  0.
         24    2    3    3    0    0  0.67844453360E+02 -0.82419864882E+02 -0.26595715510E+03  0.29751881560E+03  0.79927049901E+02 0.  0.
         -6    2    1    2    0  503 -0.64741038223E+02  0.34116166182E+02  0.23339298780E+01  0.18793867000E+03  0.17309009685E+03 0.  0.
        -24    2    5    5    0    0 -0.72137118005E+01 -0.42182088740E+02  0.13507031788E+02  0.91617617285E+02  0.79874787267E+02 0.  0.
          2    1    4    4  501    0  0.27194114414E+02 -0.23133424064E-01 -0.16809691236E+02  0.31970081536E+02  0.00000000000E+00 0. -1.
         -1    1    4    4    0  501  0.40650338946E+02 -0.82396731458E+02 -0.24914746386E+03  0.26554873406E+03  0.00000000000E+00 0.  1.
          5    1    3    3  502    0 -0.31034151371E+01  0.48303698701E+02 -0.17482759326E+03  0.18146530208E+03  0.47000000000E+01 0. -1.
         11    1    6    6    0    0  0.22095032672E+02  0.15962497908E+01 -0.19446173949E+02  0.29476976836E+02  0.00000000000E+00 0. -1.
        -12    1    6    6    0    0 -0.29308744472E+02 -0.43778338531E+02  0.32953205737E+02  0.62140640449E+02  0.00000000000E+00 0.  1.
         -5    1    5    5    0  503 -0.57527326423E+02  0.76298254922E+02 -0.11173101910E+02  0.96321052713E+02  0.47000000000E+01 0.  1.
<mgrwt>
<rscale>  2 0.18780358E+03</rscale>
<asrwt>0</asrwt>
<pdfrwt beam="1">  1       21 0.17574767E-01 0.18792418E+03</pdfrwt>
<pdfrwt beam="2">  1       21 0.85028739E-01 0.18792418E+03</pdfrwt>
<totfact> 0.35221685E+04</totfact>
</mgrwt>
</event>
<event>
12    1  0.1473662E-001  0.2001370E+03  0.7546771E-02  0.1153015E+00
         21   -1    0    0  504  503  0.00000000000E+00  0.00000000000E+00  0.64168999040E+02  0.64168999040E+02  0.00000000000E+00 0. -1.
         21   -1    0    0  502  504 -0.00000000000E+00 -0.00000000000E+00 -0.66675001790E+03  0.66675001790E+03  0.00000000000E+00 0. -1.
          6    2    1    2  502    0  0.51913008199E+02 -0.36235809559E+02 -0.44569346786E+03  0.48856677286E+03  0.18986002720E+03 0.  0.
         24    2    3    3    0    0  0.95589586775E+02  0.20682541581E+02 -0.30834351757E+03  0.33353632083E+03  0.81274939892E+02 0.  0.
         -6    2    1    2    0  503 -0.51913008199E+02  0.36235809559E+02 -0.15688755100E+03  0.24235224408E+03  0.17353072419E+03 0.  0.
        -24    2    5    5    0    0  0.17828614749E+02  0.55649439392E+02 -0.13035973632E+03  0.16510848740E+03  0.82779418642E+02 0.  0.
          2    1    4    4  501    0  0.49676293981E+02  0.15817372276E+02 -0.26543345055E+03  0.27050478761E+03  0.00000000000E+00 0. -1.
         -1    1    4    4    0  501  0.45913292795E+02  0.48651693048E+01 -0.42910067026E+02  0.63031533218E+02  0.00000000000E+00 0.  1.
          5    1    3    3  502    0 -0.43676578576E+02 -0.56918351140E+02 -0.13734995029E+03  0.15503045203E+03  0.47000000000E+01 0. -1.
         11    1    6    6    0    0  0.48371785879E+02  0.17207877656E+02 -0.55711746329E+02  0.75761067849E+02  0.00000000000E+00 0. -1.
        -12    1    6    6    0    0 -0.30543171131E+02  0.38441561736E+02 -0.74647989987E+02  0.89347419551E+02  0.00000000000E+00 0.  1.
         -5    1    5    5    0  503 -0.69741622948E+02 -0.19413629833E+02 -0.26527814681E+02  0.77243756682E+02  0.47000000000E+01 0.  1.
<mgrwt>
<rscale>  2 0.19616573E+03</rscale>
<asrwt>0</asrwt>
<pdfrwt beam="1">  1       21 0.98721538E-02 0.20013701E+03</pdfrwt>
<pdfrwt beam="2">  1       21 0.10257692E+00 0.20013701E+03</pdfrwt>
<totfact> 0.63903587E+04</totfact>
</mgrwt>
</event>
<event>
12    1  0.1473662E-001  0.2002796E+03  0.7546771E-02  0.1150094E+00
         21   -1    0    0  504  503  0.00000000000E+00  0.00000000000E+00  0.70469279491E+02  0.70469279491E+02  0.00000000000E+00 0. -1.
         21   -1    0    0  502  504 -0.00000000000E+00 -0.00000000000E+00 -0.58502703632E+03  0.58502703632E+03  0.00000000000E+00 0. -1.
          6    2    1    2  502    0 -0.76827842756E+02 -0.67144113407E+02 -0.19304401767E+03  0.27816884429E+03  0.17233996574E+03 0.  0.
         24    2    3    3    0    0 -0.29928864073E+02  0.30795250460E+02 -0.76404922461E+02  0.11873734889E+03  0.80104690807E+02 0.  0.
         -6    2    1    2    0  503  0.76827842756E+02  0.67144113407E+02 -0.32151373916E+03  0.37732747152E+03  0.16909786192E+03 0.  0.
        -24    2    5    5    0    0  0.28449633936E+02  0.82871346654E+02 -0.11325181085E+03  0.16289119255E+03  0.77656462593E+02 0.  0.
          2    1    4    4  501    0  0.83700289918E+00  0.35490995286E+02  0.78496953744E+00  0.35509540935E+02  0.00000000000E+00 0. -1.
         -1    1    4    4    0  501 -0.30765866972E+02 -0.46957448262E+01 -0.77189891999E+02  0.83227807954E+02  0.00000000000E+00 0.  1.
          5    1    3    3  502    0 -0.46898978683E+02 -0.97939363867E+02 -0.11663909520E+03  0.15943149540E+03  0.47000000000E+01 0. -1.
         11    1    6    6    0    0 -0.13400394588E+02  0.56271658065E+02 -0.27998063807E+02  0.64264777705E+02  0.00000000000E+00 0. -1.
        -12    1    6    6    0    0  0.41850028524E+02  0.26599688589E+02 -0.85253747045E+02  0.98626414848E+02  0.00000000000E+00 0.  1.
         -5    1    5    5    0  503  0.48378208819E+02 -0.15727233247E+02 -0.20826192831E+03  0.21443627897E+03  0.47000000000E+01 0.  1.
<mgrwt>
<rscale>  2 0.19958020E+03</rscale>
<asrwt>0</asrwt>
<pdfrwt beam="1">  1       21 0.10841428E-01 0.20027959E+03</pdfrwt>
<pdfrwt beam="2">  1       21 0.90004158E-01 0.20027959E+03</pdfrwt>
<totfact> 0.73614937E+04</totfact>
</mgrwt>
</event>
<event>
12    1  0.1473662E-001  0.2566158E+03  0.7546771E-02  0.1109223E+00
         21   -1    0    0  504  503  0.00000000000E+00  0.00000000000E+00  0.74972677684E+03  0.74972677684E+03  0.00000000000E+00 0.  1.
         21   -1    0    0  502  504 -0.00000000000E+00 -0.00000000000E+00 -0.94957925758E+02  0.94957925758E+02  0.00000000000E+00 0. -1.
          6    2    1    2  502    0 -0.33400156100E+02  0.18632381101E+03  0.21105691874E+03  0.33211087408E+03  0.17297536459E+03 0.  0.
         24    2    3    3    0    0 -0.48523203649E+02  0.17698832461E+03  0.10695001786E+03  0.22639335101E+03  0.78334377628E+02 0.  0.
         -6    2    1    2    0  503  0.33400156100E+02 -0.18632381101E+03  0.44371193234E+03  0.51257382851E+03  0.17326141463E+03 0.  0.
        -24    2    5    5    0    0  0.12043801722E+02 -0.17108153494E+03  0.23148011579E+03  0.29867465879E+03  0.78800780716E+02 0.  0.
          4    1    4    4  501    0  0.49116409924E+01  0.49770772206E+02 -0.27912807562E+01  0.50090370646E+02  0.00000000000E+00 0. -1.
         -3    1    4    4    0  501 -0.53434844642E+02  0.12721755241E+03  0.10974129861E+03  0.17630298036E+03  0.00000000000E+00 0.  1.
          5    1    3    3  502    0  0.15123047549E+02  0.93354863992E+01  0.10410690088E+03  0.10571752307E+03  0.47000000000E+01 0. -1.
         11    1    6    6    0    0  0.17705717499E+02 -0.50704127005E+02  0.13165754195E+03  0.14219039799E+03  0.00000000000E+00 0. -1.
        -12    1    6    6    0    0 -0.56619157771E+01 -0.12037740793E+03  0.99822573833E+02  0.15648426080E+03  0.00000000000E+00 0.  1.
         -5    1    5    5    0  503  0.21356354378E+02 -0.15242276073E+02  0.21223181655E+03  0.21389916972E+03  0.47000000000E+01 0.  1.
<mgrwt>
<rscale>  2 0.25656749E+03</rscale>
<asrwt>0</asrwt>
<pdfrwt beam="1">  1       21 0.11534258E+00 0.25661576E+03</pdfrwt>
<pdfrwt beam="2">  1       21 0.14608912E-01 0.25661576E+03</pdfrwt>
<totfact> 0.23124437E+04</totfact>
</mgrwt>
</event>
<event>
12    1  0.1473662E-001  0.2373188E+03  0.7546771E-02  0.1121776E+00
         21   -1    0    0  504  503  0.00000000000E+00  0.00000000000E+00  0.16416977871E+04  0.16416977871E+04  0.00000000000E+00 0.  1.
         21   -1    0    0  502  504 -0.00000000000E+00 -0.00000000000E+00 -0.98988892168E+02  0.98988892168E+02  0.00000000000E+00 0. -1.
          6    2    1    2  502    0  0.14113836068E+03  0.79207479265E+02  0.66343614049E+02  0.24536910765E+03  0.17207748904E+03 0.  0.
         24    2    3    3    0    0  0.12163994775E+03  0.99652830895E+02  0.98738857657E+02  0.20212859055E+03  0.79872658115E+02 0.  0.
         -6    2    1    2    0  503 -0.14113836068E+03 -0.79207479265E+02  0.14763652809E+04  0.14953175717E+04  0.17356939756E+03 0.  0.
        -24    2    5    5    0    0 -0.18527774579E+02 -0.49690993158E+02  0.38872232185E+03  0.40037744764E+03  0.79903590899E+02 0.  0.
          2    1    4    4  501    0  0.11353920036E+03  0.89029209736E+02  0.51757540896E+02  0.15328468040E+03  0.00000000000E+00 0. -1.
         -1    1    4    4    0  501  0.81007473866E+01  0.10623621158E+02  0.46981316762E+02  0.48843910157E+02  0.00000000000E+00 0.  1.
          5    1    3    3  502    0  0.19498412936E+02 -0.20445351630E+02 -0.32395243608E+02  0.43240517096E+02  0.47000000000E+01 0. -1.
         13    1    6    6    0    0 -0.42442816798E+02 -0.46498362796E+02  0.18914978282E+03  0.19935177647E+03  0.00000000000E+00 0. -1.
        -14    1    6    6    0    0  0.23915042219E+02 -0.31926303623E+01  0.19957253904E+03  0.20102567117E+03  0.00000000000E+00 0.  1.
         -5    1    5    5    0  503 -0.12261058610E+03 -0.29516486107E+02  0.10876429591E+04  0.10949401240E+04  0.47000000000E+01 0.  1.
<mgrwt>
<rscale>  2 0.23704606E+03</rscale>
<asrwt>0</asrwt>
<pdfrwt beam="1">  1       21 0.25256887E+00 0.23731877E+03</pdfrwt>
<pdfrwt beam="2">  1       21 0.15229062E-01 0.23731877E+03</pdfrwt>
<totfact> 0.23396424E+03</totfact>
</mgrwt>
</event>
<event>
12    1  0.1473662E-001  0.1768177E+03  0.7546771E-02  0.1171661E+00
         21   -1    0    0  504  503  0.00000000000E+00  0.00000000000E+00  0.31636324763E+03  0.31636324763E+03  0.00000000000E+00 0. -1.
         21   -1    0    0  502  504 -0.00000000000E+00 -0.00000000000E+00 -0.13866691085E+03  0.13866691085E+03  0.00000000000E+00 0. -1.
          6    2    1    2  502    0 -0.25689454491E+01  0.23508992183E+02 -0.35078975316E+02  0.18026382119E+03  0.17522910297E+03 0.  0.
         24    2    3    3    0    0 -0.15297335947E+02 -0.45888995554E+02  0.13173211277E+02  0.94657418761E+02  0.80291251274E+02 0.  0.
         -6    2    1    2    0  503  0.25689454491E+01 -0.23508992183E+02  0.21277531210E+03  0.27476633728E+03  0.17223221089E+03 0.  0.
        -24    2    5    5    0    0  0.58479063639E+02 -0.12232405812E+02  0.18604512840E+03  0.21160230134E+03  0.81199208701E+02 0.  0.
          2    1    4    4  501    0 -0.31623637143E+02  0.10931654165E+02 -0.23238901351E+01  0.33540363061E+02  0.00000000000E+00 0. -1.
         -1    1    4    4    0  501  0.16326301196E+02 -0.56820649719E+02  0.15497101412E+02  0.61117055700E+02  0.00000000000E+00 0.  1.
          5    1    3    3  502    0  0.12728390497E+02  0.69397987737E+02 -0.48252186593E+02  0.85606402433E+02  0.47000000000E+01 0. -1.
         13    1    6    6    0    0  0.12806081846E+02 -0.33393911825E+02  0.27088192956E+02  0.44865568946E+02  0.00000000000E+00 0. -1.
        -14    1    6    6    0    0  0.45672981793E+02  0.21161506013E+02  0.15895693544E+03  0.16673673239E+03  0.00000000000E+00 0.  1.
         -5    1    5    5    0  503 -0.55910118190E+02 -0.11276586371E+02  0.26730183701E+02  0.63164035945E+02  0.47000000000E+01 0.  1.
<mgrwt>
<rscale>  2 0.17607064E+03</rscale>
<asrwt>0</asrwt>
<pdfrwt beam="1">  1       21 0.48671269E-01 0.17681773E+03</pdfrwt>
<pdfrwt beam="2">  1       21 0.21333371E-01 0.17681773E+03</pdfrwt>
<totfact> 0.82962952E+04</totfact>
</mgrwt>
</event>
<event>
12    1  0.1473662E-001  0.2339450E+03  0.7546771E-02  0.1123919E+00
         21   -1    0    0  504  503  0.00000000000E+00  0.00000000000E+00  0.24378305284E+03  0.24378305284E+03  0.00000000000E+00 0.  1.
         21   -1    0    0  502  504 -0.00000000000E+00 -0.00000000000E+00 -0.33076150687E+03  0.33076150687E+03  0.00000000000E+00 0.  1.
          6    2    1    2  502    0 -0.11573671142E+03  0.10684086132E+03 -0.20643199534E+03  0.31200071436E+03  0.17297491449E+03 0.  0.
         24    2    3    3    0    0 -0.13506065498E+03  0.99969032656E+02 -0.21929778718E+03  0.28733787950E+03  0.78970561098E+02 0.  0.
         -6    2    1    2    0  503  0.11573671142E+03 -0.10684086132E+03  0.11945354132E+03  0.26254384535E+03  0.17277200635E+03 0.  0.
        -24    2    5    5    0    0  0.12699838972E+03 -0.12893891675E+03  0.12811401812E+03  0.23585595839E+03  0.80380322373E+02 0.  0.
          2    1    4    4  501    0 -0.11186770607E+03  0.11168358659E+03 -0.17372886947E+03  0.23488151750E+03  0.00000000000E+00 0. -1.
         -1    1    4    4    0  501 -0.23192948905E+02 -0.11714553937E+02 -0.45568917713E+02  0.52456362001E+02  0.00000000000E+00 0.  1.
          5    1    3    3  502    0  0.19323943555E+02  0.68718286630E+01  0.12865791840E+02  0.24662834860E+02  0.47000000000E+01 0. -1.
         11    1    6    6    0    0  0.44578143394E+02 -0.37934289838E+02  0.17626865467E+00  0.58534197565E+02  0.00000000000E+00 0. -1.
        -12    1    6    6    0    0  0.82420246329E+02 -0.91004626911E+02  0.12793774946E+03  0.17732176082E+03  0.00000000000E+00 0.  1.
         -5    1    5    5    0  503 -0.11261678299E+02  0.22098055430E+02 -0.86604767966E+01  0.26687886957E+02  0.47000000000E+01 0.  1.
<mgrwt>
<rscale>  2 0.23390752E+03</rscale>
<asrwt>0</asrwt>
<pdfrwt beam="1">  1       21 0.37505085E-01 0.23394503E+03</pdfrwt>
<pdfrwt beam="2">  1       21 0.50886385E-01 0.23394503E+03</pdfrwt>
<totfact> 0.24627799E+04</totfact>
</mgrwt>
</event>
<event>
12    1  0.1473662E-001  0.2228868E+03  0.7546771E-02  0.1132254E+00
         21   -1    0    0  504  503  0.00000000000E+00  0.00000000000E+00  0.26564375147E+03  0.26564375147E+03  0.00000000000E+00 0.  1.
         21   -1    0    0  502  504 -0.00000000000E+00 -0.00000000000E+00 -0.51419931045E+03  0.51419931045E+03  0.00000000000E+00 0. -1.
          6    2    1    2  502    0  0.13614898857E+03 -0.66671941958E+01 -0.43612104440E+03  0.48853679757E+03  0.17287463274E+03 0.  0.
         24    2    3    3    0    0  0.16521363324E+03  0.13208271628E+02 -0.37838928571E+03  0.42075159510E+03  0.79896496760E+02 0.  0.
         -6    2    1    2    0  503 -0.13614898857E+03  0.66671941958E+01  0.18756548542E+03  0.29130626435E+03  0.17634491703E+03 0.  0.
        -24    2    5    5    0    0 -0.98914502988E+01  0.41490799868E+02  0.88468579252E+02  0.12700186303E+03  0.80519913277E+02 0.  0.
          4    1    4    4  501    0  0.12102303283E+03  0.42508445039E+02 -0.29820345131E+03  0.32462107256E+03  0.00000000000E+00 0. -1.
         -3    1    4    4    0  501  0.44190600412E+02 -0.29300173411E+02 -0.80185834392E+02  0.96130522540E+02  0.00000000000E+00 0.  1.
          5    1    3    3  502    0 -0.29064644673E+02 -0.19875465824E+02 -0.57731758689E+02  0.67785202464E+02  0.47000000000E+01 0. -1.
         13    1    6    6    0    0 -0.11616362270E+02 -0.20447816979E+02  0.46666153751E+02  0.52256894258E+02  0.00000000000E+00 0. -1.
        -14    1    6    6    0    0  0.17249119710E+01  0.61938616847E+02  0.41802425502E+02  0.74744968767E+02  0.00000000000E+00 0.  1.
         -5    1    5    5    0  503 -0.12625753827E+03 -0.34823605672E+02  0.99096906165E+02  0.16430440132E+03  0.47000000000E+01 0.  1.
<mgrwt>
<rscale>  2 0.22219978E+03</rscale>
<asrwt>0</asrwt>
<pdfrwt beam="1">  1       21 0.40868270E-01 0.22288681E+03</pdfrwt>
<pdfrwt beam="2">  1       21 0.79107586E-01 0.22288681E+03</pdfrwt>
<totfact> 0.79667524E+03</totfact>
</mgrwt>
</event>
<event>
12    1  0.1473662E-001  0.2332579E+03  0.7546771E-02  0.1124751E+00
         21   -1    0    0  504  503  0.00000000000E+00  0.00000000000E+00  0.45228644560E+02  0.45228644560E+02  0.00000000000E+00 0. -1.
         21   -1    0    0  502  504 -0.00000000000E+00 -0.00000000000E+00 -0.11936612842E+04  0.11936612842E+04  0.00000000000E+00 0.  1.
          6    2    1    2  502    0  0.10245875613E+03 -0.11587777374E+03 -0.55125188543E+03  0.59857152151E+03  0.17459601949E+03 0.  0.
         24    2    3    3    0    0  0.45062639490E+02 -0.40843605891E+02 -0.11801671946E+03  0.15513128925E+03  0.80242938719E+02 0.  0.
         -6    2    1    2    0  503 -0.10245875613E+03  0.11587777374E+03 -0.59718075424E+03  0.64031840727E+03  0.17163144907E+03 0.  0.
        -24    2    5    5    0    0 -0.81577932125E+02  0.15069950383E+03 -0.46369874368E+03  0.50071862633E+03  0.79607276016E+02 0.  0.
          2    1    4    4  501    0  0.87333319163E+01 -0.54318949120E+02 -0.39995557718E+02  0.68018114918E+02  0.00000000000E+00 0. -1.
         -1    1    4    4    0  501  0.36329307573E+02  0.13475343228E+02 -0.78021161737E+02  0.87113174334E+02  0.00000000000E+00 0.  1.
          5    1    3    3  502    0  0.57396116642E+02 -0.75034167844E+02 -0.43323516598E+03  0.44344023226E+03  0.47000000000E+01 0. -1.
         13    1    6    6    0    0 -0.12078537991E+02  0.10478746679E+03 -0.26974303191E+03  0.28963357461E+03  0.00000000000E+00 0. -1.
        -14    1    6    6    0    0 -0.69499394135E+02  0.45912037039E+02 -0.19395571177E+03  0.21108505172E+03  0.00000000000E+00 0.  1.
         -5    1    5    5    0  503 -0.20880824007E+02 -0.34821730098E+02 -0.13348201055E+03  0.13959978094E+03  0.47000000000E+01 0.  1.
<mgrwt>
<rscale>  2 0.23270321E+03</rscale>
<asrwt>0</asrwt>
<pdfrwt beam="1">  1       21 0.69582547E-02 0.23325785E+03</pdfrwt>
<pdfrwt beam="2">  1       21 0.18364015E+00 0.23325785E+03</pdfrwt>
<totfact> 0.25582105E+04</totfact>
</mgrwt>
</event>
<event>
12    1  0.1473662E-001  0.3111424E+03  0.7546771E-02  0.1079980E+00
         21   -1    0    0  504  503  0.00000000000E+00  0.00000000000E+00  0.18152079372E+03  0.18152079372E+03  0.00000000000E+00 0. -1.
         21   -1    0    0  502  504 -0.00000000000E+00 -0.00000000000E+00 -0.56110676705E+03  0.56110676705E+03  0.00000000000E+00 0.  1.
          6    2    1    2  502    0  0.25565988883E+03  0.23636145968E+02 -0.27661596436E+03  0.41632438315E+03  0.17575253656E+03 0.  0.
         24    2    3    3    0    0  0.20594599129E+03 -0.16716711470E+02 -0.13235126620E+03  0.25841865859E+03  0.81056435094E+02 0.  0.
         -6    2    1    2    0  503 -0.25565988883E+03 -0.23636145968E+02 -0.10297000897E+03  0.32630317762E+03  0.17306153480E+03 0.  0.
        -24    2    5    5    0    0 -0.17183499920E+03 -0.70183377400E+02 -0.27935710467E+02  0.20446109612E+03  0.81061473530E+02 0.  0.
          2    1    4    4  501    0  0.19968858670E+03  0.94001171160E+00 -0.10597995105E+03  0.22607115098E+03  0.00000000000E+00 0. -1.
         -1    1    4    4    0  501  0.62574045917E+01 -0.17656723182E+02 -0.26371315152E+02  0.32347507610E+02  0.00000000000E+00 0.  1.
          5    1    3    3  502    0  0.49713897540E+02  0.40352857438E+02 -0.14426469817E+03  0.15790572456E+03  0.47000000000E+01 0. -1.
         11    1    6    6    0    0 -0.63888601884E+02 -0.51461919160E+02  0.20676461279E+02  0.84602592309E+02  0.00000000000E+00 0. -1.
        -12    1    6    6    0    0 -0.10794639732E+03 -0.18721458240E+02 -0.48612171746E+02  0.11985850381E+03  0.00000000000E+00 0.  1.
         -5    1    5    5    0  503 -0.83824889627E+02  0.46547231432E+02 -0.75034298498E+02  0.12184208151E+03  0.47000000000E+01 0.  1.
<mgrwt>
<rscale>  2 0.31076370E+03</rscale>
<asrwt>0</asrwt>
<pdfrwt beam="1">  1       21 0.27926276E-01 0.31114241E+03</pdfrwt>
<pdfrwt beam="2">  1       21 0.86324119E-01 0.31114241E+03</pdfrwt>
<totfact> 0.13300398E+04</totfact>
</mgrwt>
</event>
<event>
12    1  0.1473662E-001  0.1743119E+03  0.7546771E-02  0.1173576E+00
         21   -1    0    0  504  503  0.00000000000E+00  0.00000000000E+00  0.63954303721E+02  0.63954303721E+02  0.00000000000E+00 0. -1.
         21   -1    0    0  502  504 -0.00000000000E+00 -0.00000000000E+00 -0.49481168076E+03  0.49481168076E+03  0.00000000000E+00 0. -1.
          6    2    1    2  502    0  0.67026856874E+01  0.16494626970E+02 -0.27380352426E+03  0.32458128358E+03  0.17340023369E+03 0.  0.
         24    2    3    3    0    0  0.10581964920E+02 -0.43221346356E+02 -0.23593815359E+03  0.25361000366E+03  0.81677162531E+02 0.  0.
         -6    2    1    2    0  503 -0.67026856874E+01 -0.16494626970E+02 -0.15705385278E+03  0.23418470090E+03  0.17279919776E+03 0.  0.
        -24    2    5    5    0    0 -0.12422001319E+02  0.51422494077E+02 -0.55457901011E+02  0.11175401308E+03  0.81331430831E+02 0.  0.
          2    1    4    4  501    0 -0.31489370593E+02  0.12434551506E+01 -0.71026384868E+02  0.77703757879E+02  0.00000000000E+00 0. -1.
         -1    1    4    4    0  501  0.42071335513E+02 -0.44464801506E+02 -0.16491176872E+03  0.17590624579E+03  0.00000000000E+00 0.  1.
          5    1    3    3  502    0 -0.38792792325E+01  0.59715973326E+02 -0.37865370670E+02  0.70971279921E+02  0.47000000000E+01 0. -1.
         13    1    6    6    0    0  0.22246527466E+02  0.17630780766E+01  0.83060932063E+01  0.23811921656E+02  0.00000000000E+00 0. -1.
        -14    1    6    6    0    0 -0.34668528784E+02  0.49659416000E+02 -0.63763994217E+02  0.87942091424E+02  0.00000000000E+00 0.  1.
         -5    1    5    5    0  503  0.57193156314E+01 -0.67917121047E+02 -0.10159595177E+03  0.12243068782E+03  0.47000000000E+01 0.  1.
<mgrwt>
<rscale>  2 0.17416224E+03</rscale>
<asrwt>0</asrwt>
<pdfrwt beam="1">  1       21 0.98391236E-02 0.17431190E+03</pdfrwt>
<pdfrwt beam="2">  1       21 0.76124875E-01 0.17431190E+03</pdfrwt>
<totfact> 0.12927300E+05</totfact>
</mgrwt>
</event>
<event>
12    1  0.1473662E-001  0.1894386E+03  0.7546771E-02  0.1159201E+00
         21   -1    0    0  504  503  0.00000000000E+00  0.00000000000E+00  0.34868100154E+03  0.34868100154E+03  0.00000000000E+00 0.  1.
         21   -1    0    0  502  504 -0.00000000000E+00 -0.00000000000E+00 -0.13729693541E+03  0.13729693541E+03  0.00000000000E+00 0.  1.
          6    2    1    2  502    0 -0.39121181771E+02  0.68508664909E+02 -0.16654994517E+02  0.19016936153E+03  0.17222976860E+03 0.  0.
         24    2    3    3    0    0 -0.81813551586E+02  0.15218611806E+02  0.59884865702E+01  0.11807716059E+03  0.83554117276E+02 0.  0.
         -6    2    1    2    0  503  0.39121181771E+02 -0.68508664909E+02  0.22803906065E+03  0.29580857542E+03  0.17110521932E+03 0.  0.
        -24    2    5    5    0    0 -0.15068640785E+02 -0.37217509726E+02  0.41572000862E+02  0.99065779751E+02  0.80458625993E+02 0.  0.
          2    1    4    4  501    0 -0.84775893844E+02  0.26161594622E+02  0.28237720205E+02  0.93106122530E+02  0.00000000000E+00 0. -1.
         -1    1    4    4    0  501  0.29623422586E+01 -0.10942982816E+02 -0.22249233634E+02  0.24971038062E+02  0.00000000000E+00 0.  1.
          5    1    3    3  502    0  0.42692369815E+02  0.53290053104E+02 -0.22643481088E+02  0.72092200937E+02  0.47000000000E+01 0. -1.
         11    1    6    6    0    0  0.32745180266E+02 -0.14739751696E+02  0.24772186250E+02  0.43625317446E+02  0.00000000000E+00 0. -1.
        -12    1    6    6    0    0 -0.47813821051E+02 -0.22477758030E+02  0.16799814612E+02  0.55440462304E+02  0.00000000000E+00 0.  1.
         -5    1    5    5    0  503  0.54189822556E+02 -0.31291155183E+02  0.18646705978E+03  0.19674279567E+03  0.47000000000E+01 0.  1.
<mgrwt>
<rscale>  2 0.18918267E+03</rscale>
<asrwt>0</asrwt>
<pdfrwt beam="1">  1       21 0.53643231E-01 0.18943864E+03</pdfrwt>
<pdfrwt beam="2">  1       21 0.21122606E-01 0.18943864E+03</pdfrwt>
<totfact> 0.68616687E+04</totfact>
</mgrwt>
</event>
<event>
12    1  0.1473662E-001  0.1845743E+03  0.7546771E-02  0.1163998E+00
         21   -1    0    0  504  503  0.00000000000E+00  0.00000000000E+00  0.36120028533E+03  0.36120028533E+03  0.00000000000E+00 0.  1.
         21   -1    0    0  502  504 -0.00000000000E+00 -0.00000000000E+00 -0.10640515542E+03  0.10640515542E+03  0.00000000000E+00 0.  1.
          6    2    1    2  502    0 -0.54890133965E+02  0.37720452487E+02  0.45525860342E+02  0.19010591780E+03  0.17213917822E+03 0.  0.
         24    2    3    3    0    0 -0.15439244833E+02  0.80547643574E+02 -0.15484442626E+01  0.11508178099E+03  0.80716327159E+02 0.  0.
         -6    2    1    2    0  503  0.54890133965E+02 -0.37720452487E+02  0.20926926957E+03  0.27749952294E+03  0.16963666675E+03 0.  0.
        -24    2    5    5    0    0 -0.62055286308E+01 -0.10655527690E+02  0.20011578585E+03  0.20988986087E+03  0.62091682946E+02 0.  0.
          2    1    4    4  501    0  0.17248036155E+02  0.79893911444E+02 -0.65976184198E+01  0.82000368328E+02  0.00000000000E+00 0. -1.
         -1    1    4    4    0  501 -0.32687280988E+02  0.65373212950E+00  0.50491741572E+01  0.33081412663E+02  0.00000000000E+00 0.  1.
          5    1    3    3  502    0 -0.39450889132E+02 -0.42827191087E+02  0.47074304605E+02  0.75024136808E+02  0.47000000000E+01 0. -1.
         11    1    6    6    0    0 -0.32371325314E+02 -0.80567912105E+01  0.75675302642E+02  0.82701668769E+02  0.00000000000E+00 0. -1.
        -12    1    6    6    0    0  0.26165796683E+02 -0.25987364797E+01  0.12444048321E+03  0.12718819210E+03  0.00000000000E+00 0.  1.
         -5    1    5    5    0  503  0.61095662596E+02 -0.27064924796E+02  0.91534837141E+01  0.67609662079E+02  0.47000000000E+01 0.  1.
<mgrwt>
<rscale>  2 0.18398856E+03</rscale>
<asrwt>0</asrwt>
<pdfrwt beam="1">  1       21 0.55569274E-01 0.18457426E+03</pdfrwt>
<pdfrwt beam="2">  1       21 0.16370024E-01 0.18457426E+03</pdfrwt>
<totfact> 0.10235938E+05</totfact>
</mgrwt>
</event>
<event>
12    1  0.1473662E-001  0.2095384E+03  0.7546771E-02  0.1141987E+00
         21   -1    0    0  504  503  0.00000000000E+00  0.00000000000E+00  0.22929262242E+03  0.22929262242E+03  0.00000000000E+00 0. -1.
         21   -1    0    0  502  504 -0.00000000000E+00 -0.00000000000E+00 -0.37141743524E+03  0.37141743524E+03  0.00000000000E+00 0.  1.
          6    2    1    2  502    0 -0.10353869612E+03  0.53440768459E+02 -0.28028717717E+03  0.34995319194E+03  0.17415555558E+03 0.  0.
         24    2    3    3    0    0 -0.40679624524E+02 -0.32299634903E+02 -0.93378999351E+02  0.13487312177E+03  0.82298379023E+02 0.  0.
         -6    2    1    2    0  503  0.10353869612E+03 -0.53440768459E+02  0.13816236435E+03  0.25075686572E+03  0.17382171744E+03 0.  0.
        -24    2    5    5    0    0  0.40363764014E+02 -0.13376446640E+02  0.15084041582E+03  0.17473683600E+03  0.77278509556E+02 0.  0.
          4    1    4    4  501    0  0.19741573552E+02 -0.28967520255E+02 -0.22401747864E+02  0.41601505542E+02  0.00000000000E+00 0. -1.
         -3    1    4    4    0  501 -0.60421198076E+02 -0.33321146481E+01 -0.70977251487E+02  0.93271616227E+02  0.00000000000E+00 0.  1.
          5    1    3    3  502    0 -0.62859071596E+02  0.85740403362E+02 -0.18690817782E+03  0.21508007017E+03  0.47000000000E+01 0. -1.
         11    1    6    6    0    0 -0.16579950677E+02 -0.10595756472E+02  0.86772442979E+02  0.88975399298E+02  0.00000000000E+00 0. -1.
        -12    1    6    6    0    0  0.56943714691E+02 -0.27806901674E+01  0.64067972842E+02  0.85761436699E+02  0.00000000000E+00 0.  1.
         -5    1    5    5    0  503  0.63174932106E+02 -0.40064321819E+02 -0.12678051471E+02  0.76020029719E+02  0.47000000000E+01 0.  1.
<mgrwt>
<rscale>  2 0.20946900E+03</rscale>
<asrwt>0</asrwt>
<pdfrwt beam="1">  1       21 0.35275788E-01 0.20953839E+03</pdfrwt>
<pdfrwt beam="2">  1       21 0.57141144E-01 0.20953839E+03</pdfrwt>
<totfact> 0.22066597E+04</totfact>
</mgrwt>
</event>
<event>
12    1  0.1473662E-001  0.1792506E+03  0.7546771E-02  0.1169048E+00
         21   -1    0    0  504  503  0.00000000000E+00  0.00000000000E+00  0.15444482826E+03  0.15444482826E+03  0.00000000000E+00 0.  1.
         21   -1    0    0  502  504 -0.00000000000E+00 -0.00000000000E+00 -0.20637314630E+03  0.20637314630E+03  0.00000000000E+00 0.  1.
          6    2    1    2  502    0  0.33429894317E+02 -0.21512266243E+02 -0.36912649755E+02  0.18093951746E+03  0.17261584468E+03 0.  0.
         24    2    3    3    0    0 -0.16050793845E+02 -0.26794969174E+01  0.36785043895E+02  0.90074498058E+02  0.80594466679E+02 0.  0.
         -6    2    1    2    0  503 -0.33429894317E+02  0.21512266243E+02 -0.15015668291E+02  0.17987845710E+03  0.17478688052E+03 0.  0.
        -24    2    5    5    0    0 -0.74703867876E+02 -0.27839701660E+02 -0.69211575020E+01  0.11486485288E+03  0.82403368509E+02 0.  0.
          4    1    4    4  501    0 -0.39435347659E+02  0.24304127830E+02  0.17717784118E+02  0.49595938832E+02  0.00000000000E+00 0. -1.
         -3    1    4    4    0  501  0.23384553815E+02 -0.26983624747E+02  0.19067259777E+02  0.40478559226E+02  0.00000000000E+00 0.  1.
          5    1    3    3  502    0  0.49480688162E+02 -0.18832769326E+02 -0.73697693650E+02  0.90865019401E+02  0.47000000000E+01 0. -1.
         13    1    6    6    0    0  0.88387073615E+01  0.20857159650E+01 -0.22956129097E+02  0.24687179305E+02  0.00000000000E+00 0. -1.
        -14    1    6    6    0    0 -0.83542575237E+02 -0.29925417625E+02  0.16034971595E+02  0.90177673574E+02  0.00000000000E+00 0.  1.
         -5    1    5    5    0  503  0.41273973558E+02  0.49351967903E+02 -0.80945107893E+01  0.65013604223E+02  0.47000000000E+01 0.  1.
<mgrwt>
<rscale>  2 0.17871919E+03</rscale>
<asrwt>0</asrwt>
<pdfrwt beam="1">  1       21 0.23760743E-01 0.17925063E+03</pdfrwt>
<pdfrwt beam="2">  1       21 0.31749715E-01 0.17925063E+03</pdfrwt>
<totfact> 0.15982586E+05</totfact>
</mgrwt>
</event>
<event>
12    1  0.1473662E-001  0.1818077E+03  0.7546771E-02  0.1166863E+00
         21   -1    0    0  504  503  0.00000000000E+00  0.00000000000E+00  0.71125507790E+02  0.71125507790E+02  0.00000000000E+00 0. -1.
         21   -1    0    0  502  504 -0.00000000000E+00 -0.00000000000E+00 -0.46834235467E+03  0.46834235467E+03  0.00000000000E+00 0. -1.
          6    2    1    2  502    0  0.25788748176E+02 -0.48742842810E+02 -0.15714987296E+03  0.24031256010E+03  0.17324294996E+03 0.  0.
         24    2    3    3    0    0 -0.53547623135E+01 -0.37779402242E+02 -0.17965621922E+03  0.20007898088E+03  0.79368033708E+02 0.  0.
         -6    2    1    2    0  503 -0.25788748176E+02  0.48742842810E+02 -0.24006697392E+03  0.29915530237E+03  0.16976695412E+03 0.  0.
        -24    2    5    5    0    0 -0.98268445705E-01  0.39610568601E+02 -0.41159535389E+02  0.98332847737E+02  0.80038957946E+02 0.  0.
          4    1    4    4  501    0 -0.34124878933E+02 -0.13490712807E+02 -0.35388666164E+02  0.50979058319E+02  0.00000000000E+00 0. -1.
         -3    1    4    4    0  501  0.28770116619E+02 -0.24288689436E+02 -0.14426755305E+03  0.14909992256E+03  0.00000000000E+00 0.  1.
          5    1    3    3  502    0  0.31143510489E+02 -0.10963440568E+02  0.22506346253E+02  0.40233579214E+02  0.47000000000E+01 0. -1.
         13    1    6    6    0    0 -0.38804565009E+02  0.11391474041E+02 -0.26048732874E+02  0.48105056187E+02  0.00000000000E+00 0. -1.
        -14    1    6    6    0    0  0.38706296563E+02  0.28219094560E+02 -0.15110802515E+02  0.50227791551E+02  0.00000000000E+00 0.  1.
         -5    1    5    5    0  503 -0.25690479730E+02  0.91322742094E+01 -0.19890743853E+03  0.20082245463E+03  0.47000000000E+01 0.  1.
<mgrwt>
<rscale>  2 0.18097472E+03</rscale>
<asrwt>0</asrwt>
<pdfrwt beam="1">  1       21 0.10942386E-01 0.18180771E+03</pdfrwt>
<pdfrwt beam="2">  1       21 0.72052670E-01 0.18180771E+03</pdfrwt>
<totfact> 0.12071953E+05</totfact>
</mgrwt>
</event>
<event>
12    1  0.1473662E-001  0.1761280E+03  0.7546771E-02  0.1171770E+00
         21   -1    0    0  504  503  0.00000000000E+00  0.00000000000E+00  0.43845618510E+02  0.43845618510E+02  0.00000000000E+00 0.  1.
         21   -1    0    0  502  504 -0.00000000000E+00 -0.00000000000E+00 -0.71668593762E+03  0.71668593762E+03  0.00000000000E+00 0.  1.
          6    2    1    2  502    0  0.25523076637E+02  0.15889537104E+02 -0.38596084636E+03  0.42424854812E+03  0.17354293657E+03 0.  0.
         24    2    3    3    0    0  0.51695748504E+02 -0.30864212015E+02 -0.10867572582E+03  0.14179492382E+03  0.68339864224E+02 0.  0.
         -6    2    1    2    0  503 -0.25523076637E+02 -0.15889537104E+02 -0.28687947275E+03  0.33628300801E+03  0.17286562631E+03 0.  0.
        -24    2    5    5    0    0 -0.21709961510E+02  0.27666166246E+02 -0.27787892927E+03  0.29139716476E+03  0.80367089736E+02 0.  0.
          2    1    4    4  501    0  0.68225978155E+02 -0.28941300246E+02 -0.83846391879E+02  0.11190442523E+03  0.00000000000E+00 0. -1.
         -1    1    4    4    0  501 -0.16530229651E+02 -0.19229117689E+01 -0.24829333941E+02  0.29890498590E+02  0.00000000000E+00 0.  1.
          5    1    3    3  502    0 -0.26172671866E+02  0.46753749119E+02 -0.27728512054E+03  0.28245362430E+03  0.47000000000E+01 0. -1.
         13    1    6    6    0    0  0.10573476447E+02  0.46861213342E+02 -0.12347920752E+03  0.13249485428E+03  0.00000000000E+00 0. -1.
        -14    1    6    6    0    0 -0.32283437958E+02 -0.19195047096E+02 -0.15439972175E+03  0.15890231048E+03  0.00000000000E+00 0.  1.
         -5    1    5    5    0  503 -0.38131151270E+01 -0.43555703349E+02 -0.90005434792E+01  0.44885843249E+02  0.47000000000E+01 0.  1.
<mgrwt>
<rscale>  2 0.17596088E+03</rscale>
<asrwt>0</asrwt>
<pdfrwt beam="1">  1       21 0.67454803E-02 0.17612795E+03</pdfrwt>
<pdfrwt beam="2">  1       21 0.11025937E+00 0.17612795E+03</pdfrwt>
<totfact> 0.10543944E+05</totfact>
</mgrwt>
</event>
<event>
12    1  0.1473662E-001  0.2320700E+03  0.7546771E-02  0.1125393E+00
         21   -1    0    0  504  503  0.00000000000E+00  0.00000000000E+00  0.11493746261E+04  0.11493746261E+04  0.00000000000E+00 0.  1.
         21   -1    0    0  502  504 -0.00000000000E+00 -0.00000000000E+00 -0.14374389627E+03  0.14374389627E+03  0.00000000000E+00 0.  1.
          6    2    1    2  502    0  0.85702871921E+02 -0.12923354636E+03 -0.29047654112E+02  0.23273375409E+03  0.17109921778E+03 0.  0.
         24    2    3    3    0    0  0.80758857085E+02 -0.34048309679E+02  0.28207947136E+02  0.12144598999E+03  0.79196968462E+02 0.  0.
         -6    2    1    2    0  503 -0.85702871921E+02  0.12923354636E+03  0.10346783839E+04  0.10603847683E+04  0.17265632584E+03 0.  0.
        -24    2    5    5    0    0 -0.36426550067E+02 -0.94398090382E+00  0.51174542484E+03  0.51922368855E+03  0.79887885571E+02 0.  0.
          4    1    4    4  501    0  0.24780500972E+02  0.25824700161E+02  0.41982896598E+01  0.36036287307E+02  0.00000000000E+00 0. -1.
         -3    1    4    4    0  501  0.55978356113E+02 -0.59873009839E+02  0.24009657476E+02  0.85409702683E+02  0.00000000000E+00 0.  1.
          5    1    3    3  502    0  0.49440148360E+01 -0.95185236678E+02 -0.57255601248E+02  0.11128776410E+03  0.47000000000E+01 0. -1.
         11    1    6    6    0    0  0.23550154966E+02 -0.35314747947E+01  0.84866946756E+02  0.88144652503E+02  0.00000000000E+00 0. -1.
        -12    1    6    6    0    0 -0.59976705034E+02  0.25874938909E+01  0.42687847808E+03  0.43107903605E+03  0.00000000000E+00 0.  1.
         -5    1    5    5    0  503 -0.49276321853E+02  0.13017752726E+03  0.52293295908E+03  0.54116107970E+03  0.47000000000E+01 0.  1.
<mgrwt>
<rscale>  2 0.23178046E+03</rscale>
<asrwt>0</asrwt>
<pdfrwt beam="1">  1       21 0.17682686E+00 0.23207003E+03</pdfrwt>
<pdfrwt beam="2">  1       21 0.22114446E-01 0.23207003E+03</pdfrwt>
<totfact> 0.35336666E+03</totfact>
</mgrwt>
</event>
<event>
12    1  0.1473662E-001  0.2087046E+03  0.7546771E-02  0.1142626E+00
         21   -1    0    0  504  503  0.00000000000E+00  0.00000000000E+00  0.36810476931E+03  0.36810476931E+03  0.00000000000E+00 0.  1.
         21   -1    0    0  502  504 -0.00000000000E+00 -0.00000000000E+00 -0.13262163389E+03  0.13262163389E+03  0.00000000000E+00 0.  1.
          6    2    1    2  502    0  0.41922265374E+01  0.11620148885E+03  0.20020998618E+03  0.28920866208E+03  0.17331258143E+03 0.  0.
         24    2    3    3    0    0 -0.61893030761E+02  0.79459594883E+02  0.15969836713E+03  0.20329877160E+03  0.75380684488E+02 0.  0.
         -6    2    1    2    0  503 -0.41922265374E+01 -0.11620148885E+03  0.35273149238E+02  0.21151774112E+03  0.17313347157E+03 0.  0.
        -24    2    5    5    0    0  0.23808626835E+02 -0.31213016385E+02 -0.37471705653E+02  0.96101138530E+02  0.79310762186E+02 0.  0.
          4    1    4    4  501    0 -0.13486737841E+02 -0.13902673761E+02  0.15406125801E+02  0.24749245393E+02  0.00000000000E+00 0. -1.
         -3    1    4    4    0  501 -0.48406292920E+02  0.93362268645E+02  0.14429224133E+03  0.17854952620E+03  0.00000000000E+00 0.  1.
          5    1    3    3  502    0  0.66085257299E+02  0.36741893967E+02  0.40511619055E+02  0.85909890484E+02  0.47000000000E+01 0. -1.
         11    1    6    6    0    0  0.28859335102E+02 -0.28712918058E+02  0.14956897253E+02  0.43370516038E+02  0.00000000000E+00 0. -1.
        -12    1    6    6    0    0 -0.50507082670E+01 -0.25000983272E+01 -0.52428602906E+02  0.52730622492E+02  0.00000000000E+00 0.  1.
         -5    1    5    5    0  503 -0.28000853373E+02 -0.84988472464E+02  0.72744854891E+02  0.11541660259E+03  0.47000000000E+01 0.  1.
<mgrwt>
<rscale>  2 0.20866742E+03</rscale>
<asrwt>0</asrwt>
<pdfrwt beam="1">  1       21 0.56631503E-01 0.20870460E+03</pdfrwt>
<pdfrwt beam="2">  1       21 0.20403328E-01 0.20870460E+03</pdfrwt>
<totfact> 0.64717706E+04</totfact>
</mgrwt>
</event>
<event>
12    1  0.1473662E-001  0.2401493E+03  0.7546771E-02  0.1120949E+00
         21   -1    0    0  504  503  0.00000000000E+00  0.00000000000E+00  0.45827309345E+03  0.45827309345E+03  0.00000000000E+00 0.  1.
         21   -1    0    0  502  504 -0.00000000000E+00 -0.00000000000E+00 -0.17415263407E+03  0.17415263407E+03  0.00000000000E+00 0. -1.
          6    2    1    2  502    0 -0.13490684498E+03 -0.96753200570E+02 -0.29426784938E+02  0.24194548686E+03  0.17352418938E+03 0.  0.
         24    2    3    3    0    0 -0.46341594118E+02  0.15940751607E+02 -0.30975547121E+02  0.98529242382E+02  0.79667284237E+02 0.  0.
         -6    2    1    2    0  503  0.13490684498E+03  0.96753200570E+02  0.31354724432E+03  0.39048024066E+03  0.16310090521E+03 0.  0.
        -24    2    5    5    0    0  0.48205528252E+02  0.76269891543E+02  0.92466518356E+02  0.15207834959E+03  0.80230281613E+02 0.  0.
          4    1    4    4  501    0 -0.96917337206E+01  0.20623186472E+02 -0.51462488388E+02  0.56281730906E+02  0.00000000000E+00 0. -1.
         -3    1    4    4    0  501 -0.36649860397E+02 -0.46824348652E+01  0.20486941267E+02  0.42247511475E+02  0.00000000000E+00 0.  1.
          5    1    3    3  502    0 -0.88565250858E+02 -0.11269395218E+03  0.15487621837E+01  0.14341624448E+03  0.47000000000E+01 0. -1.
         13    1    6    6    0    0  0.63214160866E+02  0.27124345685E+02  0.45598423454E+02  0.82528640388E+02  0.00000000000E+00 0. -1.
        -14    1    6    6    0    0 -0.15008632614E+02  0.49145545858E+02  0.46868094902E+02  0.69549709204E+02  0.00000000000E+00 0.  1.
         -5    1    5    5    0  503  0.86701316724E+02  0.20483309026E+02  0.22108072596E+03  0.23840189106E+03  0.47000000000E+01 0.  1.
<mgrwt>
<rscale>  2 0.23827242E+03</rscale>
<asrwt>0</asrwt>
<pdfrwt beam="1">  1       21 0.70503552E-01 0.24014929E+03</pdfrwt>
<pdfrwt beam="2">  1       21 0.26792713E-01 0.24014929E+03</pdfrwt>
<totfact> 0.23576296E+04</totfact>
</mgrwt>
</event>
<event>
12    1  0.1473662E-001  0.1733350E+03  0.7546771E-02  0.1174442E+00
         21   -1    0    0  504  503  0.00000000000E+00  0.00000000000E+00  0.37157428567E+03  0.37157428567E+03  0.00000000000E+00 0.  1.
         21   -1    0    0  502  504 -0.00000000000E+00 -0.00000000000E+00 -0.84427443546E+02  0.84427443546E+02  0.00000000000E+00 0.  1.
          6    2    1    2  502    0 -0.76765214422E+01 -0.23204817316E+01  0.96400645115E+02  0.19833832469E+03  0.17314933741E+03 0.  0.
         24    2    3    3    0    0  0.61467531038E+02  0.92278622370E+01  0.43842218250E+02  0.11059584651E+03  0.80286302392E+02 0.  0.
         -6    2    1    2    0  503  0.76765214422E+01  0.23204817316E+01  0.19074619701E+03  0.25766340452E+03  0.17303758188E+03 0.  0.
        -24    2    5    5    0    0  0.62051836675E+02 -0.29440879877E+02  0.11236561182E+03  0.15701021216E+03  0.85492573721E+02 0.  0.
          2    1    4    4  501    0  0.14488452041E+02  0.18018494023E+02  0.56589553191E+02  0.61130670696E+02  0.00000000000E+00 0. -1.
         -1    1    4    4    0  501  0.46979078997E+02 -0.87906317857E+01 -0.12747334941E+02  0.49465175818E+02  0.00000000000E+00 0.  1.
          5    1    3    3  502    0 -0.69144052480E+02 -0.11548343969E+02  0.52558426865E+02  0.87742478175E+02  0.47000000000E+01 0. -1.
         13    1    6    6    0    0  0.41910338635E+02  0.13657927940E+02  0.97772047991E+02  0.10724919043E+03  0.00000000000E+00 0. -1.
        -14    1    6    6    0    0  0.20141498040E+02 -0.43098807817E+02  0.14593563829E+02  0.49761021732E+02  0.00000000000E+00 0.  1.
         -5    1    5    5    0  503 -0.54375315233E+02  0.31761361609E+02  0.78380585186E+02  0.10065319236E+03  0.47000000000E+01 0.  1.
<mgrwt>
<rscale>  2 0.17330704E+03</rscale>
<asrwt>0</asrwt>
<pdfrwt beam="1">  1       21 0.57165274E-01 0.17333496E+03</pdfrwt>
<pdfrwt beam="2">  1       21 0.12988838E-01 0.17333496E+03</pdfrwt>
<totfact> 0.14725416E+05</totfact>
</mgrwt>
</event>
<event>
12    1  0.1473662E-001  0.2037340E+03  0.7546771E-02  0.1146965E+00
         21   -1    0    0  504  503  0.00000000000E+00  0.00000000000E+00  0.72344291117E+03  0.72344291117E+03  0.00000000000E+00 0. -1.
         21   -1    0    0  502  504 -0.00000000000E+00 -0.00000000000E+00 -0.57800153490E+02  0.57800153490E+02  0.00000000000E+00 0. -1.
          6    2    1    2  502    0  0.10382787152E+03 -0.19752682772E+02  0.28580243714E+03  0.35098512583E+03  0.17417557262E+03 0.  0.
         24    2    3    3    0    0  0.13084496414E+03  0.17440098575E+02  0.23962131181E+03  0.28565509740E+03  0.82194281531E+02 0.  0.
         -6    2    1    2    0  503 -0.10382787152E+03  0.19752682772E+02  0.37984032054E+03  0.43025793883E+03  0.17225803157E+03 0.  0.
        -24    2    5    5    0    0 -0.71274446913E+02  0.78807183800E+02  0.23379960186E+03  0.26933205199E+03  0.81159604452E+02 0.  0.
          4    1    4    4  501    0  0.85318841493E+01  0.23153471727E+02  0.84503942040E+02  0.88032905896E+02  0.00000000000E+00 0. -1.
         -3    1    4    4    0  501  0.12231307999E+03 -0.57133731520E+01  0.15511736977E+03  0.19762219150E+03  0.00000000000E+00 0.  1.
          5    1    3    3  502    0 -0.27017092620E+02 -0.37192781347E+02  0.46181125332E+02  0.65330028432E+02  0.47000000000E+01 0. -1.
         11    1    6    6    0    0 -0.23930008478E+02  0.14028384791E+02  0.67867093678E+01  0.28556966044E+02  0.00000000000E+00 0. -1.
        -12    1    6    6    0    0 -0.47344438436E+02  0.64778799009E+02  0.22701289249E+03  0.24077508594E+03  0.00000000000E+00 0.  1.
         -5    1    5    5    0  503 -0.32553424606E+02 -0.59054501028E+02  0.14604071868E+03  0.16092588684E+03  0.47000000000E+01 0.  1.
<mgrwt>
<rscale>  2 0.20332350E+03</rscale>
<asrwt>0</asrwt>
<pdfrwt beam="1">  1       21 0.11129890E+00 0.20373396E+03</pdfrwt>
<pdfrwt beam="2">  1       21 0.88923318E-02 0.20373396E+03</pdfrwt>
<totfact> 0.62983655E+04</totfact>
</mgrwt>
</event>
<event>
12    1  0.1473662E-001  0.1866979E+03  0.7546771E-02  0.1161562E+00
         21   -1    0    0  504  503  0.00000000000E+00  0.00000000000E+00  0.10242078694E+03  0.10242078694E+03  0.00000000000E+00 0. -1.
         21   -1    0    0  502  504 -0.00000000000E+00 -0.00000000000E+00 -0.46363617473E+03  0.46363617473E+03  0.00000000000E+00 0. -1.
          6    2    1    2  502    0 -0.56345446395E+02  0.39237297140E+02 -0.32712086742E+03  0.37664860446E+03  0.17361375096E+03 0.  0.
         24    2    3    3    0    0 -0.40222289586E+02  0.72843701127E+02 -0.31701700799E+03  0.33774456161E+03  0.81532620282E+02 0.  0.
         -6    2    1    2    0  503  0.56345446395E+02 -0.39237297140E+02 -0.34094520374E+02  0.18940835722E+03  0.17320137022E+03 0.  0.
        -24    2    5    5    0    0  0.72145025234E+02 -0.47885980945E+02  0.30361506938E+02  0.12231815018E+03  0.80882241087E+02 0.  0.
          4    1    4    4  501    0 -0.61741004593E+02  0.61135537403E+02 -0.28145431751E+03  0.29456075507E+03  0.00000000000E+00 0. -1.
         -3    1    4    4    0  501  0.21518715006E+02  0.11708163723E+02 -0.35562690473E+02  0.43183806537E+02  0.00000000000E+00 0.  1.
          5    1    3    3  502    0 -0.16123156809E+02 -0.33606403987E+02 -0.10103859432E+02  0.38904042847E+02  0.47000000000E+01 0. -1.
         11    1    6    6    0    0  0.23903220720E+01 -0.46297463717E+02  0.33913958748E+00  0.46360368871E+02  0.00000000000E+00 0. -1.
        -12    1    6    6    0    0  0.69754703162E+02 -0.15885172280E+01  0.30022367351E+02  0.75957781310E+02  0.00000000000E+00 0.  1.
         -5    1    5    5    0  503 -0.15799578839E+02  0.86486838051E+01 -0.64456027312E+02  0.67090207034E+02  0.47000000000E+01 0.  1.
<mgrwt>
<rscale>  2 0.18660198E+03</rscale>
<asrwt>0</asrwt>
<pdfrwt beam="1">  1       21 0.15757044E-01 0.18669791E+03</pdfrwt>
<pdfrwt beam="2">  1       21 0.71328643E-01 0.18669791E+03</pdfrwt>
<totfact> 0.63907923E+04</totfact>
</mgrwt>
</event>
<event>
12    1  0.1473662E-001  0.2385478E+03  0.7546771E-02  0.1121300E+00
         21   -1    0    0  504  503  0.00000000000E+00  0.00000000000E+00  0.32668262956E+03  0.32668262956E+03  0.00000000000E+00 0.  1.
         21   -1    0    0  502  504 -0.00000000000E+00 -0.00000000000E+00 -0.20079991521E+03  0.20079991521E+03  0.00000000000E+00 0.  1.
          6    2    1    2  502    0 -0.54020905004E+02 -0.14897657212E+03 -0.36782255031E+02  0.24136687883E+03  0.17830524023E+03 0.  0.
         24    2    3    3    0    0  0.27222054384E+02 -0.76576478888E+02 -0.58832624621E+02  0.13023407202E+03  0.83033959514E+02 0.  0.
         -6    2    1    2    0  503  0.54020905004E+02  0.14897657212E+03  0.16266496938E+03  0.28611566594E+03  0.17404023907E+03 0.  0.
        -24    2    5    5    0    0  0.18912335915E+02  0.58713617134E+00  0.74156699572E+02  0.10974151775E+03  0.78650896047E+02 0.  0.
          2    1    4    4  501    0  0.45268543429E+02 -0.23324430288E+02 -0.53330282984E+02  0.73738654419E+02  0.00000000000E+00 0. -1.
         -1    1    4    4    0  501 -0.18046489044E+02 -0.53252048600E+02 -0.55023416369E+01  0.56495417606E+02  0.00000000000E+00 0.  1.
          5    1    3    3  502    0 -0.81242959388E+02 -0.72400093232E+02  0.22050369589E+02  0.11113280681E+03  0.47000000000E+01 0. -1.
         11    1    6    6    0    0  0.47380116952E+02  0.12661904499E+02  0.53371010441E+02  0.72482163761E+02  0.00000000000E+00 0. -1.
        -12    1    6    6    0    0 -0.28467781037E+02 -0.12074768328E+02  0.20785689131E+02  0.37259353993E+02  0.00000000000E+00 0.  1.
         -5    1    5    5    0  503  0.35108569090E+02  0.14838943595E+03  0.88508269803E+02  0.17637414819E+03  0.47000000000E+01 0.  1.
<mgrwt>
<rscale>  2 0.23775106E+03</rscale>
<asrwt>0</asrwt>
<pdfrwt beam="1">  1       21 0.50258866E-01 0.23854776E+03</pdfrwt>
<pdfrwt beam="2">  1       21 0.30892295E-01 0.23854776E+03</pdfrwt>
<totfact> 0.37093013E+04</totfact>
</mgrwt>
</event>
<event>
12    1  0.1473662E-001  0.2624397E+03  0.7546771E-02  0.1105714E+00
         21   -1    0    0  504  503  0.00000000000E+00  0.00000000000E+00  0.11329767048E+04  0.11329767048E+04  0.00000000000E+00 0. -1.
         21   -1    0    0  502  504 -0.00000000000E+00 -0.00000000000E+00 -0.12003021755E+03  0.12003021755E+03  0.00000000000E+00 0.  1.
          6    2    1    2  502    0 -0.19293985982E+03 -0.42794953794E+02  0.66091982060E+02  0.27045512495E+03  0.17239671384E+03 0.  0.
         24    2    3    3    0    0 -0.26907702125E+02 -0.38435844731E+02  0.42441064398E+02  0.10262445098E+03  0.80803436796E+02 0.  0.
         -6    2    1    2    0  503  0.19293985982E+03  0.42794953794E+02  0.94685450515E+03  0.98255179735E+03  0.17267710611E+03 0.  0.
        -24    2    5    5    0    0  0.17704512726E+03  0.85831969853E+02  0.71868720022E+03  0.74977027679E+03  0.83259065960E+02 0.  0.
          4    1    4    4  501    0 -0.26549732859E+02 -0.31389334550E+01  0.58139947418E+02  0.63992145643E+02  0.00000000000E+00 0. -1.
         -3    1    4    4    0  501 -0.35796926602E+00 -0.35296911276E+02 -0.15698883021E+02  0.38632305338E+02  0.00000000000E+00 0.  1.
          5    1    3    3  502    0 -0.16603215769E+03 -0.43591090630E+01  0.23650917662E+02  0.16783067397E+03  0.47000000000E+01 0. -1.
         11    1    6    6    0    0  0.18142570137E+03  0.65591668334E+02  0.65181421302E+03  0.67976416525E+03  0.00000000000E+00 0. -1.
        -12    1    6    6    0    0 -0.43805741112E+01  0.20240301519E+02  0.66872987205E+02  0.70006111539E+02  0.00000000000E+00 0.  1.
         -5    1    5    5    0  503  0.15894732562E+02 -0.43037016059E+02  0.22816730492E+03  0.23278152055E+03  0.47000000000E+01 0.  1.
<mgrwt>
<rscale>  2 0.26239356E+03</rscale>
<asrwt>0</asrwt>
<pdfrwt beam="1">  1       21 0.17430410E+00 0.26243967E+03</pdfrwt>
<pdfrwt beam="2">  1       21 0.18466188E-01 0.26243967E+03</pdfrwt>
<totfact> 0.50543864E+03</totfact>
</mgrwt>
</event>
<event>
12    1  0.1473662E-001  0.2246535E+03  0.7546771E-02  0.1130516E+00
         21   -1    0    0  504  503  0.00000000000E+00  0.00000000000E+00  0.91554828630E+02  0.91554828630E+02  0.00000000000E+00 0.  1.
         21   -1    0    0  502  504 -0.00000000000E+00 -0.00000000000E+00 -0.58490597083E+03  0.58490597083E+03  0.00000000000E+00 0.  1.
          6    2    1    2  502    0  0.70578077488E+02  0.12553574545E+03 -0.32856019276E+03  0.39784768382E+03  0.17201886771E+03 0.  0.
         24    2    3    3    0    0  0.84243949756E+02  0.15181597849E+03 -0.25850078002E+03  0.32163864218E+03  0.80520981607E+02 0.  0.
         -6    2    1    2    0  503 -0.70578077488E+02 -0.12553574545E+03 -0.16479094944E+03  0.27861311564E+03  0.17242019251E+03 0.  0.
        -24    2    5    5    0    0 -0.68287821736E+02 -0.90691160268E+02 -0.18965750231E+03  0.23548741751E+03  0.81217254795E+02 0.  0.
          2    1    4    4  501    0  0.67161566967E+02  0.96318243932E+02 -0.22701359158E+03  0.25558374548E+03  0.00000000000E+00 0. -1.
         -1    1    4    4    0  501  0.17082382789E+02  0.55497734558E+02 -0.31487188446E+02  0.66054896708E+02  0.00000000000E+00 0.  1.
          5    1    3    3  502    0 -0.13665872268E+02 -0.26280233043E+02 -0.70059412736E+02  0.76209041633E+02  0.47000000000E+01 0. -1.
         11    1    6    6    0    0  0.12552900577E+01 -0.24812523356E+02 -0.10418415396E+03  0.10710543872E+03  0.00000000000E+00 0. -1.
        -12    1    6    6    0    0 -0.69543111794E+02 -0.65878636912E+02 -0.85473348354E+02  0.12838197879E+03  0.00000000000E+00 0.  1.
         -5    1    5    5    0  503 -0.22902557516E+01 -0.34844585179E+02  0.24866552868E+02  0.43125698131E+02  0.47000000000E+01 0.  1.
<mgrwt>
<rscale>  2 0.22457653E+03</rscale>
<asrwt>0</asrwt>
<pdfrwt beam="1">  1       21 0.14085358E-01 0.22465354E+03</pdfrwt>
<pdfrwt beam="2">  1       21 0.89985536E-01 0.22465354E+03</pdfrwt>
<totfact> 0.45489268E+04</totfact>
</mgrwt>
</event>
<event>
12    1  0.1473662E-001  0.1937285E+03  0.7546771E-02  0.1155337E+00
         21   -1    0    0  504  503  0.00000000000E+00  0.00000000000E+00  0.38754344677E+03  0.38754344677E+03  0.00000000000E+00 0.  1.
         21   -1    0    0  502  504 -0.00000000000E+00 -0.00000000000E+00 -0.11091083010E+03  0.11091083010E+03  0.00000000000E+00 0.  1.
          6    2    1    2  502    0 -0.77589660945E+02 -0.31307668722E+02  0.47886145925E+02  0.19869489972E+03  0.17374191951E+03 0.  0.
         24    2    3    3    0    0 -0.81924465652E+02  0.38320503213E+02  0.25640265402E+02  0.12532023066E+03  0.82871333785E+02 0.  0.
         -6    2    1    2    0  503  0.77589660945E+02  0.31307668722E+02  0.22874647075E+03  0.29975937716E+03  0.17472953587E+03 0.  0.
        -24    2    5    5    0    0  0.78177086429E+02 -0.42635074448E+02  0.14651402026E+03  0.18906999081E+03  0.79697533689E+02 0.  0.
          2    1    4    4  501    0  0.44137895488E+01  0.33623331718E+02 -0.34621367692E+01  0.34088067780E+02  0.00000000000E+00 0. -1.
         -1    1    4    4    0  501 -0.86338255201E+02  0.46971714956E+01  0.29102402171E+02  0.91232162878E+02  0.00000000000E+00 0.  1.
          5    1    3    3  502    0  0.43348047077E+01 -0.69628171936E+02  0.22245880523E+02  0.73374669057E+02  0.47000000000E+01 0. -1.
         13    1    6    6    0    0 -0.66048866431E+00  0.10220851508E+02  0.59271693530E+02  0.60150109765E+02  0.00000000000E+00 0. -1.
        -14    1    6    6    0    0  0.78837575093E+02 -0.52855925957E+02  0.87242326735E+02  0.12891988105E+03  0.00000000000E+00 0.  1.
         -5    1    5    5    0  503 -0.58742548401E+00  0.73942743170E+02  0.82232450488E+02  0.11068938635E+03  0.47000000000E+01 0.  1.
<mgrwt>
<rscale>  2 0.19350556E+03</rscale>
<asrwt>0</asrwt>
<pdfrwt beam="1">  1       21 0.59622068E-01 0.19372851E+03</pdfrwt>
<pdfrwt beam="2">  1       21 0.17063205E-01 0.19372851E+03</pdfrwt>
<totfact> 0.81351386E+04</totfact>
</mgrwt>
</event>
<event>
12    1  0.1473662E-001  0.1988042E+03  0.7546771E-02  0.1153562E+00
         21   -1    0    0  504  503  0.00000000000E+00  0.00000000000E+00  0.21445405371E+03  0.21445405371E+03  0.00000000000E+00 0. -1.
         21   -1    0    0  502  504 -0.00000000000E+00 -0.00000000000E+00 -0.17334202677E+03  0.17334202677E+03  0.00000000000E+00 0. -1.
          6    2    1    2  502    0  0.56389220472E+02  0.36957812087E+02  0.33397289059E+02  0.20158993075E+03  0.18702271841E+03 0.  0.
         24    2    3    3    0    0  0.67484458478E+02  0.60097804966E+02 -0.36936222349E+02  0.12657355651E+03  0.80564771386E+02 0.  0.
         -6    2    1    2    0  503 -0.56389220472E+02 -0.36957812087E+02  0.77147378819E+01  0.18620614973E+03  0.17340008350E+03 0.  0.
        -24    2    5    5    0    0 -0.42071246555E+02  0.36875271973E+02 -0.30334593204E+02  0.10178950282E+03  0.79442682927E+02 0.  0.
          2    1    4    4  501    0  0.71526386756E+02  0.23896456152E+02 -0.10216340141E+01  0.75419548892E+02  0.00000000000E+00 0. -1.
         -1    1    4    4    0  501 -0.40419282779E+01  0.36201348814E+02 -0.35914588335E+02  0.51154007619E+02  0.00000000000E+00 0.  1.
          5    1    3    3  502    0 -0.11095238006E+02 -0.23139992879E+02  0.70333511409E+02  0.75016374239E+02  0.47000000000E+01 0. -1.
         13    1    6    6    0    0 -0.46653854926E+02  0.49973865936E+02  0.71417641610E-01  0.68366472459E+02  0.00000000000E+00 0. -1.
        -14    1    6    6    0    0  0.45826083710E+01 -0.13098593962E+02 -0.30406010846E+02  0.33423030365E+02  0.00000000000E+00 0.  1.
         -5    1    5    5    0  503 -0.14317973917E+02 -0.73833084060E+02  0.38049331086E+02  0.84416646907E+02  0.47000000000E+01 0.  1.
<mgrwt>
<rscale>  2 0.19553498E+03</rscale>
<asrwt>0</asrwt>
<pdfrwt beam="1">  1       21 0.32992931E-01 0.19880423E+03</pdfrwt>
<pdfrwt beam="2">  1       21 0.26668004E-01 0.19880423E+03</pdfrwt>
<totfact> 0.11809596E+05</totfact>
</mgrwt>
</event>
<event>
12    1  0.1473662E-001  0.3968769E+03  0.7546771E-02  0.1044900E+00
         21   -1    0    0  504  503  0.00000000000E+00  0.00000000000E+00  0.11255878690E+04  0.11255878690E+04  0.00000000000E+00 0. -1.
         21   -1    0    0  502  504 -0.00000000000E+00 -0.00000000000E+00 -0.15823719106E+03  0.15823719106E+03  0.00000000000E+00 0.  1.
          6    2    1    2  502    0 -0.27705249481E+03  0.22446302539E+03  0.70297016594E+03  0.80726596041E+03  0.17426859151E+03 0.  0.
         24    2    3    3    0    0 -0.69583095129E+02  0.47724736433E+02  0.15210470571E+03  0.19264833956E+03  0.82813547444E+02 0.  0.
         -6    2    1    2    0  503  0.27705249481E+03 -0.22446302539E+03  0.26438051197E+03  0.47655909961E+03  0.17340641760E+03 0.  0.
        -24    2    5    5    0    0  0.17551424274E+03 -0.64500786447E+02  0.10527907032E+03  0.22910548122E+03  0.80249847478E+02 0.  0.
          2    1    4    4  501    0  0.32324603002E+01  0.41898937126E+02  0.77956907560E+02  0.88562120391E+02  0.00000000000E+00 0. -1.
         -1    1    4    4    0  501 -0.72815555429E+02  0.58257993071E+01  0.74147798150E+02  0.10408621917E+03  0.00000000000E+00 0.  1.
          5    1    3    3  502    0 -0.20746939968E+03  0.17673828896E+03  0.55086546023E+03  0.61461762086E+03  0.47000000000E+01 0. -1.
         11    1    6    6    0    0  0.80027390628E+01 -0.24149174241E+02  0.34418944244E+02  0.42800586116E+02  0.00000000000E+00 0. -1.
        -12    1    6    6    0    0  0.16751150368E+03 -0.40351612206E+02  0.70860126081E+02  0.18630489511E+03  0.00000000000E+00 0.  1.
         -5    1    5    5    0  503  0.10153825207E+03 -0.15996223895E+03  0.15910144164E+03  0.24745361839E+03  0.47000000000E+01 0.  1.
<mgrwt>
<rscale>  2 0.39678241E+03</rscale>
<asrwt>0</asrwt>
<pdfrwt beam="1">  1       21 0.17316736E+00 0.39687690E+03</pdfrwt>
<pdfrwt beam="2">  1       21 0.24344184E-01 0.39687690E+03</pdfrwt>
<totfact> 0.28314070E+03</totfact>
</mgrwt>
</event>
<event>
12    1  0.1473662E-001  0.2054332E+03  0.7546771E-02  0.1145430E+00
         21   -1    0    0  504  503  0.00000000000E+00  0.00000000000E+00  0.19089783001E+03  0.19089783001E+03  0.00000000000E+00 0.  1.
         21   -1    0    0  502  504 -0.00000000000E+00 -0.00000000000E+00 -0.24999144554E+03  0.24999144554E+03  0.00000000000E+00 0.  1.
          6    2    1    2  502    0 -0.79299611321E+02  0.75417227310E+02 -0.10577996748E+03  0.23021793848E+03  0.17272727389E+03 0.  0.
         24    2    3    3    0    0 -0.69868148732E+02  0.11603279861E+03 -0.61301820651E+02  0.16907079902E+03  0.80509957799E+02 0.  0.
         -6    2    1    2    0  503  0.79299611321E+02 -0.75417227310E+02  0.46686351951E+02  0.21067133706E+03  0.17385801756E+03 0.  0.
        -24    2    5    5    0    0  0.51136643690E+00  0.22547052194E+02  0.22332535713E+02  0.82531624421E+02  0.76184616688E+02 0.  0.
          4    1    4    4  501    0 -0.21269309403E+02  0.49208943158E+02  0.15974811036E+02  0.55938342815E+02  0.00000000000E+00 0. -1.
         -3    1    4    4    0  501 -0.48598839329E+02  0.66823855452E+02 -0.77276631687E+02  0.11313245620E+03  0.00000000000E+00 0.  1.
          5    1    3    3  502    0 -0.94314625890E+01 -0.40615571301E+02 -0.44478146830E+02  0.61147139460E+02  0.47000000000E+01 0. -1.
         13    1    6    6    0    0 -0.30945085809E+02  0.24342745966E+01 -0.10544664383E+02  0.32782830499E+02  0.00000000000E+00 0. -1.
        -14    1    6    6    0    0  0.31456452246E+02  0.20112777597E+02  0.32877200096E+02  0.49748793923E+02  0.00000000000E+00 0.  1.
         -5    1    5    5    0  503  0.78788244884E+02 -0.97964279504E+02  0.24353816238E+02  0.12813971264E+03  0.47000000000E+01 0.  1.
<mgrwt>
<rscale>  2 0.20519376E+03</rscale>
<asrwt>0</asrwt>
<pdfrwt beam="1">  1       21 0.29368897E-01 0.20543319E+03</pdfrwt>
<pdfrwt beam="2">  1       21 0.38460222E-01 0.20543319E+03</pdfrwt>
<totfact> 0.71997419E+04</totfact>
</mgrwt>
</event>
<event>
12    1  0.1473662E-001  0.2236300E+03  0.7546771E-02  0.1131371E+00
         21   -1    0    0  504  503  0.00000000000E+00  0.00000000000E+00  0.84142484508E+03  0.84142484508E+03  0.00000000000E+00 0. -1.
         21   -1    0    0  502  504 -0.00000000000E+00 -0.00000000000E+00 -0.67252032304E+02  0.67252032304E+02  0.00000000000E+00 0.  1.
          6    2    1    2  502    0  0.68630581503E+02 -0.12227211994E+03  0.22914311539E+03  0.31955231372E+03  0.17305052973E+03 0.  0.
         24    2    3    3    0    0 -0.33194931420E+02 -0.55195999662E+02  0.96226838858E+02  0.13911820508E+03  0.77108810243E+02 0.  0.
         -6    2    1    2    0  503 -0.68630581503E+02  0.12227211994E+03  0.54502969738E+03  0.58912456366E+03  0.17421180341E+03 0.  0.
        -24    2    5    5    0    0 -0.72638763768E+02  0.21903214459E+02  0.19158561690E+03  0.22165376109E+03  0.81665172493E+02 0.  0.
          4    1    4    4  501    0 -0.17159506763E+01  0.15551104946E+01  0.68511830620E+02  0.68550957617E+02  0.00000000000E+00 0. -1.
         -3    1    4    4    0  501 -0.31478980744E+02 -0.56751110156E+02  0.27715008238E+02  0.70567247461E+02  0.00000000000E+00 0.  1.
          5    1    3    3  502    0  0.10182551292E+03 -0.67076120277E+02  0.13291627653E+03  0.18043410864E+03  0.47000000000E+01 0. -1.
         13    1    6    6    0    0 -0.53166206810E+01  0.90882332640E+00  0.12353981217E+03  0.12365750122E+03  0.00000000000E+00 0. -1.
        -14    1    6    6    0    0 -0.67322143087E+02  0.20994391133E+02  0.68045804726E+02  0.97996259876E+02  0.00000000000E+00 0.  1.
         -5    1    5    5    0  503  0.40081822651E+01  0.10036890548E+03  0.35344408048E+03  0.36747080257E+03  0.47000000000E+01 0.  1.
<mgrwt>
<rscale>  2 0.22340380E+03</rscale>
<asrwt>0</asrwt>
<pdfrwt beam="1">  1       21 0.12944997E+00 0.22363001E+03</pdfrwt>
<pdfrwt beam="2">  1       21 0.10346467E-01 0.22363001E+03</pdfrwt>
<totfact> 0.32796670E+04</totfact>
</mgrwt>
</event>
<event>
12    1  0.1473662E-001  0.3097302E+03  0.7546771E-02  0.1080572E+00
         21   -1    0    0  504  503  0.00000000000E+00  0.00000000000E+00  0.68341873634E+03  0.68341873634E+03  0.00000000000E+00 0. -1.
         21   -1    0    0  502  504 -0.00000000000E+00 -0.00000000000E+00 -0.30422757490E+03  0.30422757490E+03  0.00000000000E+00 0.  1.
          6    2    1    2  502    0 -0.16630559021E+03  0.19531229393E+03 -0.17310639731E+03  0.35482196991E+03  0.17357524031E+03 0.  0.
         24    2    3    3    0    0 -0.73093254104E+02  0.11685147616E+03 -0.16968008637E+03  0.23284463950E+03  0.80177323215E+02 0.  0.
         -6    2    1    2    0  503  0.16630559021E+03 -0.19531229393E+03  0.55229755875E+03  0.63282434133E+03  0.17213254218E+03 0.  0.
        -24    2    5    5    0    0  0.16185503542E+03 -0.16374673585E+03  0.34101111185E+03  0.41909496913E+03  0.79636478790E+02 0.  0.
          2    1    4    4  501    0 -0.23146439684E+02  0.10543599496E+03 -0.10861517591E+03  0.15313315494E+03  0.00000000000E+00 0. -1.
         -1    1    4    4    0  501 -0.49946814419E+02  0.11415481198E+02 -0.61064910461E+02  0.79711484563E+02  0.00000000000E+00 0.  1.
          5    1    3    3  502    0 -0.93212336103E+02  0.78460817775E+02 -0.34263109365E+01  0.12197733041E+03  0.47000000000E+01 0. -1.
         13    1    6    6    0    0  0.39456830753E+02 -0.36552600894E+00  0.57246561149E+02  0.69528007778E+02  0.00000000000E+00 0. -1.
        -14    1    6    6    0    0  0.12239820466E+03 -0.16338120984E+03  0.28376455070E+03  0.34956696135E+03  0.00000000000E+00 0.  1.
         -5    1    5    5    0  503  0.44505547892E+01 -0.31565558084E+02  0.21128644691E+03  0.21372937220E+03  0.47000000000E+01 0.  1.
<mgrwt>
<rscale>  2 0.30952847E+03</rscale>
<asrwt>0</asrwt>
<pdfrwt beam="1">  1       21 0.10514134E+00 0.30973021E+03</pdfrwt>
<pdfrwt beam="2">  1       21 0.46804242E-01 0.30973021E+03</pdfrwt>
<totfact> 0.29370961E+03</totfact>
</mgrwt>
</event>
<event>
12    1  0.1473662E-001  0.2280852E+03  0.7546771E-02  0.1128077E+00
         21   -1    0    0  504  503  0.00000000000E+00  0.00000000000E+00  0.11562388575E+04  0.11562388575E+04  0.00000000000E+00 0.  1.
         21   -1    0    0  502  504 -0.00000000000E+00 -0.00000000000E+00 -0.79068514434E+02  0.79068514434E+02  0.00000000000E+00 0.  1.
          6    2    1    2  502    0 -0.14687235366E+03 -0.25731514539E+02  0.13225884738E+03  0.26325768565E+03  0.17198432264E+03 0.  0.
         24    2    3    3    0    0 -0.17674888531E+03 -0.15291546880E+02  0.10757610891E+03  0.22284818620E+03  0.81330775362E+02 0.  0.
         -6    2    1    2    0  503  0.14687235366E+03  0.25731514539E+02  0.94491149567E+03  0.97204968626E+03  0.17259565119E+03 0.  0.
        -24    2    5    5    0    0  0.84919743707E+02  0.24675594362E+02  0.28559149438E+03  0.30980789133E+03  0.81229182225E+02 0.  0.
          2    1    4    4  501    0 -0.10391052197E+03 -0.48370762178E+02  0.55090333789E+02  0.12716946209E+03  0.00000000000E+00 0. -1.
         -1    1    4    4    0  501 -0.72838363334E+02  0.33079215298E+02  0.52485775117E+02  0.95678724111E+02  0.00000000000E+00 0.  1.
          5    1    3    3  502    0  0.29876531644E+02 -0.10439967659E+02  0.24682738475E+02  0.40409499457E+02  0.47000000000E+01 0. -1.
         13    1    6    6    0    0  0.99110701794E+01  0.14815149741E+02  0.40500604801E+01  0.18278976006E+02  0.00000000000E+00 0. -1.
        -14    1    6    6    0    0  0.75008673527E+02  0.98604446209E+01  0.28154143390E+03  0.29152891533E+03  0.00000000000E+00 0.  1.
         -5    1    5    5    0  503  0.61952609955E+02  0.10559201774E+01  0.65932000129E+03  0.66224179493E+03  0.47000000000E+01 0.  1.
<mgrwt>
<rscale>  2 0.22796955E+03</rscale>
<asrwt>0</asrwt>
<pdfrwt beam="1">  1       21 0.17788289E+00 0.22808520E+03</pdfrwt>
<pdfrwt beam="2">  1       21 0.12164388E-01 0.22808520E+03</pdfrwt>
<totfact> 0.10489625E+04</totfact>
</mgrwt>
</event>
<event>
12    1  0.1473662E-001  0.1885863E+03  0.7546771E-02  0.1159899E+00
         21   -1    0    0  504  503  0.00000000000E+00  0.00000000000E+00  0.35254547824E+03  0.35254547824E+03  0.00000000000E+00 0. -1.
         21   -1    0    0  502  504 -0.00000000000E+00 -0.00000000000E+00 -0.21904456292E+03  0.21904456292E+03  0.00000000000E+00 0. -1.
          6    2    1    2  502    0  0.34223152435E+01 -0.76150222739E+02 -0.14342792658E+03  0.23693111863E+03  0.17249410479E+03 0.  0.
         24    2    3    3    0    0  0.16713608876E+02  0.23749277536E+02 -0.81256648153E+02  0.11842404499E+03  0.81106341659E+02 0.  0.
         -6    2    1    2    0  503 -0.34223152435E+01  0.76150222739E+02  0.27692884190E+03  0.33465892253E+03  0.17174528315E+03 0.  0.
        -24    2    5    5    0    0  0.28518191619E+02 -0.16532680443E+02  0.12746219895E+03  0.15584985151E+03  0.83402321792E+02 0.  0.
          2    1    4    4  501    0 -0.65688047529E+01  0.41158925740E+02 -0.78930548601E+02  0.89259385312E+02  0.00000000000E+00 0. -1.
         -1    1    4    4    0  501  0.23282413628E+02 -0.17409648204E+02 -0.23260995527E+01  0.29164659677E+02  0.00000000000E+00 0.  1.
          5    1    3    3  502    0 -0.13291293632E+02 -0.99899500276E+02 -0.62171278425E+02  0.11850707364E+03  0.47000000000E+01 0. -1.
         11    1    6    6    0    0  0.10907886689E+02  0.11884901833E+02  0.12065939164E+03  0.12173299337E+03  0.00000000000E+00 0. -1.
        -12    1    6    6    0    0  0.17610304929E+02 -0.28417582276E+02  0.68028073027E+01  0.34116858140E+02  0.00000000000E+00 0.  1.
         -5    1    5    5    0  503 -0.31940506862E+02  0.92682903182E+02  0.14946664296E+03  0.17880907102E+03  0.47000000000E+01 0.  1.
<mgrwt>
<rscale>  2 0.18841488E+03</rscale>
<asrwt>0</asrwt>
<pdfrwt beam="1">  1       21 0.54237766E-01 0.18858628E+03</pdfrwt>
<pdfrwt beam="2">  1       21 0.33699163E-01 0.18858628E+03</pdfrwt>
<totfact> 0.27311108E+04</totfact>
</mgrwt>
</event>
<event>
12    1  0.1473662E-001  0.1998346E+03  0.7546771E-02  0.1150194E+00
         21   -1    0    0  504  503  0.00000000000E+00  0.00000000000E+00  0.26333122666E+03  0.26333122666E+03  0.00000000000E+00 0.  1.
         21   -1    0    0  502  504 -0.00000000000E+00 -0.00000000000E+00 -0.42350822115E+03  0.42350822115E+03  0.00000000000E+00 0.  1.
          6    2    1    2  502    0  0.67744727941E+02 -0.70122249956E+02 -0.35591238779E+03  0.40817582483E+03  0.17443450947E+03 0.  0.
         24    2    3    3    0    0 -0.11084142621E+02  0.48306133049E+01 -0.21299261679E+03  0.22850926287E+03  0.81880616555E+02 0.  0.
         -6    2    1    2    0  503 -0.67744727941E+02  0.70122249956E+02  0.19573539330E+03  0.27866362299E+03  0.17272693040E+03 0.  0.
        -24    2    5    5    0    0 -0.10986461776E+03  0.31415423918E+02  0.14220399440E+03  0.20017792895E+03  0.82413980117E+02 0.  0.
          2    1    4    4  501    0 -0.21962359056E+02 -0.34042172598E+02 -0.82399926958E+02  0.91820273867E+02  0.00000000000E+00 0. -1.
         -1    1    4    4    0  501  0.10878216435E+02  0.38872785903E+02 -0.13059268983E+03  0.13668898900E+03  0.00000000000E+00 0.  1.
          5    1    3    3  502    0  0.78828870562E+02 -0.74952863261E+02 -0.14291977100E+03  0.17966656196E+03  0.47000000000E+01 0. -1.
         13    1    6    6    0    0 -0.79299571041E+02  0.86719423523E+01  0.36325800252E+02  0.87653798066E+02  0.00000000000E+00 0. -1.
        -14    1    6    6    0    0 -0.30565046723E+02  0.22743481566E+02  0.10587819415E+03  0.11252413088E+03  0.00000000000E+00 0.  1.
         -5    1    5    5    0  503  0.42119889823E+02  0.38706826038E+02  0.53531398898E+02  0.78485694038E+02  0.47000000000E+01 0.  1.
<mgrwt>
<rscale>  2 0.19946138E+03</rscale>
<asrwt>0</asrwt>
<pdfrwt beam="1">  1       21 0.40512496E-01 0.19983462E+03</pdfrwt>
<pdfrwt beam="2">  1       21 0.65155111E-01 0.19983462E+03</pdfrwt>
<totfact> 0.12667987E+04</totfact>
</mgrwt>
</event>
<event>
12    1  0.1473662E-001  0.1791702E+03  0.7546771E-02  0.1168985E+00
         21   -1    0    0  504  503  0.00000000000E+00  0.00000000000E+00  0.28737908245E+03  0.28737908245E+03  0.00000000000E+00 0.  1.
         21   -1    0    0  502  504 -0.00000000000E+00 -0.00000000000E+00 -0.61431999015E+03  0.61431999015E+03  0.00000000000E+00 0.  1.
          6    2    1    2  502    0  0.39293964057E+02  0.23043339223E+02 -0.57178963630E+03  0.59920393712E+03  0.17328288714E+03 0.  0.
         24    2    3    3    0    0  0.17681062029E+00 -0.40952127715E+01 -0.52881342611E+03  0.53489454947E+03  0.80322707766E+02 0.  0.
         -6    2    1    2    0  503 -0.39293964057E+02 -0.23043339223E+02  0.24484872860E+03  0.30249513548E+03  0.17168982496E+03 0.  0.
        -24    2    5    5    0    0  0.21695248411E+02 -0.58264997627E+02  0.99977952972E+02  0.14134340297E+03  0.78210438760E+02 0.  0.
          4    1    4    4  501    0  0.10693844019E+02 -0.37649789030E+02 -0.37871686847E+03  0.38073393778E+03  0.00000000000E+00 0. -1.
         -3    1    4    4    0  501 -0.10517033399E+02  0.33554576259E+02 -0.15009655764E+03  0.15416061168E+03  0.00000000000E+00 0.  1.
          5    1    3    3  502    0  0.39117153436E+02  0.27138551994E+02 -0.42976210193E+02  0.64309387649E+02  0.47000000000E+01 0. -1.
         11    1    6    6    0    0  0.18517020613E+02  0.60743327965E+01 -0.31588213390E+01  0.19742231980E+02  0.00000000000E+00 0. -1.
        -12    1    6    6    0    0  0.31782277983E+01 -0.64339330423E+02  0.10313677431E+03  0.12160117099E+03  0.00000000000E+00 0.  1.
         -5    1    5    5    0  503 -0.60989212468E+02  0.35221658404E+02  0.14487077563E+03  0.16115173251E+03  0.47000000000E+01 0.  1.
<mgrwt>
<rscale>  2 0.17878392E+03</rscale>
<asrwt>0</asrwt>
<pdfrwt beam="1">  1       21 0.44212167E-01 0.17917023E+03</pdfrwt>
<pdfrwt beam="2">  1       21 0.94510767E-01 0.17917023E+03</pdfrwt>
<totfact> 0.46577322E+03</totfact>
</mgrwt>
</event>
<event>
12    1  0.1473662E-001  0.1844933E+03  0.7546771E-02  0.1164105E+00
         21   -1    0    0  504  503  0.00000000000E+00  0.00000000000E+00  0.10985768516E+03  0.10985768516E+03  0.00000000000E+00 0. -1.
         21   -1    0    0  502  504 -0.00000000000E+00 -0.00000000000E+00 -0.30721755459E+03  0.30721755459E+03  0.00000000000E+00 0. -1.
          6    2    1    2  502    0 -0.46819132813E+02 -0.33420136186E+02 -0.11260854882E+03  0.21404672417E+03  0.17270315041E+03 0.  0.
         24    2    3    3    0    0 -0.15607459121E+02 -0.82087514942E+02 -0.44403936320E+02  0.12451102462E+03  0.80927948204E+02 0.  0.
         -6    2    1    2    0  503  0.46819132813E+02  0.33420136186E+02 -0.84751320608E+02  0.20302851558E+03  0.17529647769E+03 0.  0.
        -24    2    5    5    0    0  0.40578762685E+01  0.77506266811E+02 -0.21393644488E+02  0.11466338049E+03  0.81647504842E+02 0.  0.
          4    1    4    4  501    0 -0.14710752985E+01 -0.12832566321E+02 -0.51852110671E+02  0.53436693404E+02  0.00000000000E+00 0. -1.
         -3    1    4    4    0  501 -0.14136383822E+02 -0.69254948621E+02  0.74481743502E+01  0.71074331212E+02  0.00000000000E+00 0.  1.
          5    1    3    3  502    0 -0.31211673693E+02  0.48667378756E+02 -0.68204612495E+02  0.89535699558E+02  0.47000000000E+01 0. -1.
         11    1    6    6    0    0  0.44879472150E+01 -0.17267954923E+02 -0.44084814706E+01  0.18378211183E+02  0.00000000000E+00 0. -1.
        -12    1    6    6    0    0 -0.43007094647E+00  0.94774221734E+02 -0.16985163017E+02  0.96285169310E+02  0.00000000000E+00 0.  1.
         -5    1    5    5    0  503  0.42761256545E+02 -0.44086130625E+02 -0.63357676120E+02  0.88365135082E+02  0.47000000000E+01 0.  1.
<mgrwt>
<rscale>  2 0.18387467E+03</rscale>
<asrwt>0</asrwt>
<pdfrwt beam="1">  1       21 0.16901183E-01 0.18449334E+03</pdfrwt>
<pdfrwt beam="2">  1       21 0.47264239E-01 0.18449334E+03</pdfrwt>
<totfact> 0.13541947E+05</totfact>
</mgrwt>
</event>
<event>
12    1  0.1473662E-001  0.2080999E+03  0.7546771E-02  0.1143130E+00
         21   -1    0    0  504  503  0.00000000000E+00  0.00000000000E+00  0.38213716115E+03  0.38213716115E+03  0.00000000000E+00 0.  1.
         21   -1    0    0  502  504 -0.00000000000E+00 -0.00000000000E+00 -0.15028467671E+03  0.15028467671E+03  0.00000000000E+00 0.  1.
          6    2    1    2  502    0 -0.10677732264E+03  0.45351899713E+02 -0.16391538463E+02  0.20849181995E+03  0.17245858927E+03 0.  0.
         24    2    3    3    0    0 -0.83103856701E+02  0.32995844671E+02  0.53322602154E+02  0.13369037285E+03  0.83873947854E+02 0.  0.
         -6    2    1    2    0  503  0.10677732264E+03 -0.45351899713E+02  0.24824402290E+03  0.32393001791E+03  0.17276391453E+03 0.  0.
        -24    2    5    5    0    0  0.27568744562E+01 -0.95482294916E+00  0.16425397531E+03  0.18297693296E+03  0.80577152744E+02 0.  0.
          2    1    4    4  501    0 -0.15245370531E+02 -0.19394555876E+02  0.39908936665E+02  0.46917942687E+02  0.00000000000E+00 0. -1.
         -1    1    4    4    0  501 -0.67858486170E+02  0.52390400546E+02  0.13413665488E+02  0.86772430164E+02  0.00000000000E+00 0.  1.
          5    1    3    3  502    0 -0.23673465940E+02  0.12356055042E+02 -0.69714140616E+02  0.74801447096E+02  0.47000000000E+01 0. -1.
         11    1    6    6    0    0 -0.31347678079E+02 -0.14506945728E+02  0.37353023234E+02  0.50876092028E+02  0.00000000000E+00 0. -1.
        -12    1    6    6    0    0  0.34104552535E+02  0.13552122779E+02  0.12690095208E+03  0.13210084093E+03  0.00000000000E+00 0.  1.
         -5    1    5    5    0  503  0.10402044818E+03 -0.44397076764E+02  0.83990047584E+02  0.14095308496E+03  0.47000000000E+01 0.  1.
<mgrwt>
<rscale>  2 0.20803650E+03</rscale>
<asrwt>0</asrwt>
<pdfrwt beam="1">  1       21 0.58790332E-01 0.20809988E+03</pdfrwt>
<pdfrwt beam="2">  1       21 0.23120720E-01 0.20809988E+03</pdfrwt>
<totfact> 0.47206335E+04</totfact>
</mgrwt>
</event>
<event>
12    1  0.1473662E-001  0.2048037E+03  0.7546771E-02  0.1145865E+00
         21   -1    0    0  504  503  0.00000000000E+00  0.00000000000E+00  0.34063289432E+03  0.34063289432E+03  0.00000000000E+00 0. -1.
         21   -1    0    0  502  504 -0.00000000000E+00 -0.00000000000E+00 -0.16853847535E+03  0.16853847535E+03  0.00000000000E+00 0.  1.
          6    2    1    2  502    0  0.10942955069E+03  0.16515847991E+02 -0.46498403311E+02  0.21001588573E+03  0.17232809100E+03 0.  0.
         24    2    3    3    0    0  0.63159060118E+02  0.75209765949E+02 -0.44061333677E+02  0.13508949777E+03  0.81622273393E+02 0.  0.
         -6    2    1    2    0  503 -0.10942955069E+03 -0.16515847991E+02  0.21859282228E+03  0.29915548395E+03  0.17164959021E+03 0.  0.
        -24    2    5    5    0    0 -0.27917613395E+02  0.11095062345E+02  0.18915786193E+03  0.20807823551E+03  0.81322578756E+02 0.  0.
          4    1    4    4  501    0  0.51918565317E+02  0.24322434738E+02  0.11969398259E+02  0.58569486517E+02  0.00000000000E+00 0. -1.
         -3    1    4    4    0  501  0.11240494801E+02  0.50887331211E+02 -0.56030731936E+02  0.76520011255E+02  0.00000000000E+00 0.  1.
          5    1    3    3  502    0  0.46270490577E+02 -0.58693917957E+02 -0.24370696337E+01  0.74926387954E+02  0.47000000000E+01 0. -1.
         11    1    6    6    0    0  0.13637657687E+02  0.95279251888E+01  0.24745289732E+01  0.16819344792E+02  0.00000000000E+00 0. -1.
        -12    1    6    6    0    0 -0.41555271082E+02  0.15671371561E+01  0.18668333296E+03  0.19125889072E+03  0.00000000000E+00 0.  1.
         -5    1    5    5    0  503 -0.81511937299E+02 -0.27610910336E+02  0.29434960350E+02  0.91077248436E+02  0.47000000000E+01 0.  1.
<mgrwt>
<rscale>  2 0.20466094E+03</rscale>
<asrwt>0</asrwt>
<pdfrwt beam="1">  1       21 0.52405061E-01 0.20480374E+03</pdfrwt>
<pdfrwt beam="2">  1       21 0.25928996E-01 0.20480374E+03</pdfrwt>
<totfact> 0.48494655E+04</totfact>
</mgrwt>
</event>
<event>
12    1  0.1473662E-001  0.1765975E+03  0.7546771E-02  0.1171170E+00
         21   -1    0    0  504  503  0.00000000000E+00  0.00000000000E+00  0.22023525505E+03  0.22023525505E+03  0.00000000000E+00 0.  1.
         21   -1    0    0  502  504 -0.00000000000E+00 -0.00000000000E+00 -0.71532318828E+03  0.71532318828E+03  0.00000000000E+00 0.  1.
          6    2    1    2  502    0 -0.18686497885E+02  0.33263755001E+02 -0.66652834698E+03  0.68952643376E+03  0.17242680454E+03 0.  0.
         24    2    3    3    0    0 -0.58315266793E+01  0.22029042962E+02 -0.66675944955E+03  0.67181732741E+03  0.79063723690E+02 0.  0.
         -6    2    1    2    0  503  0.18686497885E+02 -0.33263755001E+02  0.17144041375E+03  0.24603200957E+03  0.17229124083E+03 0.  0.
        -24    2    5    5    0    0 -0.22635833024E+02  0.55104724501E+01  0.22579799540E+02  0.86681615126E+02  0.80381022700E+02 0.  0.
          2    1    4    4  501    0 -0.35380401185E+02  0.60211846143E+01 -0.16141531394E+03  0.16535698058E+03  0.00000000000E+00 0. -1.
         -1    1    4    4    0  501  0.29548874506E+02  0.16007858348E+02 -0.50534413561E+03  0.50646034683E+03  0.00000000000E+00 0.  1.
          5    1    3    3  502    0 -0.12854971205E+02  0.11234712039E+02  0.23110257111E+00  0.17709106349E+02  0.47000000000E+01 0. -1.
         13    1    6    6    0    0  0.24367126021E+02  0.20746726024E+02  0.18823587186E+02  0.37128303298E+02  0.00000000000E+00 0. -1.
        -14    1    6    6    0    0 -0.47002959045E+02 -0.15236253574E+02  0.37562123539E+01  0.49553311828E+02  0.00000000000E+00 0.  1.
         -5    1    5    5    0  503  0.41322330908E+02 -0.38774227451E+02  0.14886061421E+03  0.15935039445E+03  0.47000000000E+01 0.  1.
<mgrwt>
<rscale>  2 0.17656437E+03</rscale>
<asrwt>0</asrwt>
<pdfrwt beam="1">  1       21 0.33882347E-01 0.17659747E+03</pdfrwt>
<pdfrwt beam="2">  1       21 0.11004972E+00 0.17659747E+03</pdfrwt>
<totfact> 0.55461407E+03</totfact>
</mgrwt>
</event>
<event>
12    1  0.1473662E-001  0.1855398E+03  0.7546771E-02  0.1163696E+00
         21   -1    0    0  504  503  0.00000000000E+00  0.00000000000E+00  0.38252961813E+02  0.38252961813E+02  0.00000000000E+00 0. -1.
         21   -1    0    0  502  504 -0.00000000000E+00 -0.00000000000E+00 -0.89875287648E+03  0.89875287648E+03  0.00000000000E+00 0. -1.
          6    2    1    2  502    0 -0.11042784816E+01 -0.66040387639E+02 -0.49844253944E+03  0.53017592478E+03  0.16816359256E+03 0.  0.
         24    2    3    3    0    0  0.50583138246E+02 -0.30149175099E+01 -0.21941072538E+03  0.23944470494E+03  0.81393837047E+02 0.  0.
         -6    2    1    2    0  503  0.11042784816E+01  0.66040387639E+02 -0.36205737523E+03  0.40682991352E+03  0.17338536080E+03 0.  0.
        -24    2    5    5    0    0  0.61851665061E+00 -0.33216549956E+02 -0.17610283231E+03  0.19599026435E+03  0.79348940890E+02 0.  0.
          2    1    4    4  501    0  0.44269589778E+02 -0.29036645515E+02 -0.70608072396E+02  0.88252043881E+02  0.00000000000E+00 0. -1.
         -1    1    4    4    0  501  0.63135484686E+01  0.26021728005E+02 -0.14880265298E+03  0.15119266106E+03  0.00000000000E+00 0.  1.
          5    1    3    3  502    0 -0.51687416728E+02 -0.63025470129E+02 -0.27903181406E+03  0.29073121984E+03  0.47000000000E+01 0. -1.
         13    1    6    6    0    0 -0.11580869227E+02  0.85108047306E+01 -0.13627423358E+03  0.13702998602E+03  0.00000000000E+00 0. -1.
        -14    1    6    6    0    0  0.12199385878E+02 -0.41727354686E+02 -0.39828598722E+02  0.58960278333E+02  0.00000000000E+00 0.  1.
         -5    1    5    5    0  503  0.48576183098E+00  0.99256937595E+02 -0.18595454293E+03  0.21083964917E+03  0.47000000000E+01 0.  1.
<mgrwt>
<rscale>  2 0.18431014E+03</rscale>
<asrwt>0</asrwt>
<pdfrwt beam="1">  1       21 0.58850716E-02 0.18553985E+03</pdfrwt>
<pdfrwt beam="2">  1       21 0.13826966E+00 0.18553985E+03</pdfrwt>
<totfact> 0.75570549E+04</totfact>
</mgrwt>
</event>
<event>
12    1  0.1473662E-001  0.1970114E+03  0.7546771E-02  0.1153260E+00
         21   -1    0    0  504  503  0.00000000000E+00  0.00000000000E+00  0.12187068479E+03  0.12187068479E+03  0.00000000000E+00 0. -1.
         21   -1    0    0  502  504 -0.00000000000E+00 -0.00000000000E+00 -0.31226383576E+03  0.31226383576E+03  0.00000000000E+00 0. -1.
          6    2    1    2  502    0 -0.21313180855E+02  0.81594453775E+02 -0.10623078953E+03  0.21989912409E+03  0.17308592539E+03 0.  0.
         24    2    3    3    0    0  0.14356022153E+02 -0.26141748539E+01 -0.24565146862E+01  0.81499068823E+02  0.80144460023E+02 0.  0.
         -6    2    1    2    0  503  0.21313180855E+02 -0.81594453775E+02 -0.84162361432E+02  0.21423539646E+03  0.17804941855E+03 0.  0.
        -24    2    5    5    0    0 -0.55982961597E+02 -0.62286588750E+02 -0.47499327305E+02  0.12640740911E+03  0.81908093960E+02 0.  0.
          2    1    4    4  501    0  0.32985120795E+02  0.13072937923E+02  0.26041447386E+02  0.44012235591E+02  0.00000000000E+00 0. -1.
         -1    1    4    4    0  501 -0.18629098642E+02 -0.15687112777E+02 -0.28497962072E+02  0.37486833232E+02  0.00000000000E+00 0.  1.
          5    1    3    3  502    0 -0.35669203008E+02  0.84208628629E+02 -0.10377427485E+03  0.13840005527E+03  0.47000000000E+01 0. -1.
         13    1    6    6    0    0 -0.14572315371E+02 -0.72866382056E+02 -0.27710818353E+02  0.79307953341E+02  0.00000000000E+00 0. -1.
        -14    1    6    6    0    0 -0.41410646226E+02  0.10579793306E+02 -0.19788508952E+02  0.47099455769E+02  0.00000000000E+00 0.  1.
         -5    1    5    5    0  503  0.77296142452E+02 -0.19307865024E+02 -0.36663034127E+02  0.87827987345E+02  0.47000000000E+01 0.  1.
<mgrwt>
<rscale>  2 0.19588326E+03</rscale>
<asrwt>0</asrwt>
<pdfrwt beam="1">  1       21 0.18749336E-01 0.19701143E+03</pdfrwt>
<pdfrwt beam="2">  1       21 0.48040590E-01 0.19701143E+03</pdfrwt>
<totfact> 0.10760941E+05</totfact>
</mgrwt>
</event>
<event>
12    1  0.1473662E-001  0.1771935E+03  0.7546771E-02  0.1171127E+00
         21   -1    0    0  504  503  0.00000000000E+00  0.00000000000E+00  0.27883029938E+02  0.27883029938E+02  0.00000000000E+00 0. -1.
         21   -1    0    0  502  504 -0.00000000000E+00 -0.00000000000E+00 -0.21285298936E+04  0.21285298936E+04  0.00000000000E+00 0. -1.
          6    2    1    2  502    0 -0.37854024769E+02 -0.63495518998E+01 -0.17920596656E+04  0.18005708240E+04  0.17059953994E+03 0.  0.
         24    2    3    3    0    0 -0.55696405062E+02 -0.59261261362E+02 -0.10275411050E+04  0.10340013756E+04  0.81878787318E+02 0.  0.
         -6    2    1    2    0  503  0.37854024769E+02  0.63495518998E+01 -0.30858719799E+03  0.35584209950E+03  0.17298640703E+03 0.  0.
        -24    2    5    5    0    0  0.54055854203E+02  0.48497249045E+02 -0.11528324001E+03  0.15727866425E+03  0.78564204706E+02 0.  0.
          4    1    4    4  501    0 -0.71438070176E+02 -0.58381934715E+02 -0.69634474487E+03  0.70242996226E+03  0.00000000000E+00 0. -1.
         -3    1    4    4    0  501  0.15741665114E+02 -0.87932664684E+00 -0.33119636009E+03  0.33157141338E+03  0.00000000000E+00 0.  1.
          5    1    3    3  502    0  0.17842380293E+02  0.52911709462E+02 -0.76451856067E+03  0.76656944835E+03  0.47000000000E+01 0. -1.
         11    1    6    6    0    0  0.12471494493E+02 -0.11970772185E+02 -0.67566304045E+02  0.69742691401E+02  0.00000000000E+00 0. -1.
        -12    1    6    6    0    0  0.41584359709E+02  0.60468021230E+02 -0.47716935966E+02  0.87535972845E+02  0.00000000000E+00 0.  1.
         -5    1    5    5    0  503 -0.16201829433E+02 -0.42147697145E+02 -0.19330395798E+03  0.19856343526E+03  0.47000000000E+01 0.  1.
<mgrwt>
<rscale>  2 0.17660826E+03</rscale>
<asrwt>0</asrwt>
<pdfrwt beam="1">  1       21 0.42896975E-02 0.17719351E+03</pdfrwt>
<pdfrwt beam="2">  1       21 0.32746610E+00 0.17719351E+03</pdfrwt>
<totfact> 0.84106964E+03</totfact>
</mgrwt>
</event>
<event>
12    1  0.1473662E-001  0.2464364E+03  0.7546771E-02  0.1115709E+00
         21   -1    0    0  504  503  0.00000000000E+00  0.00000000000E+00  0.49419206017E+03  0.49419206017E+03  0.00000000000E+00 0.  1.
         21   -1    0    0  502  504 -0.00000000000E+00 -0.00000000000E+00 -0.12380737056E+03  0.12380737056E+03  0.00000000000E+00 0.  1.
          6    2    1    2  502    0 -0.67969330946E+02  0.16116510476E+03  0.21682231905E+03  0.32763362630E+03  0.17244667031E+03 0.  0.
         24    2    3    3    0    0 -0.10009165258E+03  0.76362286210E+02  0.16700029223E+03  0.22405908339E+03  0.80397994840E+02 0.  0.
         -6    2    1    2    0  503  0.67969330946E+02 -0.16116510476E+03  0.15356237056E+03  0.29036580443E+03  0.17359976321E+03 0.  0.
        -24    2    5    5    0    0  0.89851602273E+02 -0.11115116166E+03  0.46430404238E+02  0.17003469245E+03  0.79549500490E+02 0.  0.
          2    1    4    4  501    0 -0.92526879086E+02  0.34503996441E+02  0.79528816625E+02  0.12679346118E+03  0.00000000000E+00 0. -1.
         -1    1    4    4    0  501 -0.75647734974E+01  0.41858289769E+02  0.87471475605E+02  0.97265622215E+02  0.00000000000E+00 0.  1.
          5    1    3    3  502    0  0.32122321637E+02  0.84802818552E+02  0.49822026819E+02  0.10357454291E+03  0.47000000000E+01 0. -1.
         13    1    6    6    0    0  0.66981837612E+02 -0.24092499285E+02  0.34927471274E+02  0.79290247453E+02  0.00000000000E+00 0. -1.
        -14    1    6    6    0    0  0.22869764661E+02 -0.87058662376E+02  0.11502932964E+02  0.90744444993E+02  0.00000000000E+00 0.  1.
         -5    1    5    5    0  503 -0.21882271326E+02 -0.50013943101E+02  0.10713196632E+03  0.12033111198E+03  0.47000000000E+01 0.  1.
<mgrwt>
<rscale>  2 0.24623342E+03</rscale>
<asrwt>0</asrwt>
<pdfrwt beam="1">  1       21 0.76029547E-01 0.24643640E+03</pdfrwt>
<pdfrwt beam="2">  1       21 0.19047288E-01 0.24643640E+03</pdfrwt>
<totfact> 0.37982408E+04</totfact>
</mgrwt>
</event>
<event>
12    1  0.1473662E-001  0.2152852E+03  0.7546771E-02  0.1137743E+00
         21   -1    0    0  504  503  0.00000000000E+00  0.00000000000E+00  0.13568144920E+04  0.13568144920E+04  0.00000000000E+00 0. -1.
         21   -1    0    0  502  504 -0.00000000000E+00 -0.00000000000E+00 -0.50173973866E+02  0.50173973866E+02  0.00000000000E+00 0. -1.
          6    2    1    2  502    0 -0.10243133439E+03  0.73667820252E+02  0.25444840308E+03  0.33330421648E+03  0.17443791127E+03 0.  0.
         24    2    3    3    0    0 -0.57808877249E+02 -0.28347196088E+02  0.14879526237E+03  0.17973695636E+03  0.77588101939E+02 0.  0.
         -6    2    1    2    0  503  0.10243133439E+03 -0.73667820252E+02  0.10521921150E+04  0.10736842494E+04  0.17254128315E+03 0.  0.
        -24    2    5    5    0    0  0.83620259443E+02 -0.10966301164E+03  0.95483911798E+03  0.96809444692E+03  0.80441239626E+02 0.  0.
          2    1    4    4  501    0 -0.67601302177E+02 -0.25934653054E+01  0.12948095356E+03  0.14608894364E+03  0.00000000000E+00 0. -1.
         -1    1    4    4    0  501  0.97924249282E+01 -0.25753730782E+02  0.19314308807E+02  0.33648012718E+02  0.00000000000E+00 0.  1.
          5    1    3    3  502    0 -0.44622457136E+02  0.10201501634E+03  0.10565314071E+03  0.15356726012E+03  0.47000000000E+01 0. -1.
         11    1    6    6    0    0  0.60292493450E+02 -0.34461963135E+02  0.27178014353E+03  0.28051249186E+03  0.00000000000E+00 0. -1.
        -12    1    6    6    0    0  0.23327765993E+02 -0.75201048507E+02  0.68305897444E+03  0.68758195506E+03  0.00000000000E+00 0.  1.
         -5    1    5    5    0  503  0.18811074943E+02  0.35995191390E+02  0.97352997053E+02  0.10558980244E+03  0.47000000000E+01 0.  1.
<mgrwt>
<rscale>  2 0.21490069E+03</rscale>
<asrwt>0</asrwt>
<pdfrwt beam="1">  1       21 0.20874066E+00 0.21528519E+03</pdfrwt>
<pdfrwt beam="2">  1       21 0.77190739E-02 0.21528519E+03</pdfrwt>
<totfact> 0.14822789E+04</totfact>
</mgrwt>
</event>
<event>
12    1  0.1473662E-001  0.1935484E+03  0.7546771E-02  0.1155423E+00
         21   -1    0    0  504  503  0.00000000000E+00  0.00000000000E+00  0.40274371685E+03  0.40274371685E+03  0.00000000000E+00 0.  1.
         21   -1    0    0  502  504 -0.00000000000E+00 -0.00000000000E+00 -0.18207266612E+03  0.18207266612E+03  0.00000000000E+00 0. -1.
          6    2    1    2  502    0  0.48204925877E+02 -0.71983694040E+02 -0.94561704397E+02  0.21490737776E+03  0.17244679757E+03 0.  0.
         24    2    3    3    0    0 -0.33764868273E+02 -0.26237600085E+02 -0.77491346818E+02  0.11938125896E+03  0.80115530154E+02 0.  0.
         -6    2    1    2    0  503 -0.48204925877E+02  0.71983694040E+02  0.31523275512E+03  0.36990900521E+03  0.17307690529E+03 0.  0.
        -24    2    5    5    0    0  0.37755933350E+02  0.25325378174E+02  0.15623030585E+03  0.18317353286E+03  0.84129361056E+02 0.  0.
          4    1    4    4  501    0 -0.43469692956E+02  0.72017290410E+01 -0.71593579523E+02  0.84066162847E+02  0.00000000000E+00 0. -1.
         -3    1    4    4    0  501  0.97048246833E+01 -0.33439329126E+02 -0.58977672951E+01  0.35315096115E+02  0.00000000000E+00 0.  1.
          5    1    3    3  502    0  0.81969794151E+02 -0.45746093955E+02 -0.17070357579E+02  0.95526118801E+02  0.47000000000E+01 0. -1.
         11    1    6    6    0    0  0.44651638877E+02  0.51295644881E+02  0.12178991505E+03  0.13949120204E+03  0.00000000000E+00 0. -1.
        -12    1    6    6    0    0 -0.68957055277E+01 -0.25970266707E+02  0.34440390797E+02  0.43682330819E+02  0.00000000000E+00 0.  1.
         -5    1    5    5    0  503 -0.85960859227E+02  0.46658315866E+02  0.15900244927E+03  0.18673547235E+03  0.47000000000E+01 0.  1.
<mgrwt>
<rscale>  2 0.19340743E+03</rscale>
<asrwt>0</asrwt>
<pdfrwt beam="1">  1       21 0.61960572E-01 0.19354840E+03</pdfrwt>
<pdfrwt beam="2">  1       21 0.28011179E-01 0.19354840E+03</pdfrwt>
<totfact> 0.29423012E+04</totfact>
</mgrwt>
</event>
<event>
12    1  0.1473662E-001  0.1906629E+03  0.7546771E-02  0.1158318E+00
         21   -1    0    0  504  503  0.00000000000E+00  0.00000000000E+00  0.20190191528E+03  0.20190191528E+03  0.00000000000E+00 0.  1.
         21   -1    0    0  502  504 -0.00000000000E+00 -0.00000000000E+00 -0.35532454229E+03  0.35532454229E+03  0.00000000000E+00 0.  1.
          6    2    1    2  502    0 -0.70317166138E+02  0.33472596871E+02 -0.27324008841E+03  0.33204082945E+03  0.17183145206E+03 0.  0.
         24    2    3    3    0    0 -0.94272227354E+02  0.26879222646E+02 -0.11166838914E+03  0.16850238887E+03  0.79457412892E+02 0.  0.
         -6    2    1    2    0  503  0.70317166138E+02 -0.33472596871E+02  0.11981746140E+03  0.22518562811E+03  0.17403282581E+03 0.  0.
        -24    2    5    5    0    0 -0.15897746002E+02 -0.52225482566E+02  0.29649045430E+02  0.98943341080E+02  0.77009606492E+02 0.  0.
          4    1    4    4  501    0 -0.89878662112E+02  0.30393690745E+02 -0.51274947838E+02  0.10784744140E+03  0.00000000000E+00 0. -1.
         -3    1    4    4    0  501 -0.43935652429E+01 -0.35144680995E+01 -0.60393441298E+02  0.60654947476E+02  0.00000000000E+00 0.  1.
          5    1    3    3  502    0  0.23955061216E+02  0.65933742256E+01 -0.16157169927E+03  0.16353844058E+03  0.47000000000E+01 0. -1.
         13    1    6    6    0    0 -0.25730560006E+02  0.10635598510E+02  0.20694957731E+02  0.34690905860E+02  0.00000000000E+00 0. -1.
        -14    1    6    6    0    0  0.98328140047E+01 -0.62861081076E+02  0.89540876988E+01  0.64252435221E+02  0.00000000000E+00 0.  1.
         -5    1    5    5    0  503  0.86214912140E+02  0.18752885695E+02  0.90168415967E+02  0.12624228703E+03  0.47000000000E+01 0.  1.
<mgrwt>
<rscale>  2 0.19015911E+03</rscale>
<asrwt>0</asrwt>
<pdfrwt beam="1">  1       21 0.31061833E-01 0.19066290E+03</pdfrwt>
<pdfrwt beam="2">  1       21 0.54665314E-01 0.19066290E+03</pdfrwt>
<totfact> 0.31493543E+04</totfact>
</mgrwt>
</event>
<event>
12    1  0.1473662E-001  0.1783185E+03  0.7546771E-02  0.1169445E+00
         21   -1    0    0  504  503  0.00000000000E+00  0.00000000000E+00  0.50717221138E+03  0.50717221138E+03  0.00000000000E+00 0.  1.
         21   -1    0    0  502  504 -0.00000000000E+00 -0.00000000000E+00 -0.64677950947E+02  0.64677950947E+02  0.00000000000E+00 0.  1.
          6    2    1    2  502    0 -0.35119973058E+01 -0.45516139253E+02  0.17111677660E+03  0.24714051711E+03  0.17237584200E+03 0.  0.
         24    2    3    3    0    0  0.33765982295E+01  0.36728279206E+02  0.12284624376E+03  0.15141313620E+03  0.80463471823E+02 0.  0.
         -6    2    1    2    0  503  0.35119973058E+01  0.45516139253E+02  0.27137748384E+03  0.32470964522E+03  0.17235591636E+03 0.  0.
        -24    2    5    5    0    0 -0.31684108393E+02  0.58601047764E+02  0.27013172579E+03  0.28684643616E+03  0.69798016709E+02 0.  0.
          4    1    4    4  501    0  0.39344330856E+02  0.14649918647E+02  0.84659514925E+02  0.94497777509E+02  0.00000000000E+00 0. -1.
         -3    1    4    4    0  501 -0.35967732627E+02  0.22078360559E+02  0.38186728834E+02  0.56915358686E+02  0.00000000000E+00 0.  1.
          5    1    3    3  502    0 -0.68885955352E+01 -0.82244418460E+02  0.48270532838E+02  0.95727380914E+02  0.47000000000E+01 0. -1.
         11    1    6    6    0    0 -0.15688016239E+02 -0.14641195450E+02  0.64397834265E+02  0.67879006444E+02  0.00000000000E+00 0. -1.
        -12    1    6    6    0    0 -0.15996092154E+02  0.73242243214E+02  0.20573389152E+03  0.21896742971E+03  0.00000000000E+00 0.  1.
         -5    1    5    5    0  503  0.35196105699E+02 -0.13084908511E+02  0.12457580495E+01  0.37863209058E+02  0.47000000000E+01 0.  1.
<mgrwt>
<rscale>  2 0.17831367E+03</rscale>
<asrwt>0</asrwt>
<pdfrwt beam="1">  1       21 0.78026491E-01 0.17831849E+03</pdfrwt>
<pdfrwt beam="2">  1       21 0.99504543E-02 0.17831849E+03</pdfrwt>
<totfact> 0.11974429E+05</totfact>
</mgrwt>
</event>
<event>
12    1  0.1473662E-001  0.2228896E+03  0.7546771E-02  0.1132309E+00
         21   -1    0    0  504  503  0.00000000000E+00  0.00000000000E+00  0.40238514912E+03  0.40238514912E+03  0.00000000000E+00 0. -1.
         21   -1    0    0  502  504 -0.00000000000E+00 -0.00000000000E+00 -0.13456981796E+03  0.13456981796E+03  0.00000000000E+00 0.  1.
          6    2    1    2  502    0 -0.33877176052E+02 -0.13642360090E+03  0.50310457324E+02  0.22552576748E+03  0.16903155842E+03 0.  0.
         24    2    3    3    0    0 -0.56045269210E+02 -0.40989809802E+02 -0.12970903758E+02  0.10879679294E+03  0.82748178835E+02 0.  0.
         -6    2    1    2    0  503  0.33877176052E+02  0.13642360090E+03  0.21750487384E+03  0.31142919960E+03  0.17297605117E+03 0.  0.
        -24    2    5    5    0    0  0.49852851984E+02  0.49684742953E+02  0.19135328557E+03  0.21931596890E+03  0.80805530664E+02 0.  0.
          4    1    4    4  501    0 -0.50901989694E+02 -0.42602772510E+02  0.24638561613E+02  0.70803018994E+02  0.00000000000E+00 0. -1.
         -3    1    4    4    0  501 -0.51432795160E+01  0.16129627080E+01 -0.37609465371E+02  0.37993773942E+02  0.00000000000E+00 0.  1.
          5    1    3    3  502    0  0.22168093158E+02 -0.95433791100E+02  0.63281361082E+02  0.11672897455E+03  0.47000000000E+01 0. -1.
         11    1    6    6    0    0  0.47038448687E+02  0.18121643305E+00  0.14103638614E+03  0.14867384003E+03  0.00000000000E+00 0. -1.
        -12    1    6    6    0    0  0.28144032968E+01  0.49503526520E+02  0.50316899431E+02  0.70642128876E+02  0.00000000000E+00 0.  1.
         -5    1    5    5    0  503 -0.15975675932E+02  0.86738857949E+02  0.26151588270E+02  0.92113230694E+02  0.47000000000E+01 0.  1.
<mgrwt>
<rscale>  2 0.22212390E+03</rscale>
<asrwt>0</asrwt>
<pdfrwt beam="1">  1       21 0.61905407E-01 0.22288961E+03</pdfrwt>
<pdfrwt beam="2">  1       21 0.20703049E-01 0.22288961E+03</pdfrwt>
<totfact> 0.51678307E+04</totfact>
</mgrwt>
</event>
<event>
12    1  0.1473662E-001  0.2351662E+03  0.7546771E-02  0.1123184E+00
         21   -1    0    0  504  503  0.00000000000E+00  0.00000000000E+00  0.15487174920E+03  0.15487174920E+03  0.00000000000E+00 0. -1.
         21   -1    0    0  502  504 -0.00000000000E+00 -0.00000000000E+00 -0.94472306775E+03  0.94472306775E+03  0.00000000000E+00 0. -1.
          6    2    1    2  502    0  0.48347275090E+02 -0.15107472015E+03 -0.82872177985E+03  0.86123783551E+03  0.17259719246E+03 0.  0.
         24    2    3    3    0    0 -0.22576731376E+02 -0.27208850493E+02 -0.25549139965E+03  0.27048566485E+03  0.81465386817E+02 0.  0.
         -6    2    1    2    0  503 -0.48347275090E+02  0.15107472015E+03  0.38870461301E+02  0.23835698144E+03  0.17361482587E+03 0.  0.
        -24    2    5    5    0    0  0.20133904283E+01  0.58713573244E+02 -0.41129127415E+02  0.10611174604E+03  0.78209718722E+02 0.  0.
          4    1    4    4  501    0 -0.36687069907E+02  0.17040042130E+02 -0.14715423636E+03  0.15261282192E+03  0.00000000000E+00 0. -1.
         -3    1    4    4    0  501  0.14110338530E+02 -0.44248892622E+02 -0.10833716329E+03  0.11787284293E+03  0.00000000000E+00 0.  1.
          5    1    3    3  502    0  0.70924006467E+02 -0.12386586966E+03 -0.57323038019E+03  0.59075217066E+03  0.47000000000E+01 0. -1.
         11    1    6    6    0    0 -0.18393057434E+01  0.76973617727E+02 -0.23659046685E+02  0.80548565237E+02  0.00000000000E+00 0. -1.
        -12    1    6    6    0    0  0.38526961717E+01 -0.18260044483E+02 -0.17470080730E+02  0.25563180808E+02  0.00000000000E+00 0.  1.
         -5    1    5    5    0  503 -0.50360665519E+02  0.92361146909E+02  0.79999588716E+02  0.13224523539E+03  0.47000000000E+01 0.  1.
<mgrwt>
<rscale>  2 0.23497840E+03</rscale>
<asrwt>0</asrwt>
<pdfrwt beam="1">  1       21 0.23826423E-01 0.23516619E+03</pdfrwt>
<pdfrwt beam="2">  1       21 0.14534201E+00 0.23516619E+03</pdfrwt>
<totfact> 0.52146196E+03</totfact>
</mgrwt>
</event>
<event>
12    1  0.1473662E-001  0.2355796E+03  0.7546771E-02  0.1122913E+00
         21   -1    0    0  504  503  0.00000000000E+00  0.00000000000E+00  0.52173897620E+03  0.52173897620E+03  0.00000000000E+00 0. -1.
         21   -1    0    0  502  504 -0.00000000000E+00 -0.00000000000E+00 -0.16784383370E+03  0.16784383370E+03  0.00000000000E+00 0. -1.
          6    2    1    2  502    0 -0.13531246089E+03  0.84401246994E+02 -0.32537444882E+02  0.23700364793E+03  0.17227597408E+03 0.  0.
         24    2    3    3    0    0 -0.58408307836E+01  0.62943467889E+02 -0.25373289772E+02  0.10548652203E+03  0.80545682949E+02 0.  0.
         -6    2    1    2    0  503  0.13531246089E+03 -0.84401246994E+02  0.38643258738E+03  0.45257916198E+03  0.17339181267E+03 0.  0.
        -24    2    5    5    0    0  0.12179091888E+03 -0.10306698895E+03  0.22191615978E+03  0.28638955047E+03  0.85535726558E+02 0.  0.
          2    1    4    4  501    0  0.24475136999E+01  0.81569850019E+02 -0.16529568090E+02  0.83263781902E+02  0.00000000000E+00 0. -1.
         -1    1    4    4    0  501 -0.82883444835E+01 -0.18626382130E+02 -0.88437216818E+01  0.22222740126E+02  0.00000000000E+00 0.  1.
          5    1    3    3  502    0 -0.12947163011E+03  0.21457779106E+02 -0.71641551097E+01  0.13151712590E+03  0.47000000000E+01 0. -1.
         13    1    6    6    0    0  0.97700070821E+02 -0.10665490969E+03  0.21814910704E+03  0.26174339821E+03  0.00000000000E+00 0. -1.
        -14    1    6    6    0    0  0.24090848056E+02  0.35879207442E+01  0.37670527345E+01  0.24646152268E+02  0.00000000000E+00 0.  1.
         -5    1    5    5    0  503  0.13521542014E+02  0.18665741956E+02  0.16451642760E+03  0.16618961150E+03  0.47000000000E+01 0.  1.
<mgrwt>
<rscale>  2 0.23537433E+03</rscale>
<asrwt>0</asrwt>
<pdfrwt beam="1">  1       21 0.80267534E-01 0.23557961E+03</pdfrwt>
<pdfrwt beam="2">  1       21 0.25822128E-01 0.23557961E+03</pdfrwt>
<totfact> 0.18959395E+04</totfact>
</mgrwt>
</event>
<event>
12    1  0.1473662E-001  0.1741679E+03  0.7546771E-02  0.1174263E+00
         21   -1    0    0  504  503  0.00000000000E+00  0.00000000000E+00  0.28934994900E+03  0.28934994900E+03  0.00000000000E+00 0. -1.
         21   -1    0    0  502  504 -0.00000000000E+00 -0.00000000000E+00 -0.41303621091E+03  0.41303621091E+03  0.00000000000E+00 0. -1.
          6    2    1    2  502    0 -0.80836066108E+01 -0.20535682201E+02 -0.36613116134E+03  0.40544603642E+03  0.17276400727E+03 0.  0.
         24    2    3    3    0    0  0.36491804159E+02 -0.51286528988E+02 -0.31540359378E+03  0.33109579813E+03  0.78632313610E+02 0.  0.
         -6    2    1    2    0  503  0.80836066108E+01  0.20535682201E+02  0.24244489943E+03  0.29694012349E+03  0.17002014215E+03 0.  0.
        -24    2    5    5    0    0  0.31472170348E+02 -0.58189440217E+01  0.46947731390E+02  0.98237270089E+02  0.80138094163E+02 0.  0.
          2    1    4    4  501    0  0.53777598815E+02 -0.31542463591E+02 -0.28096280113E+03  0.28779689499E+03  0.00000000000E+00 0. -1.
         -1    1    4    4    0  501 -0.17285794656E+02 -0.19744065397E+02 -0.34440792651E+02  0.43298903147E+02  0.00000000000E+00 0.  1.
          5    1    3    3  502    0 -0.44575410770E+02  0.30750846787E+02 -0.50727567554E+02  0.74350238287E+02  0.47000000000E+01 0. -1.
         13    1    6    6    0    0  0.10071777971E+02  0.35257536364E+02  0.75643005490E+01  0.37439994989E+02  0.00000000000E+00 0. -1.
        -14    1    6    6    0    0  0.21400392377E+02 -0.41076480386E+02  0.39383430841E+02  0.60797275100E+02  0.00000000000E+00 0.  1.
         -5    1    5    5    0  503 -0.23388563737E+02  0.26354626223E+02  0.19549716804E+03  0.19870285340E+03  0.47000000000E+01 0.  1.
<mgrwt>
<rscale>  2 0.17348354E+03</rscale>
<asrwt>0</asrwt>
<pdfrwt beam="1">  1       21 0.44515377E-01 0.17416791E+03</pdfrwt>
<pdfrwt beam="2">  1       21 0.63544032E-01 0.17416791E+03</pdfrwt>
<totfact> 0.11234367E+04</totfact>
</mgrwt>
</event>
<event>
12    1  0.1473662E-001  0.2765121E+03  0.7546771E-02  0.1097669E+00
         21   -1    0    0  504  503  0.00000000000E+00  0.00000000000E+00  0.13681562399E+04  0.13681562399E+04  0.00000000000E+00 0.  1.
         21   -1    0    0  502  504 -0.00000000000E+00 -0.00000000000E+00 -0.72427106848E+02  0.72427106848E+02  0.00000000000E+00 0.  1.
          6    2    1    2  502    0 -0.20653582617E+03  0.59618037159E+02  0.30311514201E+03  0.41028983979E+03  0.17391838739E+03 0.  0.
         24    2    3    3    0    0 -0.22342699754E+03  0.28487882245E+02  0.24585983943E+03  0.34280163424E+03  0.79590936226E+02 0.  0.
         -6    2    1    2    0  503  0.20653582617E+03 -0.59618037159E+02  0.99261399100E+03  0.10302935069E+04  0.17323630512E+03 0.  0.
        -24    2    5    5    0    0  0.14041071582E+03  0.31040603269E+02  0.64816566632E+03  0.66799769175E+03  0.73644395794E+02 0.  0.
          4    1    4    4  501    0 -0.20245622936E+02 -0.21415978701E+02  0.25960291141E+02  0.39274242296E+02  0.00000000000E+00 0. -1.
         -3    1    4    4    0  501 -0.20318137460E+03  0.49903860947E+02  0.21989954829E+03  0.30352739195E+03  0.00000000000E+00 0.  1.
          5    1    3    3  502    0  0.16891171365E+02  0.31130154913E+02  0.57255302574E+02  0.67488205546E+02  0.47000000000E+01 0. -1.
         13    1    6    6    0    0 -0.83855979255E+01  0.23706215744E+00  0.19479465385E+02  0.21209055205E+02  0.00000000000E+00 0. -1.
        -14    1    6    6    0    0  0.14879631374E+03  0.30803541111E+02  0.62868620093E+03  0.64678863655E+03  0.00000000000E+00 0.  1.
         -5    1    5    5    0  503  0.66125110358E+02 -0.90658640428E+02  0.34444832468E+03  0.36229581516E+03  0.47000000000E+01 0.  1.
<mgrwt>
<rscale>  2 0.27640495E+03</rscale>
<asrwt>0</asrwt>
<pdfrwt beam="1">  1       21 0.21048556E+00 0.27651214E+03</pdfrwt>
<pdfrwt beam="2">  1       21 0.11142633E-01 0.27651214E+03</pdfrwt>
<totfact> 0.72387073E+03</totfact>
</mgrwt>
</event>
<event>
12    1  0.1473662E-001  0.1729409E+03  0.7546771E-02  0.1175063E+00
         21   -1    0    0  504  503  0.00000000000E+00  0.00000000000E+00  0.78578204598E+03  0.78578204598E+03  0.00000000000E+00 0.  1.
         21   -1    0    0  502  504 -0.00000000000E+00 -0.00000000000E+00 -0.41452117081E+02  0.41452117081E+02  0.00000000000E+00 0.  1.
          6    2    1    2  502    0 -0.30855873409E+01 -0.24427460886E+01  0.49505579190E+03  0.52439373255E+03  0.17289610114E+03 0.  0.
         24    2    3    3    0    0  0.26418582470E+02  0.70447075226E+01  0.11233087198E+03  0.14038727149E+03  0.79641646092E+02 0.  0.
         -6    2    1    2    0  503  0.30855873409E+01  0.24427460886E+01  0.24927413700E+03  0.30284043051E+03  0.17192801725E+03 0.  0.
        -24    2    5    5    0    0 -0.32543702849E+02 -0.17589693857E+02  0.51509717215E+02  0.10084141887E+03  0.78404405917E+02 0.  0.
          2    1    4    4  501    0  0.17386280501E+01  0.40283358900E+02  0.72389725238E+02  0.82861596363E+02  0.00000000000E+00 0. -1.
         -1    1    4    4    0  501  0.24679954420E+02 -0.33238651377E+02  0.39941146740E+02  0.57525675124E+02  0.00000000000E+00 0.  1.
          5    1    3    3  502    0 -0.29504169811E+02 -0.94874536112E+01  0.38272491992E+03  0.38400646107E+03  0.47000000000E+01 0. -1.
         11    1    6    6    0    0  0.16814131541E+01 -0.97128976802E+01  0.63094759873E+02  0.63860130402E+02  0.00000000000E+00 0. -1.
        -12    1    6    6    0    0 -0.34225116003E+02 -0.78767961767E+01 -0.11585042658E+02  0.36981288469E+02  0.00000000000E+00 0.  1.
         -5    1    5    5    0  503  0.35629290190E+02  0.20032439946E+02  0.19776441979E+03  0.20199901164E+03  0.47000000000E+01 0.  1.
<mgrwt>
<rscale>  2 0.17269842E+03</rscale>
<asrwt>0</asrwt>
<pdfrwt beam="1">  1       21 0.12088953E+00 0.17294088E+03</pdfrwt>
<pdfrwt beam="2">  1       21 0.63772494E-02 0.17294088E+03</pdfrwt>
<totfact> 0.92906490E+04</totfact>
</mgrwt>
</event>
<event>
12    1  0.1473662E-001  0.1928792E+03  0.7546771E-02  0.1156345E+00
         21   -1    0    0  504  503  0.00000000000E+00  0.00000000000E+00  0.21124658030E+03  0.21124658030E+03  0.00000000000E+00 0.  1.
         21   -1    0    0  502  504 -0.00000000000E+00 -0.00000000000E+00 -0.27784652931E+03  0.27784652931E+03  0.00000000000E+00 0. -1.
          6    2    1    2  502    0 -0.49031606427E+02  0.65886209091E+02 -0.18251464505E+03  0.26406285449E+03  0.17225708835E+03 0.  0.
         24    2    3    3    0    0 -0.87756265160E+02  0.43002092317E+02 -0.75335948650E+02  0.14773295740E+03  0.81235334222E+02 0.  0.
         -6    2    1    2    0  503  0.49031606427E+02 -0.65886209091E+02  0.11591469604E+03  0.22503025512E+03  0.17452022228E+03 0.  0.
        -24    2    5    5    0    0 -0.22740422366E+02 -0.36176101528E+02  0.11577700302E+03  0.14720979786E+03  0.80253180795E+02 0.  0.
          4    1    4    4  501    0 -0.65948347475E+02  0.16969532216E+02 -0.88190680148E+02  0.11142147739E+03  0.00000000000E+00 0. -1.
         -3    1    4    4    0  501 -0.21807917685E+02  0.26032560101E+02  0.12854731498E+02  0.36311480017E+02  0.00000000000E+00 0.  1.
          5    1    3    3  502    0  0.38724658733E+02  0.22884116774E+02 -0.10717869640E+03  0.11632989709E+03  0.47000000000E+01 0. -1.
         13    1    6    6    0    0 -0.97805235802E+01 -0.47306414170E+02  0.24156275167E+02  0.54010009194E+02  0.00000000000E+00 0. -1.
        -14    1    6    6    0    0 -0.12959898786E+02  0.11130312642E+02  0.91620727850E+02  0.93199788669E+02  0.00000000000E+00 0.  1.
         -5    1    5    5    0  503  0.71772028793E+02 -0.29710107562E+02  0.13769302002E+00  0.77820457258E+02  0.47000000000E+01 0.  1.
<mgrwt>
<rscale>  2 0.19236587E+03</rscale>
<asrwt>0</asrwt>
<pdfrwt beam="1">  1       21 0.32499474E-01 0.19287923E+03</pdfrwt>
<pdfrwt beam="2">  1       21 0.42745620E-01 0.19287923E+03</pdfrwt>
<totfact> 0.47958311E+04</totfact>
</mgrwt>
</event>
<event>
12    1  0.1473662E-001  0.2917233E+03  0.7546771E-02  0.1089543E+00
         21   -1    0    0  504  503  0.00000000000E+00  0.00000000000E+00  0.57292307099E+03  0.57292307099E+03  0.00000000000E+00 0.  1.
         21   -1    0    0  502  504 -0.00000000000E+00 -0.00000000000E+00 -0.15966884700E+03  0.15966884700E+03  0.00000000000E+00 0.  1.
          6    2    1    2  502    0 -0.13297442182E+03  0.19233156542E+03  0.30462229722E+03  0.42129885174E+03  0.17327536063E+03 0.  0.
         24    2    3    3    0    0 -0.56491045015E+00  0.78001182227E+02  0.12959701634E+03  0.17379197473E+03  0.85578971035E+02 0.  0.
         -6    2    1    2    0  503  0.13297442182E+03 -0.19233156542E+03  0.10863192677E+03  0.31129306625E+03  0.17443867021E+03 0.  0.
        -24    2    5    5    0    0  0.44155511816E+02 -0.71436728760E+02  0.11632856839E+03  0.16100770902E+03  0.73063199363E+02 0.  0.
          2    1    4    4  501    0  0.23789356156E+02 -0.89858614143E+01  0.26793891567E+02  0.36940381657E+02  0.00000000000E+00 0. -1.
         -1    1    4    4    0  501 -0.24354266606E+02  0.86987043641E+02  0.10280312477E+03  0.13685159307E+03  0.00000000000E+00 0.  1.
          5    1    3    3  502    0 -0.13240951137E+03  0.11433038319E+03  0.17502528088E+03  0.24750687701E+03  0.47000000000E+01 0. -1.
         11    1    6    6    0    0  0.65643455487E+01 -0.13731696541E+02 -0.92312585911E+01  0.17800737557E+02  0.00000000000E+00 0. -1.
        -12    1    6    6    0    0  0.37591166268E+02 -0.57705032218E+02  0.12555982698E+03  0.14320697147E+03  0.00000000000E+00 0.  1.
         -5    1    5    5    0  503  0.88818910002E+02 -0.12089483666E+03 -0.76966416184E+01  0.15028535723E+03  0.47000000000E+01 0.  1.
<mgrwt>
<rscale>  2 0.29154960E+03</rscale>
<asrwt>0</asrwt>
<pdfrwt beam="1">  1       21 0.88142010E-01 0.29172329E+03</pdfrwt>
<pdfrwt beam="2">  1       21 0.24564438E-01 0.29172329E+03</pdfrwt>
<totfact> 0.16382904E+04</totfact>
</mgrwt>
</event>
<event>
12    1  0.1473662E-001  0.1839863E+03  0.7546771E-02  0.1164801E+00
         21   -1    0    0  504  503  0.00000000000E+00  0.00000000000E+00  0.53067549160E+02  0.53067549160E+02  0.00000000000E+00 0.  1.
         21   -1    0    0  502  504 -0.00000000000E+00 -0.00000000000E+00 -0.75702399819E+03  0.75702399819E+03  0.00000000000E+00 0.  1.
          6    2    1    2  502    0 -0.61426984432E+02 -0.99457762325E+01 -0.52302452319E+03  0.55444171354E+03  0.17314378121E+03 0.  0.
         24    2    3    3    0    0 -0.18899145377E+02  0.44731338894E+01 -0.49395066493E+03  0.50073974618E+03  0.79848903565E+02 0.  0.
         -6    2    1    2    0  503  0.61426984432E+02  0.99457762325E+01 -0.18093192584E+03  0.25564983381E+03  0.16955318593E+03 0.  0.
        -24    2    5    5    0    0 -0.28463899300E+01 -0.46352690022E+02 -0.80345276021E+02  0.12358792380E+03  0.81620694201E+02 0.  0.
          2    1    4    4  501    0  0.70139118572E+01  0.38643468582E+02 -0.24126095190E+03  0.24443682116E+03  0.00000000000E+00 0. -1.
         -1    1    4    4    0  501 -0.25913057235E+02 -0.34170334692E+02 -0.25268971302E+03  0.25630292502E+03  0.00000000000E+00 0.  1.
          5    1    3    3  502    0 -0.42527839054E+02 -0.14418910122E+02 -0.29073858259E+02  0.53701967355E+02  0.47000000000E+01 0. -1.
         11    1    6    6    0    0 -0.32347890701E+02 -0.34732745411E+02 -0.13093110861E+02  0.49235954226E+02  0.00000000000E+00 0. -1.
        -12    1    6    6    0    0  0.29501500770E+02 -0.11619944611E+02 -0.67252165160E+02  0.74351969572E+02  0.00000000000E+00 0.  1.
         -5    1    5    5    0  503  0.64273374362E+02  0.56298466255E+02 -0.10058664982E+03  0.13206191001E+03  0.47000000000E+01 0.  1.
<mgrwt>
<rscale>  2 0.18313671E+03</rscale>
<asrwt>0</asrwt>
<pdfrwt beam="1">  1       21 0.81642391E-02 0.18398631E+03</pdfrwt>
<pdfrwt beam="2">  1       21 0.11646522E+00 0.18398631E+03</pdfrwt>
<totfact> 0.66112618E+04</totfact>
</mgrwt>
</event>
<event>
12    1  0.1473662E-001  0.2474694E+03  0.7546771E-02  0.1115033E+00
         21   -1    0    0  504  503  0.00000000000E+00  0.00000000000E+00  0.56935226438E+03  0.56935226438E+03  0.00000000000E+00 0. -1.
         21   -1    0    0  502  504 -0.00000000000E+00 -0.00000000000E+00 -0.10857835049E+03  0.10857835049E+03  0.00000000000E+00 0. -1.
          6    2    1    2  502    0 -0.92247195092E+02 -0.15073732632E+03  0.26764616567E+03  0.36402070769E+03  0.17217816086E+03 0.  0.
         24    2    3    3    0    0 -0.19303240537E+02 -0.12149845188E+02  0.12722682325E+03  0.15362348299E+03  0.83025755875E+02 0.  0.
         -6    2    1    2    0  503  0.92247195092E+02  0.15073732632E+03  0.19312774821E+03  0.31390990718E+03  0.17323341521E+03 0.  0.
        -24    2    5    5    0    0  0.92143268082E+02  0.16086038553E+03  0.21237502089E+03  0.29166053339E+03  0.74808233202E+02 0.  0.
          2    1    4    4  501    0 -0.47487876321E+02  0.20790574581E+01  0.10424985158E+03  0.11457509516E+03  0.00000000000E+00 0. -1.
         -1    1    4    4    0  501  0.28184635784E+02 -0.14228902646E+02  0.22976971672E+02  0.39048387828E+02  0.00000000000E+00 0.  1.
          5    1    3    3  502    0 -0.72943954555E+02 -0.13858748113E+03  0.14041934242E+03  0.21039722469E+03  0.47000000000E+01 0. -1.
         11    1    6    6    0    0  0.77262584257E+02  0.78940192801E+02  0.84520357124E+02  0.13908541165E+03  0.00000000000E+00 0. -1.
        -12    1    6    6    0    0  0.14880683825E+02  0.81920192727E+02  0.12785466376E+03  0.15257512174E+03  0.00000000000E+00 0.  1.
         -5    1    5    5    0  503  0.10392701075E+00 -0.10123059210E+02 -0.19247272673E+02  0.22249373788E+02  0.47000000000E+01 0.  1.
<mgrwt>
<rscale>  2 0.24728480E+03</rscale>
<asrwt>0</asrwt>
<pdfrwt beam="1">  1       21 0.87592654E-01 0.24746940E+03</pdfrwt>
<pdfrwt beam="2">  1       21 0.16704362E-01 0.24746940E+03</pdfrwt>
<totfact> 0.35062066E+04</totfact>
</mgrwt>
</event>
<event>
12    1  0.1473662E-001  0.1858089E+03  0.7546771E-02  0.1162387E+00
         21   -1    0    0  504  503  0.00000000000E+00  0.00000000000E+00  0.25399544374E+03  0.25399544374E+03  0.00000000000E+00 0. -1.
         21   -1    0    0  502  504 -0.00000000000E+00 -0.00000000000E+00 -0.17460626883E+03  0.17460626883E+03  0.00000000000E+00 0. -1.
          6    2    1    2  502    0  0.53745450937E+02 -0.37783886103E+02 -0.61505644327E+02  0.19572404391E+03  0.17380667862E+03 0.  0.
         24    2    3    3    0    0 -0.35733827825E+02 -0.45907063799E+01 -0.15535111076E+02  0.89687689599E+02  0.80650858354E+02 0.  0.
         -6    2    1    2    0  503 -0.53745450937E+02  0.37783886103E+02  0.14089481924E+03  0.23287766866E+03  0.17339106934E+03 0.  0.
        -24    2    5    5    0    0 -0.54756625372E+02 -0.22835863501E+02  0.13858129550E+03  0.17202358985E+03  0.82870835143E+02 0.  0.
          2    1    4    4  501    0 -0.13498578987E+02 -0.34752273150E+02 -0.31643515562E+02  0.48900349701E+02  0.00000000000E+00 0. -1.
         -1    1    4    4    0  501 -0.22235248837E+02  0.30161566770E+02  0.16108404485E+02  0.40787339898E+02  0.00000000000E+00 0.  1.
          5    1    3    3  502    0  0.89479278762E+02 -0.33193179723E+02 -0.45970533251E+02  0.10603635431E+03  0.47000000000E+01 0. -1.
         13    1    6    6    0    0  0.20034269061E+02  0.64665418584E+01  0.36398848263E+02  0.42048356154E+02  0.00000000000E+00 0. -1.
        -14    1    6    6    0    0 -0.74790894433E+02 -0.29302405359E+02  0.10218244724E+03  0.12997523369E+03  0.00000000000E+00 0.  1.
         -5    1    5    5    0  503  0.10111744345E+01  0.60619749604E+02  0.23135237351E+01  0.60854078810E+02  0.47000000000E+01 0.  1.
<mgrwt>
<rscale>  2 0.18571167E+03</rscale>
<asrwt>0</asrwt>
<pdfrwt beam="1">  1       21 0.39076222E-01 0.18580893E+03</pdfrwt>
<pdfrwt beam="2">  1       21 0.26862503E-01 0.18580893E+03</pdfrwt>
<totfact> 0.83563735E+04</totfact>
</mgrwt>
</event>
<event>
12    1  0.1473662E-001  0.1822218E+03  0.7546771E-02  0.1165906E+00
         21   -1    0    0  504  503  0.00000000000E+00  0.00000000000E+00  0.10044809417E+04  0.10044809417E+04  0.00000000000E+00 0. -1.
         21   -1    0    0  502  504 -0.00000000000E+00 -0.00000000000E+00 -0.38797716460E+02  0.38797716460E+02  0.00000000000E+00 0. -1.
          6    2    1    2  502    0 -0.53230248882E+02  0.51865237939E+01  0.68772382653E+03  0.71145543926E+03  0.17419650124E+03 0.  0.
         24    2    3    3    0    0 -0.66110871374E+02  0.10036306550E+01  0.68912320271E+03  0.69705213115E+03  0.81358653135E+02 0.  0.
         -6    2    1    2    0  503  0.53230248882E+02 -0.51865237939E+01  0.27795939875E+03  0.33182321895E+03  0.17316137518E+03 0.  0.
        -24    2    5    5    0    0  0.26017986598E+02 -0.69844776289E+02  0.15048476583E+03  0.18624482469E+03  0.80537206170E+02 0.  0.
          4    1    4    4  501    0 -0.47304621221E+02  0.39350965840E+02  0.36960811688E+03  0.37469505703E+03  0.00000000000E+00 0. -1.
         -3    1    4    4    0  501 -0.18806250153E+02 -0.38347335185E+02  0.31951508583E+03  0.32235707412E+03  0.00000000000E+00 0.  1.
          5    1    3    3  502    0  0.12880622492E+02  0.41828931389E+01 -0.13993761754E+01  0.14403308108E+02  0.47000000000E+01 0. -1.
         11    1    6    6    0    0  0.28106667761E+02 -0.67963414081E+02  0.57860812508E+02  0.93578224231E+02  0.00000000000E+00 0. -1.
        -12    1    6    6    0    0 -0.20886811636E+01 -0.18813622082E+01  0.92623953319E+02  0.92666600463E+02  0.00000000000E+00 0.  1.
         -5    1    5    5    0  503  0.27212262285E+02  0.64658252496E+02  0.12747463293E+03  0.14557839425E+03  0.47000000000E+01 0.  1.
<mgrwt>
<rscale>  2 0.18197396E+03</rscale>
<asrwt>0</asrwt>
<pdfrwt beam="1">  1       21 0.15453551E+00 0.18222179E+03</pdfrwt>
<pdfrwt beam="2">  1       21 0.59688802E-02 0.18222179E+03</pdfrwt>
<totfact> 0.55280615E+04</totfact>
</mgrwt>
</event>
<event>
12    1  0.1473662E-001  0.1827541E+03  0.7546771E-02  0.1165397E+00
         21   -1    0    0  504  503  0.00000000000E+00  0.00000000000E+00  0.18223799786E+04  0.18223799786E+04  0.00000000000E+00 0.  1.
         21   -1    0    0  502  504 -0.00000000000E+00 -0.00000000000E+00 -0.18898927516E+02  0.18898927516E+02  0.00000000000E+00 0.  1.
          6    2    1    2  502    0  0.63602432728E+02 -0.93216233000E+01  0.73075258704E+03  0.75325853446E+03  0.17107575565E+03 0.  0.
         24    2    3    3    0    0 -0.20962593401E+02 -0.20095268756E+02  0.20835040569E+03  0.22392551626E+03  0.76743046163E+02 0.  0.
         -6    2    1    2    0  503 -0.63602432728E+02  0.93216233000E+01  0.10727284641E+04  0.10880203717E+04  0.17002884885E+03 0.  0.
        -24    2    5    5    0    0 -0.22383187575E+02 -0.21258602892E+01  0.45455237048E+03  0.46834800361E+03  0.11057336303E+03 0.  0.
          2    1    4    4  501    0 -0.38216995634E+02  0.14266053314E+02  0.13608698306E+03  0.14206944073E+03  0.00000000000E+00 0. -1.
         -1    1    4    4    0  501  0.17254402233E+02 -0.34361322070E+02  0.72263422631E+02  0.81856075529E+02  0.00000000000E+00 0.  1.
          5    1    3    3  502    0  0.84565026129E+02  0.10773645456E+02  0.52240218135E+03  0.52933301820E+03  0.47000000000E+01 0. -1.
         11    1    6    6    0    0  0.23761479696E+02  0.26444927726E+02  0.57498259617E+02  0.67601715797E+02  0.00000000000E+00 0. -1.
        -12    1    6    6    0    0 -0.46144667271E+02 -0.28570788015E+02  0.39705411086E+03  0.40074628781E+03  0.00000000000E+00 0.  1.
         -5    1    5    5    0  503 -0.41219245153E+02  0.11447483589E+02  0.61817609358E+03  0.61967236805E+03  0.47000000000E+01 0.  1.
<mgrwt>
<rscale>  2 0.18250874E+03</rscale>
<asrwt>0</asrwt>
<pdfrwt beam="1">  1       21 0.28036601E+00 0.18275414E+03</pdfrwt>
<pdfrwt beam="2">  1       21 0.29075288E-02 0.18275414E+03</pdfrwt>
<totfact> 0.29782005E+04</totfact>
</mgrwt>
</event>
<event>
12    1  0.1473662E-001  0.1884174E+03  0.7546771E-02  0.1160838E+00
         21   -1    0    0  504  503  0.00000000000E+00  0.00000000000E+00  0.18711746932E+02  0.18711746932E+02  0.00000000000E+00 0.  1.
         21   -1    0    0  502  504 -0.00000000000E+00 -0.00000000000E+00 -0.18785248344E+04  0.18785248344E+04  0.00000000000E+00 0.  1.
          6    2    1    2  502    0  0.23917333378E+02 -0.63513665420E+02 -0.10429216797E+04  0.10598050530E+04  0.17577000845E+03 0.  0.
         24    2    3    3    0    0  0.46684281731E+01 -0.92828059496E+02 -0.43773325023E+03  0.45358316359E+03  0.74084040678E+02 0.  0.
         -6    2    1    2    0  503 -0.23917333378E+02  0.63513665420E+02 -0.81689140780E+03  0.83743152835E+03  0.17138835436E+03 0.  0.
        -24    2    5    5    0    0  0.53129920734E+02  0.31304007575E+02 -0.45682150677E+03  0.46777470770E+03  0.79527094450E+02 0.  0.
          2    1    4    4  501    0  0.18287821935E+02 -0.43664994642E+02 -0.34054375282E+03  0.34381844595E+03  0.00000000000E+00 0. -1.
         -1    1    4    4    0  501 -0.13619393762E+02 -0.49163064854E+02 -0.97189497405E+02  0.10976471764E+03  0.00000000000E+00 0.  1.
          5    1    3    3  502    0  0.19248905205E+02  0.29314394075E+02 -0.60518842949E+03  0.60622188944E+03  0.47000000000E+01 0. -1.
         13    1    6    6    0    0 -0.90941087881E+01 -0.91070317053E+01 -0.20098844643E+03  0.20140009046E+03  0.00000000000E+00 0. -1.
        -14    1    6    6    0    0  0.62224029522E+02  0.40411039281E+02 -0.25583306035E+03  0.26637461724E+03  0.00000000000E+00 0.  1.
         -5    1    5    5    0  503 -0.77047254112E+02  0.32209657845E+02 -0.36006990102E+03  0.36965682064E+03  0.47000000000E+01 0.  1.
<mgrwt>
<rscale>  2 0.18738882E+03</rscale>
<asrwt>0</asrwt>
<pdfrwt beam="1">  1       21 0.28787295E-02 0.18841741E+03</pdfrwt>
<pdfrwt beam="2">  1       21 0.28900390E+00 0.18841741E+03</pdfrwt>
<totfact> 0.26859455E+04</totfact>
</mgrwt>
</event>
<event>
12    1  0.1473662E-001  0.2568426E+03  0.7546771E-02  0.1109074E+00
         21   -1    0    0  504  503  0.00000000000E+00  0.00000000000E+00  0.55507495174E+02  0.55507495174E+02  0.00000000000E+00 0. -1.
         21   -1    0    0  502  504 -0.00000000000E+00 -0.00000000000E+00 -0.12673838947E+04  0.12673838947E+04  0.00000000000E+00 0. -1.
          6    2    1    2  502    0  0.18746795014E+03  0.25162615262E+02 -0.44013632255E+03  0.50953362315E+03  0.17357171763E+03 0.  0.
         24    2    3    3    0    0  0.43060690696E+02  0.38271234925E+02 -0.26099075440E+03  0.27901135292E+03  0.80076530064E+02 0.  0.
         -6    2    1    2    0  503 -0.18746795014E+03 -0.25162615262E+02 -0.77174007703E+03  0.81335776677E+03  0.17375477186E+03 0.  0.
        -24    2    5    5    0    0 -0.13355978038E+03 -0.11138385856E+02 -0.72154911744E+03  0.73823125879E+03  0.79937375484E+02 0.  0.
          2    1    4    4  501    0  0.79793431911E-01 -0.13289366153E+02 -0.14014795630E+03  0.14077664321E+03  0.00000000000E+00 0. -1.
         -1    1    4    4    0  501  0.42980897264E+02  0.51560601078E+02 -0.12084279810E+03  0.13823470970E+03  0.00000000000E+00 0.  1.
          5    1    3    3  502    0  0.14440725944E+03 -0.13108619663E+02 -0.17914556815E+03  0.23052227024E+03  0.47000000000E+01 0. -1.
         13    1    6    6    0    0 -0.64780886550E+01 -0.27194865356E+02 -0.13137841292E+03  0.13431981878E+03  0.00000000000E+00 0. -1.
        -14    1    6    6    0    0 -0.12708169172E+03  0.16056479500E+02 -0.59017070452E+03  0.60391144002E+03  0.00000000000E+00 0.  1.
         -5    1    5    5    0  503 -0.53908169760E+02 -0.14024229405E+02 -0.50190959582E+02  0.75126507979E+02  0.47000000000E+01 0.  1.
<mgrwt>
<rscale>  2 0.25681162E+03</rscale>
<asrwt>0</asrwt>
<pdfrwt beam="1">  1       21 0.85396148E-02 0.25684258E+03</pdfrwt>
<pdfrwt beam="2">  1       21 0.19498213E+00 0.25684258E+03</pdfrwt>
<totfact> 0.14815380E+04</totfact>
</mgrwt>
</event>
<event>
12    1  0.1473662E-001  0.1929946E+03  0.7546771E-02  0.1156099E+00
         21   -1    0    0  504  503  0.00000000000E+00  0.00000000000E+00  0.31878181763E+03  0.31878181763E+03  0.00000000000E+00 0. -1.
         21   -1    0    0  502  504 -0.00000000000E+00 -0.00000000000E+00 -0.14375524016E+03  0.14375524016E+03  0.00000000000E+00 0. -1.
          6    2    1    2  502    0  0.35771969122E+02 -0.77045137593E+02 -0.13861332627E+02  0.19349177596E+03  0.17329553895E+03 0.  0.
         24    2    3    3    0    0 -0.24223975297E+02  0.91222905778E+01  0.10457397639E+02  0.85613002954E+02  0.80933379670E+02 0.  0.
         -6    2    1    2    0  503 -0.35771969122E+02  0.77045137593E+02  0.18888791009E+03  0.26904528183E+03  0.17172982878E+03 0.  0.
        -24    2    5    5    0    0 -0.72884992410E+02  0.95051286184E+02  0.11822390738E+03  0.18708743190E+03  0.81718087203E+02 0.  0.
          4    1    4    4  501    0  0.22778476679E+02 -0.84880594416E+00  0.26502273691E+02  0.34956401161E+02  0.00000000000E+00 0. -1.
         -3    1    4    4    0  501 -0.47002451976E+02  0.99710965219E+01 -0.16044876053E+02  0.50656601792E+02  0.00000000000E+00 0.  1.
          5    1    3    3  502    0  0.59995944420E+02 -0.86167428171E+02 -0.24318730265E+02  0.10787877301E+03  0.47000000000E+01 0. -1.
         13    1    6    6    0    0 -0.15291552158E+02  0.73558491533E+02  0.95585686127E+02  0.12157839708E+03  0.00000000000E+00 0. -1.
        -14    1    6    6    0    0 -0.57593440252E+02  0.21492794651E+02  0.22638221250E+02  0.65509034822E+02  0.00000000000E+00 0.  1.
         -5    1    5    5    0  503  0.37113023288E+02 -0.18006148591E+02  0.70664002714E+02  0.81957849925E+02  0.47000000000E+01 0.  1.
<mgrwt>
<rscale>  2 0.19264251E+03</rscale>
<asrwt>0</asrwt>
<pdfrwt beam="1">  1       21 0.49043356E-01 0.19299464E+03</pdfrwt>
<pdfrwt beam="2">  1       21 0.22116191E-01 0.19299464E+03</pdfrwt>
<totfact> 0.75809871E+04</totfact>
</mgrwt>
</event>
<event>
12    1  0.1473662E-001  0.2604752E+03  0.7546771E-02  0.1106943E+00
         21   -1    0    0  504  503  0.00000000000E+00  0.00000000000E+00  0.22791595899E+02  0.22791595899E+02  0.00000000000E+00 0.  1.
         21   -1    0    0  502  504 -0.00000000000E+00 -0.00000000000E+00 -0.31984249654E+04  0.31984249654E+04  0.00000000000E+00 0. -1.
          6    2    1    2  502    0 -0.15257416264E+03 -0.11905225158E+03 -0.20194923570E+04  0.20362211806E+04  0.17434162687E+03 0.  0.
         24    2    3    3    0    0 -0.76573938838E+02 -0.34499706595E+00 -0.11464487338E+04  0.11518599964E+04  0.81074440073E+02 0.  0.
         -6    2    1    2    0  503  0.15257416264E+03  0.11905225158E+03 -0.11561410126E+04  0.11849953807E+04  0.17349264435E+03 0.  0.
        -24    2    5    5    0    0  0.95925417396E+02  0.10024017008E+03 -0.10532847529E+04  0.10659807812E+04  0.87501301359E+02 0.  0.
          4    1    4    4  501    0 -0.86367568478E+02 -0.58660015348E+01 -0.70876966234E+03  0.71403655446E+03  0.00000000000E+00 0. -1.
         -3    1    4    4    0  501  0.97936296399E+01  0.55210044689E+01 -0.43767907148E+03  0.43782344191E+03  0.00000000000E+00 0.  1.
          5    1    3    3  502    0 -0.76000223806E+02 -0.11870725452E+03 -0.87304362314E+03  0.88436118424E+03  0.47000000000E+01 0. -1.
         11    1    6    6    0    0  0.13119742399E+02 -0.16284579693E+02 -0.15138202450E+03  0.15281960777E+03  0.00000000000E+00 0. -1.
        -12    1    6    6    0    0  0.82805674997E+02  0.11652474978E+03 -0.90190272844E+03  0.91316117345E+03  0.00000000000E+00 0.  1.
         -5    1    5    5    0  503  0.56648745248E+02  0.18812081501E+02 -0.10285625964E+03  0.11901459951E+03  0.47000000000E+01 0.  1.
<mgrwt>
<rscale>  2 0.26033319E+03</rscale>
<asrwt>0</asrwt>
<pdfrwt beam="1">  1       21 0.35064020E-02 0.26047517E+03</pdfrwt>
<pdfrwt beam="2">  1       21 0.49206501E+00 0.26047517E+03</pdfrwt>
<totfact> 0.95823320E+02</totfact>
</mgrwt>
</event>
<event>
12    1  0.1473662E-001  0.1809127E+03  0.7546771E-02  0.1167050E+00
         21   -1    0    0  504  503  0.00000000000E+00  0.00000000000E+00  0.10997348535E+04  0.10997348535E+04  0.00000000000E+00 0.  1.
         21   -1    0    0  502  504 -0.00000000000E+00 -0.00000000000E+00 -0.33457315803E+02  0.33457315803E+02  0.00000000000E+00 0.  1.
          6    2    1    2  502    0  0.30016547621E+02  0.44369132919E+02  0.34191539005E+03  0.38657988088E+03  0.17224475975E+03 0.  0.
         24    2    3    3    0    0 -0.73866184050E+01  0.74074223512E+02  0.13505753370E+03  0.17422722145E+03  0.81074253388E+02 0.  0.
         -6    2    1    2    0  503 -0.30016547621E+02 -0.44369132919E+02  0.72436214770E+03  0.74661228847E+03  0.17279981249E+03 0.  0.
        -24    2    5    5    0    0 -0.52270848825E+02 -0.72163582969E+02  0.31075078116E+03  0.33144456586E+03  0.73141150527E+02 0.  0.
          2    1    4    4  501    0 -0.20232314396E+01  0.80048421878E+02  0.14238573873E+03  0.16335709934E+03  0.00000000000E+00 0. -1.
         -1    1    4    4    0  501 -0.53633869653E+01 -0.59741983659E+01 -0.73282050225E+01  0.10870122111E+02  0.00000000000E+00 0.  1.
          5    1    3    3  502    0  0.37403166026E+02 -0.29705090593E+02  0.20685785634E+03  0.21235265943E+03  0.47000000000E+01 0. -1.
         13    1    6    6    0    0 -0.26626479350E+01 -0.64097646602E+02  0.15381767823E+03  0.16665976158E+03  0.00000000000E+00 0. -1.
        -14    1    6    6    0    0 -0.49608200890E+02 -0.80659363666E+01  0.15693310293E+03  0.16478480428E+03  0.00000000000E+00 0.  1.
         -5    1    5    5    0  503  0.22254301204E+02  0.27794450050E+02  0.41361136654E+03  0.41516772262E+03  0.47000000000E+01 0.  1.
<mgrwt>
<rscale>  2 0.18077999E+03</rscale>
<asrwt>0</asrwt>
<pdfrwt beam="1">  1       21 0.16918995E+00 0.18091265E+03</pdfrwt>
<pdfrwt beam="2">  1       21 0.51472802E-02 0.18091265E+03</pdfrwt>
<totfact> 0.55740146E+04</totfact>
</mgrwt>
</event>
<event>
12    1  0.1473662E-001  0.2216144E+03  0.7546771E-02  0.1133208E+00
         21   -1    0    0  504  503  0.00000000000E+00  0.00000000000E+00  0.22126650891E+03  0.22126650891E+03  0.00000000000E+00 0.  1.
         21   -1    0    0  502  504 -0.00000000000E+00 -0.00000000000E+00 -0.22345745011E+03  0.22345745011E+03  0.00000000000E+00 0. -1.
          6    2    1    2  502    0 -0.99494333464E+02  0.90277427483E+02 -0.31966922665E+02  0.22390810584E+03  0.17624931039E+03 0.  0.
         24    2    3    3    0    0 -0.11030522730E+03  0.85379574870E+02  0.27007645984E+02  0.16356778655E+03  0.81043771374E+02 0.  0.
         -6    2    1    2    0  503  0.99494333464E+02 -0.90277427483E+02  0.29775981460E+02  0.22081585318E+03  0.17269596300E+03 0.  0.
        -24    2    5    5    0    0  0.96613889264E+02 -0.29744531105E+02  0.71119649878E+02  0.14730451105E+03  0.80135096229E+02 0.  0.
          2    1    4    4  501    0 -0.11060854236E+03  0.46379779731E+02  0.32293301804E+02  0.12421026911E+03  0.00000000000E+00 0. -1.
         -1    1    4    4    0  501  0.30331506227E+00  0.38999795139E+02 -0.52856558202E+01  0.39357517431E+02  0.00000000000E+00 0.  1.
          5    1    3    3  502    0  0.10810893838E+02  0.48978526138E+01 -0.58974568649E+02  0.60340319299E+02  0.47000000000E+01 0. -1.
         13    1    6    6    0    0  0.15609363559E+02  0.24201105657E+02  0.39867829915E+01  0.29073014711E+02  0.00000000000E+00 0. -1.
        -14    1    6    6    0    0  0.81004525705E+02 -0.53945636762E+02  0.67132866887E+02  0.11823149634E+03  0.00000000000E+00 0.  1.
         -5    1    5    5    0  503  0.28804441999E+01 -0.60532896379E+02 -0.41343668418E+02  0.73511342125E+02  0.47000000000E+01 0.  1.
<mgrwt>
<rscale>  2 0.22090721E+03</rscale>
<asrwt>0</asrwt>
<pdfrwt beam="1">  1       21 0.34041001E-01 0.22161443E+03</pdfrwt>
<pdfrwt beam="2">  1       21 0.34378069E-01 0.22161443E+03</pdfrwt>
<totfact> 0.66946914E+04</totfact>
</mgrwt>
</event>
<event>
12    1  0.1473662E-001  0.1973559E+03  0.7546771E-02  0.1152398E+00
         21   -1    0    0  504  503  0.00000000000E+00  0.00000000000E+00  0.13626718311E+03  0.13626718311E+03  0.00000000000E+00 0.  1.
         21   -1    0    0  502  504 -0.00000000000E+00 -0.00000000000E+00 -0.42179755191E+03  0.42179755191E+03  0.00000000000E+00 0.  1.
          6    2    1    2  502    0 -0.68513605925E+01 -0.10280915935E+03 -0.30231114196E+03  0.35999665504E+03  0.16609906894E+03 0.  0.
         24    2    3    3    0    0 -0.10009048388E+02 -0.13428086717E+03 -0.27986384062E+03  0.32092734838E+03  0.80864462614E+02 0.  0.
         -6    2    1    2    0  503  0.68513605925E+01  0.10280915935E+03  0.16780773155E+02  0.19806807998E+03  0.16832321757E+03 0.  0.
        -24    2    5    5    0    0  0.12052554253E+02  0.25112559884E+02  0.64357921161E+02  0.10669254170E+03  0.80408032628E+02 0.  0.
          4    1    4    4  501    0  0.25538320453E+02 -0.78985211647E+02 -0.10328288535E+03  0.13250744838E+03  0.00000000000E+00 0. -1.
         -3    1    4    4    0  501 -0.35547368841E+02 -0.55295655523E+02 -0.17658095527E+03  0.18841989999E+03  0.00000000000E+00 0.  1.
          5    1    3    3  502    0  0.31576877954E+01  0.31471707826E+02 -0.22447301337E+02  0.39069306661E+02  0.47000000000E+01 0. -1.
         13    1    6    6    0    0 -0.53386358439E+00 -0.29267649464E+02  0.22736270641E+02  0.37065055215E+02  0.00000000000E+00 0. -1.
        -14    1    6    6    0    0  0.12586417837E+02  0.54380209348E+02  0.41621650519E+02  0.69627486488E+02  0.00000000000E+00 0.  1.
         -5    1    5    5    0  503 -0.52011936601E+01  0.77696599461E+02 -0.47577148006E+02  0.91375538278E+02  0.47000000000E+01 0.  1.
<mgrwt>
<rscale>  2 0.19688086E+03</rscale>
<asrwt>0</asrwt>
<pdfrwt beam="1">  1       21 0.20964182E-01 0.19735595E+03</pdfrwt>
<pdfrwt beam="2">  1       21 0.64891930E-01 0.19735595E+03</pdfrwt>
<totfact> 0.46123468E+04</totfact>
</mgrwt>
</event>
<event>
12    1  0.1473662E-001  0.1994973E+03  0.7546771E-02  0.1150683E+00
         21   -1    0    0  504  503  0.00000000000E+00  0.00000000000E+00  0.36067169199E+03  0.36067169199E+03  0.00000000000E+00 0.  1.
         21   -1    0    0  502  504 -0.00000000000E+00 -0.00000000000E+00 -0.12033118853E+03  0.12033118853E+03  0.00000000000E+00 0. -1.
          6    2    1    2  502    0  0.40655627177E+02 -0.92716429675E+02  0.47049587370E+02  0.20497030694E+03  0.17190097936E+03 0.  0.
         24    2    3    3    0    0  0.75775255399E+02 -0.70625934778E+02  0.78588037885E+02  0.15264304720E+03  0.79961916972E+02 0.  0.
         -6    2    1    2    0  503 -0.40655627177E+02  0.92716429675E+02  0.19329091609E+03  0.27603257357E+03  0.16906622098E+03 0.  0.
        -24    2    5    5    0    0 -0.78649244494E+02  0.94916346848E+02  0.18538523942E+03  0.23687974077E+03  0.80929030868E+02 0.  0.
          2    1    4    4  501    0  0.64915889771E+01 -0.58731432453E+02  0.24594188999E+02  0.64003093816E+02  0.00000000000E+00 0. -1.
         -1    1    4    4    0  501  0.69283666422E+02 -0.11894502324E+02  0.53993848886E+02  0.88639953384E+02  0.00000000000E+00 0.  1.
          5    1    3    3  502    0 -0.35119628223E+02 -0.22090494897E+02 -0.31538450515E+02  0.52327259743E+02  0.47000000000E+01 0. -1.
         11    1    6    6    0    0 -0.83558242558E+02  0.10577177029E+03  0.17614102135E+03  0.22180015034E+03  0.00000000000E+00 0. -1.
        -12    1    6    6    0    0  0.49089980640E+01 -0.10855423438E+02  0.92442180698E+01  0.15079590436E+02  0.00000000000E+00 0.  1.
         -5    1    5    5    0  503  0.37993617317E+02 -0.21999171729E+01  0.79056766779E+01  0.39152832799E+02  0.47000000000E+01 0.  1.
<mgrwt>
<rscale>  2 0.19888512E+03</rscale>
<asrwt>0</asrwt>
<pdfrwt beam="1">  1       21 0.55487952E-01 0.19949728E+03</pdfrwt>
<pdfrwt beam="2">  1       21 0.18512491E-01 0.19949728E+03</pdfrwt>
<totfact> 0.81357614E+04</totfact>
</mgrwt>
</event>
<event>
12    1  0.1473662E-001  0.2552674E+03  0.7546771E-02  0.1110303E+00
         21   -1    0    0  504  503  0.00000000000E+00  0.00000000000E+00  0.74525490967E+02  0.74525490967E+02  0.00000000000E+00 0. -1.
         21   -1    0    0  502  504 -0.00000000000E+00 -0.00000000000E+00 -0.98978679768E+03  0.98978679768E+03  0.00000000000E+00 0.  1.
          6    2    1    2  502    0 -0.11072718105E+03  0.14934915321E+03 -0.27248552607E+03  0.37337620452E+03  0.17491640859E+03 0.  0.
         24    2    3    3    0    0  0.60084445515E+01  0.21869664575E+02 -0.71272204529E+02  0.10807049958E+03  0.78007192659E+02 0.  0.
         -6    2    1    2    0  503  0.11072718105E+03 -0.14934915321E+03 -0.64277578064E+03  0.69093608413E+03  0.17223904896E+03 0.  0.
        -24    2    5    5    0    0  0.87744249179E-01 -0.11410793346E+03 -0.30714209265E+03  0.33575290455E+03  0.73301566532E+02 0.  0.
          4    1    4    4  501    0  0.53559394671E+01 -0.19015344621E+02  0.59999442265E+01  0.20646276889E+02  0.00000000000E+00 0. -1.
         -3    1    4    4    0  501  0.65250508432E+00  0.40885009197E+02 -0.77272148756E+02  0.87424222692E+02  0.00000000000E+00 0.  1.
          5    1    3    3  502    0 -0.11673562560E+03  0.12747948863E+03 -0.20121332154E+03  0.26530570494E+03  0.47000000000E+01 0. -1.
         13    1    6    6    0    0  0.22934707620E+02 -0.78600577533E+01 -0.85968205239E+02  0.89321406357E+02  0.00000000000E+00 0. -1.
        -14    1    6    6    0    0 -0.22846963371E+02 -0.10624787570E+03 -0.22117388741E+03  0.24643149819E+03  0.00000000000E+00 0.  1.
         -5    1    5    5    0  503  0.11063943680E+03 -0.35241219750E+02 -0.33563368799E+03  0.35518317958E+03  0.47000000000E+01 0.  1.
<mgrwt>
<rscale>  2 0.25480936E+03</rscale>
<asrwt>0</asrwt>
<pdfrwt beam="1">  1       21 0.11465461E-01 0.25526737E+03</pdfrwt>
<pdfrwt beam="2">  1       21 0.15227488E+00 0.25526737E+03</pdfrwt>
<totfact> 0.17590273E+04</totfact>
</mgrwt>
</event>
<event>
12    1  0.1473662E-001  0.1805765E+03  0.7546771E-02  0.1167591E+00
         21   -1    0    0  504  503  0.00000000000E+00  0.00000000000E+00  0.16979917420E+03  0.16979917420E+03  0.00000000000E+00 0. -1.
         21   -1    0    0  502  504 -0.00000000000E+00 -0.00000000000E+00 -0.21225412777E+03  0.21225412777E+03  0.00000000000E+00 0. -1.
          6    2    1    2  502    0  0.36992163685E+02 -0.34130599560E+02 -0.82421333377E+02  0.19849720117E+03  0.17342013919E+03 0.  0.
         24    2    3    3    0    0  0.42244868965E+02  0.36550395518E+02 -0.10596140658E+02  0.97480656552E+02  0.79181057322E+02 0.  0.
         -6    2    1    2    0  503 -0.36992163685E+02  0.34130599560E+02  0.39966379806E+02  0.18355610079E+03  0.17193665294E+03 0.  0.
        -24    2    5    5    0    0  0.37191504339E+02  0.31976247922E+02 -0.86088921008E+01  0.94733215940E+02  0.80588961731E+02 0.  0.
          2    1    4    4  501    0  0.14458713757E+02 -0.22876194644E+02  0.97987002412E+01  0.28781751359E+02  0.00000000000E+00 0. -1.
         -1    1    4    4    0  501  0.27786155208E+02  0.59426590161E+02 -0.20394840900E+02  0.68698905193E+02  0.00000000000E+00 0.  1.
          5    1    3    3  502    0 -0.52527052802E+01 -0.70680995078E+02 -0.71825192719E+02  0.10101654462E+03  0.47000000000E+01 0. -1.
         13    1    6    6    0    0 -0.23507236992E+01  0.29077276897E+02  0.28242485559E+02  0.40603594967E+02  0.00000000000E+00 0. -1.
        -14    1    6    6    0    0  0.39542228039E+02  0.28989710255E+01 -0.36851377660E+02  0.54129620973E+02  0.00000000000E+00 0.  1.
         -5    1    5    5    0  503 -0.74183668024E+02  0.21543516374E+01  0.48575271907E+02  0.88822884851E+02  0.47000000000E+01 0.  1.
<mgrwt>
<rscale>  2 0.18021936E+03</rscale>
<asrwt>0</asrwt>
<pdfrwt beam="1">  1       21 0.26122950E-01 0.18057647E+03</pdfrwt>
<pdfrwt beam="2">  1       21 0.32654481E-01 0.18057647E+03</pdfrwt>
<totfact> 0.12620967E+05</totfact>
</mgrwt>
</event>
<event>
12    1  0.1473662E-001  0.2278578E+03  0.7546771E-02  0.1128304E+00
         21   -1    0    0  504  503  0.00000000000E+00  0.00000000000E+00  0.36454884371E+03  0.36454884371E+03  0.00000000000E+00 0.  1.
         21   -1    0    0  502  504 -0.00000000000E+00 -0.00000000000E+00 -0.14343675874E+03  0.14343675874E+03  0.00000000000E+00 0.  1.
          6    2    1    2  502    0  0.19672991961E+02  0.14585307533E+03  0.84106612488E+02  0.24211029152E+03  0.17286794034E+03 0.  0.
         24    2    3    3    0    0  0.15867425980E+01  0.11590772981E+03 -0.11155578563E+02  0.14051889829E+03  0.78638376510E+02 0.  0.
         -6    2    1    2    0  503 -0.19672991961E+02 -0.14585307533E+03  0.13700547248E+03  0.26587531093E+03  0.17395124396E+03 0.  0.
        -24    2    5    5    0    0 -0.32676367298E+02 -0.14102994797E+02  0.87835036239E+02  0.12457069922E+03  0.80846929878E+02 0.  0.
          2    1    4    4  501    0  0.95752192990E+01  0.12383744724E+02 -0.31073737014E+02  0.34793951917E+02  0.00000000000E+00 0. -1.
         -1    1    4    4    0  501 -0.79884767010E+01  0.10352398509E+03  0.19918158451E+02  0.10572494637E+03  0.00000000000E+00 0.  1.
          5    1    3    3  502    0  0.18086249363E+02  0.29945345517E+02  0.95262191051E+02  0.10159139323E+03  0.47000000000E+01 0. -1.
         11    1    6    6    0    0 -0.47180031143E+02 -0.30828207962E+02  0.85370582579E+02  0.10229599266E+03  0.00000000000E+00 0. -1.
        -12    1    6    6    0    0  0.14503663845E+02  0.16725213165E+02  0.24644536599E+01  0.22274706557E+02  0.00000000000E+00 0.  1.
         -5    1    5    5    0  503  0.13003375337E+02 -0.13175008053E+03  0.49170436240E+02  0.14130461171E+03  0.47000000000E+01 0.  1.
<mgrwt>
<rscale>  2 0.22765104E+03</rscale>
<asrwt>0</asrwt>
<pdfrwt beam="1">  1       21 0.56084437E-01 0.22785781E+03</pdfrwt>
<pdfrwt beam="2">  1       21 0.22067194E-01 0.22785781E+03</pdfrwt>
<totfact> 0.56527471E+04</totfact>
</mgrwt>
</event>
<event>
12    1  0.1473662E-001  0.1936603E+03  0.7546771E-02  0.1156417E+00
         21   -1    0    0  504  503  0.00000000000E+00  0.00000000000E+00  0.26756649328E+03  0.26756649328E+03  0.00000000000E+00 0.  1.
         21   -1    0    0  502  504 -0.00000000000E+00 -0.00000000000E+00 -0.19959494408E+03  0.19959494408E+03  0.00000000000E+00 0. -1.
          6    2    1    2  502    0  0.54111812760E+02  0.51788921862E+02 -0.97921418494E+02  0.21216185856E+03  0.17266693175E+03 0.  0.
         24    2    3    3    0    0  0.86203014649E+02 -0.94489502547E+01 -0.66487089743E+02  0.13606895978E+03  0.81080122835E+02 0.  0.
         -6    2    1    2    0  503 -0.54111812760E+02 -0.51788921862E+02  0.16589296770E+03  0.25499957880E+03  0.17858927109E+03 0.  0.
        -24    2    5    5    0    0 -0.45182668017E+02 -0.46306388703E+02  0.19685889230E+03  0.22197282780E+03  0.79578625781E+02 0.  0.
          2    1    4    4  501    0  0.93916738735E+02  0.12740808723E+02 -0.57860507137E+02  0.11104287599E+03  0.00000000000E+00 0. -1.
         -1    1    4    4    0  501 -0.77137240860E+01 -0.22189758977E+02 -0.86265826064E+01  0.25026083797E+02  0.00000000000E+00 0.  1.
          5    1    3    3  502    0 -0.32091201889E+02  0.61237872117E+02 -0.31434328750E+02  0.76092898775E+02  0.47000000000E+01 0. -1.
         13    1    6    6    0    0 -0.65984620751E+01 -0.91216876190E+01 -0.55777251320E+01  0.12564071968E+02  0.00000000000E+00 0. -1.
        -14    1    6    6    0    0 -0.38584205942E+02 -0.37184701084E+02  0.20243661743E+03  0.20940875583E+03  0.00000000000E+00 0.  1.
         -5    1    5    5    0  503 -0.89291447430E+01 -0.54825331594E+01 -0.30965924595E+02  0.33026751001E+02  0.47000000000E+01 0.  1.
<mgrwt>
<rscale>  2 0.19228381E+03</rscale>
<asrwt>0</asrwt>
<pdfrwt beam="1">  1       21 0.41164076E-01 0.19366029E+03</pdfrwt>
<pdfrwt beam="2">  1       21 0.30706914E-01 0.19366029E+03</pdfrwt>
<totfact> 0.57851557E+04</totfact>
</mgrwt>
</event>
<event>
12    1  0.1473662E-001  0.2549074E+03  0.7546771E-02  0.1111356E+00
         21   -1    0    0  504  503  0.00000000000E+00  0.00000000000E+00  0.68336201650E+03  0.68336201650E+03  0.00000000000E+00 0. -1.
         21   -1    0    0  502  504 -0.00000000000E+00 -0.00000000000E+00 -0.93466814441E+02  0.93466814441E+02  0.00000000000E+00 0. -1.
          6    2    1    2  502    0 -0.16425789988E+03 -0.90013155219E+02  0.25855054345E+03  0.36307874482E+03  0.17290102844E+03 0.  0.
         24    2    3    3    0    0 -0.48762230418E+02 -0.82774935204E+02  0.75717242476E+02  0.14664920100E+03  0.80891546726E+02 0.  0.
         -6    2    1    2    0  503  0.16425789988E+03  0.90013155219E+02  0.33134465860E+03  0.41375008611E+03  0.16222461339E+03 0.  0.
        -24    2    5    5    0    0  0.12723470399E+03  0.83737750298E+02  0.14725720540E+03  0.22581292064E+03  0.78141601346E+02 0.  0.
          2    1    4    4  501    0 -0.43206885065E+02 -0.72799203825E+02  0.93111279866E+02  0.12584224026E+03  0.00000000000E+00 0. -1.
         -1    1    4    4    0  501 -0.55553453535E+01 -0.99757313786E+01 -0.17394037390E+02  0.20806960741E+02  0.00000000000E+00 0.  1.
          5    1    3    3  502    0 -0.11549566947E+03 -0.72382200150E+01  0.18283330098E+03  0.21642954383E+03  0.47000000000E+01 0. -1.
         13    1    6    6    0    0  0.55384979018E+02  0.42830269726E+02  0.11968191540E+03  0.13865673002E+03  0.00000000000E+00 0. -1.
        -14    1    6    6    0    0  0.71849724968E+02  0.40907480571E+02  0.27575290003E+02  0.87156190620E+02  0.00000000000E+00 0.  1.
         -5    1    5    5    0  503  0.37023195899E+02  0.62754049210E+01  0.18408745320E+03  0.18793716548E+03  0.47000000000E+01 0.  1.
<mgrwt>
<rscale>  2 0.25310911E+03</rscale>
<asrwt>0</asrwt>
<pdfrwt beam="1">  1       21 0.10513261E+00 0.25490742E+03</pdfrwt>
<pdfrwt beam="2">  1       21 0.14379510E-01 0.25490742E+03</pdfrwt>
<totfact> 0.29872206E+04</totfact>
</mgrwt>
</event>
<event>
12    1  0.1473662E-001  0.1826085E+03  0.7546771E-02  0.1165341E+00
         21   -1    0    0  504  503  0.00000000000E+00  0.00000000000E+00  0.13995261803E+02  0.13995261803E+02  0.00000000000E+00 0.  1.
         21   -1    0    0  502  504 -0.00000000000E+00 -0.00000000000E+00 -0.35639256897E+04  0.35639256897E+04  0.00000000000E+00 0.  1.
          6    2    1    2  502    0  0.32683357118E+02  0.46373475284E+02 -0.28053058853E+04  0.28112322425E+04  0.17339812523E+03 0.  0.
         24    2    3    3    0    0  0.57590882372E+02 -0.18185688433E+02 -0.21321018664E+04  0.21344649179E+04  0.80216508827E+02 0.  0.
         -6    2    1    2    0  503 -0.32683357118E+02 -0.46373475284E+02 -0.74462454262E+03  0.76668870908E+03  0.17357178951E+03 0.  0.
        -24    2    5    5    0    0  0.21579680501E+01 -0.54683682113E+02 -0.21577759049E+03  0.23660931290E+03  0.80181272612E+02 0.  0.
          2    1    4    4  501    0  0.41585816107E+02 -0.49796319628E+02 -0.13326124964E+04  0.13341908106E+04  0.00000000000E+00 0. -1.
         -1    1    4    4    0  501  0.16005066265E+02  0.31610631195E+02 -0.79948936997E+03  0.80027410732E+03  0.00000000000E+00 0.  1.
          5    1    3    3  502    0 -0.24907525254E+02  0.64559163716E+02 -0.67320401894E+03  0.67676732453E+03  0.47000000000E+01 0. -1.
         11    1    6    6    0    0 -0.38115510098E+02 -0.29130426525E+02 -0.12827117780E+03  0.13694841698E+03  0.00000000000E+00 0. -1.
        -12    1    6    6    0    0  0.40273478149E+02 -0.25553255587E+02 -0.87506412695E+02  0.99660895923E+02  0.00000000000E+00 0.  1.
         -5    1    5    5    0  503 -0.34841325168E+02  0.83102068289E+01 -0.52884695213E+03  0.53007939618E+03  0.47000000000E+01 0.  1.
<mgrwt>
<rscale>  2 0.18256723E+03</rscale>
<asrwt>0</asrwt>
<pdfrwt beam="1">  1       21 0.21531204E-02 0.18260851E+03</pdfrwt>
<pdfrwt beam="2">  1       21 0.54829544E+00 0.18260851E+03</pdfrwt>
<totfact> 0.93838282E+02</totfact>
</mgrwt>
</event>
<event>
12    1  0.1473662E-001  0.2081401E+03  0.7546771E-02  0.1143649E+00
         21   -1    0    0  504  503  0.00000000000E+00  0.00000000000E+00  0.15812697183E+04  0.15812697183E+04  0.00000000000E+00 0. -1.
         21   -1    0    0  502  504 -0.00000000000E+00 -0.00000000000E+00 -0.87006460843E+02  0.87006460843E+02  0.00000000000E+00 0.  1.
          6    2    1    2  502    0  0.52083612939E+02  0.10261835225E+03  0.56119722563E+02  0.21557303987E+03  0.17343322434E+03 0.  0.
         24    2    3    3    0    0  0.93253652830E+02  0.10352768823E+03  0.65274127290E+02  0.17312669489E+03  0.79359402679E+02 0.  0.
         -6    2    1    2    0  503 -0.52083612939E+02 -0.10261835225E+03  0.14381435349E+04  0.14527031393E+04  0.16984214710E+03 0.  0.
        -24    2    5    5    0    0 -0.47259143642E+02 -0.12893497328E+03  0.13725605333E+04  0.13817168016E+04  0.79757432813E+02 0.  0.
          4    1    4    4  501    0  0.36735853841E+02  0.70488668648E+02 -0.16537592914E+01  0.79504152628E+02  0.00000000000E+00 0. -1.
         -3    1    4    4    0  501  0.56517798988E+02  0.33039019585E+02  0.66927886581E+02  0.93622542263E+02  0.00000000000E+00 0.  1.
          5    1    3    3  502    0 -0.41170039891E+02 -0.90933598230E+00 -0.91544047271E+01  0.42446344983E+02  0.47000000000E+01 0. -1.
         13    1    6    6    0    0 -0.18546986389E+02 -0.82182153211E+02  0.47007542885E+03  0.47756549899E+03  0.00000000000E+00 0. -1.
        -14    1    6    6    0    0 -0.28712157253E+02 -0.46752820069E+02  0.90248510447E+03  0.90415130257E+03  0.00000000000E+00 0.  1.
         -5    1    5    5    0  503 -0.48244692971E+01  0.26316621029E+02  0.65583001600E+02  0.70986337737E+02  0.47000000000E+01 0.  1.
<mgrwt>
<rscale>  2 0.20739042E+03</rscale>
<asrwt>0</asrwt>
<pdfrwt beam="1">  1       21 0.24327224E+00 0.20814013E+03</pdfrwt>
<pdfrwt beam="2">  1       21 0.13385610E-01 0.20814013E+03</pdfrwt>
<totfact> 0.34572676E+03</totfact>
</mgrwt>
</event>
<event>
12    1  0.1473662E-001  0.2227660E+03  0.7546771E-02  0.1133058E+00
         21   -1    0    0  504  503  0.00000000000E+00  0.00000000000E+00  0.39972142588E+03  0.39972142588E+03  0.00000000000E+00 0.  1.
         21   -1    0    0  502  504 -0.00000000000E+00 -0.00000000000E+00 -0.16722226969E+03  0.16722226969E+03  0.00000000000E+00 0.  1.
          6    2    1    2  502    0  0.34755500717E+02  0.12861814711E+03 -0.34789782397E+02  0.21899532333E+03  0.17028813842E+03 0.  0.
         24    2    3    3    0    0  0.49749118550E+02  0.71804015051E+02 -0.81355947714E+02  0.14387440794E+03  0.80313533458E+02 0.  0.
         -6    2    1    2    0  503 -0.34755500717E+02 -0.12861814711E+03  0.26728893859E+03  0.34794837223E+03  0.17853324746E+03 0.  0.
        -24    2    5    5    0    0  0.17136131472E+02 -0.62791447119E+02  0.50122931687E+02  0.11511997947E+03  0.80646689690E+02 0.  0.
          4    1    4    4  501    0  0.49635273425E+02  0.35372120257E+01 -0.27023652830E+02  0.56625524715E+02  0.00000000000E+00 0. -1.
         -3    1    4    4    0  501  0.11384512446E+00  0.68266803025E+02 -0.54332294884E+02  0.87248883222E+02  0.00000000000E+00 0.  1.
          5    1    3    3  502    0 -0.14993617832E+02  0.56814132063E+02  0.46566165317E+02  0.75120915397E+02  0.47000000000E+01 0. -1.
         11    1    6    6    0    0  0.70212292728E+01  0.17931850817E+02 -0.56695876471E+00  0.19265782529E+02  0.00000000000E+00 0. -1.
        -12    1    6    6    0    0  0.10114902199E+02 -0.80723297936E+02  0.50689890452E+02  0.95854196936E+02  0.00000000000E+00 0.  1.
         -5    1    5    5    0  503 -0.51891632190E+02 -0.65826699994E+02  0.21716600691E+03  0.23282839277E+03  0.47000000000E+01 0.  1.
<mgrwt>
<rscale>  2 0.22110970E+03</rscale>
<asrwt>0</asrwt>
<pdfrwt beam="1">  1       21 0.61495604E-01 0.22276601E+03</pdfrwt>
<pdfrwt beam="2">  1       21 0.25726503E-01 0.22276601E+03</pdfrwt>
<totfact> 0.34695241E+04</totfact>
</mgrwt>
</event>
<event>
12    1  0.1473662E-001  0.1773357E+03  0.7546771E-02  0.1171256E+00
         21   -1    0    0  504  503  0.00000000000E+00  0.00000000000E+00  0.79102908888E+03  0.79102908888E+03  0.00000000000E+00 0. -1.
         21   -1    0    0  502  504 -0.00000000000E+00 -0.00000000000E+00 -0.62120500848E+02  0.62120500848E+02  0.00000000000E+00 0. -1.
          6    2    1    2  502    0 -0.37424161884E+02 -0.23634370487E+02  0.10641626951E+03  0.20681485255E+03  0.17172306036E+03 0.  0.
         24    2    3    3    0    0 -0.24703015681E+02  0.37794018681E+02  0.11080679475E+03  0.14375423673E+03  0.79677524954E+02 0.  0.
         -6    2    1    2    0  503  0.37424161884E+02  0.23634370487E+02  0.62249231852E+03  0.64633473717E+03  0.16820450202E+03 0.  0.
        -24    2    5    5    0    0  0.62889371164E+02  0.12661233422E+02  0.22900734142E+03  0.25184594922E+03  0.82865190973E+02 0.  0.
          2    1    4    4  501    0  0.18689779222E+02  0.43665234434E+02  0.51868761086E+02  0.70330142345E+02  0.00000000000E+00 0. -1.
         -1    1    4    4    0  501 -0.43392794904E+02 -0.58712157530E+01  0.58938033664E+02  0.73424094384E+02  0.00000000000E+00 0.  1.
          5    1    3    3  502    0 -0.12721146202E+02 -0.61428389168E+02 -0.43905252375E+01  0.63060615826E+02  0.47000000000E+01 0. -1.
         11    1    6    6    0    0 -0.95245741947E+00  0.13760330779E+02  0.14827606013E+03  0.14891623111E+03  0.00000000000E+00 0. -1.
        -12    1    6    6    0    0  0.63841828583E+02 -0.10990973567E+01  0.80731281287E+02  0.10292971811E+03  0.00000000000E+00 0.  1.
         -5    1    5    5    0  503 -0.25465209280E+02  0.10973137065E+02  0.39348497710E+03  0.39448878796E+03  0.47000000000E+01 0.  1.
<mgrwt>
<rscale>  2 0.17647829E+03</rscale>
<asrwt>0</asrwt>
<pdfrwt beam="1">  1       21 0.12169678E+00 0.17733573E+03</pdfrwt>
<pdfrwt beam="2">  1       21 0.95570007E-02 0.17733573E+03</pdfrwt>
<totfact> 0.45197704E+04</totfact>
</mgrwt>
</event>
<event>
12    1  0.1473662E-001  0.1854808E+03  0.7546771E-02  0.1162626E+00
         21   -1    0    0  504  503  0.00000000000E+00  0.00000000000E+00  0.13695092759E+03  0.13695092759E+03  0.00000000000E+00 0. -1.
         21   -1    0    0  502  504 -0.00000000000E+00 -0.00000000000E+00 -0.28488448917E+03  0.28488448917E+03  0.00000000000E+00 0. -1.
          6    2    1    2  502    0 -0.65521320801E+02 -0.14614073581E+01 -0.14665497368E+03  0.23645463235E+03  0.17351637577E+03 0.  0.
         24    2    3    3    0    0  0.29441272728E+02  0.15881410441E+02 -0.54347245455E+02  0.10280780601E+03  0.80602817264E+02 0.  0.
         -6    2    1    2    0  503  0.65521320801E+02  0.14614073581E+01 -0.12785878930E+01  0.18538078441E+03  0.17340479016E+03 0.  0.
        -24    2    5    5    0    0  0.74088996815E+02  0.27438407479E+02  0.48362623929E+02  0.12850768428E+03  0.89068714322E+02 0.  0.
          4    1    4    4  501    0  0.56015311799E+02  0.16881020135E+02 -0.26254574130E+02  0.64124774147E+02  0.00000000000E+00 0. -1.
         -3    1    4    4    0  501 -0.26574039070E+02 -0.99960969330E+00 -0.28092671325E+02  0.38683031864E+02  0.00000000000E+00 0.  1.
          5    1    3    3  502    0 -0.94962593529E+02 -0.17342817800E+02 -0.92307728230E+02  0.13364682634E+03  0.47000000000E+01 0. -1.
         11    1    6    6    0    0  0.40348492604E+01 -0.28303978806E+02  0.49642605511E+01  0.29017910118E+02  0.00000000000E+00 0. -1.
        -12    1    6    6    0    0  0.70054147555E+02  0.55742386285E+02  0.43398363378E+02  0.99489774159E+02  0.00000000000E+00 0.  1.
         -5    1    5    5    0  503 -0.85676760140E+01 -0.25977000121E+02 -0.49641211822E+02  0.56873100133E+02  0.47000000000E+01 0.  1.
<mgrwt>
<rscale>  2 0.18545466E+03</rscale>
<asrwt>0</asrwt>
<pdfrwt beam="1">  1       21 0.21069374E-01 0.18548076E+03</pdfrwt>
<pdfrwt beam="2">  1       21 0.43828383E-01 0.18548076E+03</pdfrwt>
<totfact> 0.10500852E+05</totfact>
</mgrwt>
</event>
<event>
12    1  0.1473662E-001  0.1819898E+03  0.7546771E-02  0.1166335E+00
         21   -1    0    0  504  503  0.00000000000E+00  0.00000000000E+00  0.31854191435E+03  0.31854191435E+03  0.00000000000E+00 0. -1.
         21   -1    0    0  502  504 -0.00000000000E+00 -0.00000000000E+00 -0.10819984801E+03  0.10819984801E+03  0.00000000000E+00 0. -1.
          6    2    1    2  502    0 -0.52520828986E+02  0.19945282804E+02  0.15281486457E+03  0.23763978174E+03  0.17310121678E+03 0.  0.
         24    2    3    3    0    0  0.26920037997E+02  0.42634251803E+02  0.55174156646E+02  0.10964978797E+03  0.80227928857E+02 0.  0.
         -6    2    1    2    0  503  0.52520828986E+02 -0.19945282804E+02  0.57527201772E+02  0.18910198061E+03  0.17115469127E+03 0.  0.
        -24    2    5    5    0    0  0.38328288079E+02 -0.27150807337E+02  0.10404485539E+03  0.13971240783E+03  0.80548128230E+02 0.  0.
          2    1    4    4  501    0 -0.25522445741E+02  0.11249333072E+02  0.88923283279E+00  0.27905796283E+02  0.00000000000E+00 0. -1.
         -1    1    4    4    0  501  0.52442483737E+02  0.31384918731E+02  0.54284923813E+02  0.81743991692E+02  0.00000000000E+00 0.  1.
          5    1    3    3  502    0 -0.79440866983E+02 -0.22688968999E+02  0.97640707924E+02  0.12798999377E+03  0.47000000000E+01 0. -1.
         11    1    6    6    0    0  0.44449355605E+02  0.14264814651E+02  0.32716143429E+02  0.57005054089E+02  0.00000000000E+00 0. -1.
        -12    1    6    6    0    0 -0.61210675260E+01 -0.41415621987E+02  0.71328711965E+02  0.82707353741E+02  0.00000000000E+00 0.  1.
         -5    1    5    5    0  503  0.14192540907E+02  0.72055245326E+01 -0.46517653622E+02  0.49389572783E+02  0.47000000000E+01 0.  1.
<mgrwt>
<rscale>  2 0.18152540E+03</rscale>
<asrwt>0</asrwt>
<pdfrwt beam="1">  1       21 0.49006448E-01 0.18198979E+03</pdfrwt>
<pdfrwt beam="2">  1       21 0.16646131E-01 0.18198979E+03</pdfrwt>
<totfact> 0.12930623E+05</totfact>
</mgrwt>
</event>
<event>
12    1  0.1473662E-001  0.2579868E+03  0.7546771E-02  0.1108370E+00
         21   -1    0    0  504  503  0.00000000000E+00  0.00000000000E+00  0.76275109137E+02  0.76275109137E+02  0.00000000000E+00 0.  1.
         21   -1    0    0  502  504 -0.00000000000E+00 -0.00000000000E+00 -0.13861307270E+04  0.13861307270E+04  0.00000000000E+00 0. -1.
          6    2    1    2  502    0  0.90088384941E+02 -0.16926620346E+03 -0.20981738166E+03  0.33253646139E+03  0.17259837709E+03 0.  0.
         24    2    3    3    0    0  0.67966452899E+02 -0.16817290916E+03 -0.10320371235E+03  0.22354499543E+03  0.80123608526E+02 0.  0.
         -6    2    1    2    0  503 -0.90088384941E+02  0.16926620346E+03 -0.11000382362E+04  0.11298693748E+04  0.17249266113E+03 0.  0.
        -24    2    5    5    0    0 -0.12833916884E+03  0.14418458521E+03 -0.96193939657E+03  0.98431667106E+03  0.79320674345E+02 0.  0.
          4    1    4    4  501    0  0.26837625767E+01 -0.96656353163E+02 -0.75936145949E+02  0.12294694567E+03  0.00000000000E+00 0. -1.
         -3    1    4    4    0  501  0.65282690322E+02 -0.71516555994E+02 -0.27267566398E+02  0.10059804975E+03  0.00000000000E+00 0.  1.
          5    1    3    3  502    0  0.22121932042E+02 -0.10932943028E+01 -0.10661366931E+03  0.10899146597E+03  0.47000000000E+01 0. -1.
         13    1    6    6    0    0 -0.31081458754E+02  0.94494011464E+02 -0.45811503077E+03  0.46879052540E+03  0.00000000000E+00 0. -1.
        -14    1    6    6    0    0 -0.97257710085E+02  0.49690573743E+02 -0.50382436579E+03  0.51552614566E+03  0.00000000000E+00 0.  1.
         -5    1    5    5    0  503  0.38250783898E+02  0.25081618253E+02 -0.13809883967E+03  0.14555270372E+03  0.47000000000E+01 0.  1.
<mgrwt>
<rscale>  2 0.25796907E+03</rscale>
<asrwt>0</asrwt>
<pdfrwt beam="1">  1       21 0.11734633E-01 0.25798675E+03</pdfrwt>
<pdfrwt beam="2">  1       21 0.21325087E+00 0.25798675E+03</pdfrwt>
<totfact> 0.64143948E+03</totfact>
</mgrwt>
</event>
<event>
12    1  0.1473662E-001  0.2724699E+03  0.7546771E-02  0.1100094E+00
         21   -1    0    0  504  503  0.00000000000E+00  0.00000000000E+00  0.78738227218E+02  0.78738227218E+02  0.00000000000E+00 0.  1.
         21   -1    0    0  502  504 -0.00000000000E+00 -0.00000000000E+00 -0.12136289523E+04  0.12136289523E+04  0.00000000000E+00 0. -1.
          6    2    1    2  502    0 -0.47717250810E+02 -0.20276768660E+03 -0.87441478785E+03  0.91542214098E+03  0.17321894883E+03 0.  0.
         24    2    3    3    0    0 -0.89291619306E+02 -0.12833799355E+03 -0.46118947766E+03  0.49346781371E+03  0.79819264563E+02 0.  0.
         -6    2    1    2    0  503  0.47717250810E+02  0.20276768660E+03 -0.26047593719E+03  0.37694503849E+03  0.17563649232E+03 0.  0.
        -24    2    5    5    0    0  0.69257429756E+02  0.63117499228E+02 -0.16823215806E+03  0.20813402306E+03  0.78976593155E+02 0.  0.
          2    1    4    4  501    0 -0.79240839424E+02 -0.62325824417E+02 -0.34532046290E+03  0.35973579349E+03  0.00000000000E+00 0. -1.
         -1    1    4    4    0  501 -0.10050779882E+02 -0.66012169132E+02 -0.11586901476E+03  0.13373202022E+03  0.00000000000E+00 0.  1.
          5    1    3    3  502    0  0.41574368496E+02 -0.74429693052E+02 -0.41322531018E+03  0.42195432727E+03  0.47000000000E+01 0. -1.
         13    1    6    6    0    0  0.47577026134E+02  0.77038029512E+02 -0.98495696813E+02  0.13379026010E+03  0.00000000000E+00 0. -1.
        -14    1    6    6    0    0  0.21680403621E+02 -0.13920530284E+02 -0.69736461245E+02  0.74343762963E+02  0.00000000000E+00 0.  1.
         -5    1    5    5    0  503 -0.21540178945E+02  0.13965018737E+03 -0.92243779134E+02  0.16881101543E+03  0.47000000000E+01 0.  1.
<mgrwt>
<rscale>  2 0.27208106E+03</rscale>
<asrwt>0</asrwt>
<pdfrwt beam="1">  1       21 0.12113573E-01 0.27246990E+03</pdfrwt>
<pdfrwt beam="2">  1       21 0.18671215E+00 0.27246990E+03</pdfrwt>
<totfact> 0.89393122E+03</totfact>
</mgrwt>
</event>
<event>
12    1  0.1473662E-001  0.2317773E+03  0.7546771E-02  0.1125445E+00
         21   -1    0    0  504  503  0.00000000000E+00  0.00000000000E+00  0.94492266375E+02  0.94492266375E+02  0.00000000000E+00 0.  1.
         21   -1    0    0  502  504 -0.00000000000E+00 -0.00000000000E+00 -0.79117838944E+03  0.79117838944E+03  0.00000000000E+00 0.  1.
          6    2    1    2  502    0  0.65925670049E+02 -0.14221770401E+03 -0.58347995009E+03  0.62772421623E+03  0.17034309548E+03 0.  0.
         24    2    3    3    0    0  0.77049916999E+01 -0.15189798212E+03 -0.41511679740E+03  0.44925406087E+03  0.79842919866E+02 0.  0.
         -6    2    1    2    0  503 -0.65925670049E+02  0.14221770401E+03 -0.11320617298E+03  0.25794643959E+03  0.17072978297E+03 0.  0.
        -24    2    5    5    0    0 -0.11092369275E+03  0.98362091406E+02 -0.63218009257E+02  0.17751607644E+03  0.74406142638E+02 0.  0.
          4    1    4    4  501    0  0.31165330286E+02 -0.95536311011E+02 -0.17803366605E+03  0.20443691149E+03  0.00000000000E+00 0. -1.
         -3    1    4    4    0  501 -0.23460338586E+02 -0.56361671107E+02 -0.23708313135E+03  0.24481714938E+03  0.00000000000E+00 0.  1.
          5    1    3    3  502    0  0.58220678349E+02  0.96802781073E+01 -0.16836315269E+03  0.17847015536E+03  0.47000000000E+01 0. -1.
         13    1    6    6    0    0 -0.74922427256E+02  0.17046520294E+02 -0.26055479467E+02  0.81134714952E+02  0.00000000000E+00 0. -1.
        -14    1    6    6    0    0 -0.36001265492E+02  0.81315571112E+02 -0.37162529789E+02  0.96381361490E+02  0.00000000000E+00 0.  1.
         -5    1    5    5    0  503  0.44998022699E+02  0.43855612605E+02 -0.49988163725E+02  0.80430363150E+02  0.47000000000E+01 0.  1.
<mgrwt>
<rscale>  2 0.23170612E+03</rscale>
<asrwt>0</asrwt>
<pdfrwt beam="1">  1       21 0.14537271E-01 0.23177732E+03</pdfrwt>
<pdfrwt beam="2">  1       21 0.12171976E+00 0.23177732E+03</pdfrwt>
<totfact> 0.20676627E+04</totfact>
</mgrwt>
</event>
<event>
12    1  0.1473662E-001  0.1824184E+03  0.7546771E-02  0.1165933E+00
         21   -1    0    0  504  503  0.00000000000E+00  0.00000000000E+00  0.33383233872E+02  0.33383233872E+02  0.00000000000E+00 0. -1.
         21   -1    0    0  502  504 -0.00000000000E+00 -0.00000000000E+00 -0.10194314249E+04  0.10194314249E+04  0.00000000000E+00 0. -1.
          6    2    1    2  502    0 -0.50605201030E+02  0.21694601353E+02 -0.58511553296E+03  0.61233371817E+03  0.17193270021E+03 0.  0.
         24    2    3    3    0    0 -0.52335656170E+01  0.60320670715E+02 -0.23508040200E+03  0.25723198424E+03  0.85085397035E+02 0.  0.
         -6    2    1    2    0  503  0.50605201030E+02 -0.21694601353E+02 -0.40093265806E+03  0.44048094059E+03  0.17391066852E+03 0.  0.
        -24    2    5    5    0    0  0.87656059924E+02 -0.32542899128E+02 -0.37235303092E+03  0.39221773725E+03  0.80282928773E+02 0.  0.
          2    1    4    4  501    0 -0.44603590213E+02  0.31327562831E+02 -0.10580370771E+03  0.11901815415E+03  0.00000000000E+00 0. -1.
         -1    1    4    4    0  501  0.39370024596E+02  0.28993107884E+02 -0.12927669429E+03  0.13821383009E+03  0.00000000000E+00 0.  1.
          5    1    3    3  502    0 -0.45371635413E+02 -0.38626069362E+02 -0.35003513096E+03  0.35510173393E+03  0.47000000000E+01 0. -1.
         11    1    6    6    0    0  0.34463597342E+02  0.63712618198E+01 -0.39093564297E+02  0.52503707378E+02  0.00000000000E+00 0. -1.
        -12    1    6    6    0    0  0.53192462582E+02 -0.38914160948E+02 -0.33325946662E+03  0.33971402987E+03  0.00000000000E+00 0.  1.
         -5    1    5    5    0  503 -0.37050858895E+02  0.10848297775E+02 -0.28579627144E+02  0.48263203345E+02  0.47000000000E+01 0.  1.
<mgrwt>
<rscale>  2 0.18194535E+03</rscale>
<asrwt>0</asrwt>
<pdfrwt beam="1">  1       21 0.51358818E-02 0.18241837E+03</pdfrwt>
<pdfrwt beam="2">  1       21 0.15683561E+00 0.18241837E+03</pdfrwt>
<totfact> 0.68634925E+04</totfact>
</mgrwt>
</event>
<event>
12    1  0.1473662E-001  0.1919765E+03  0.7546771E-02  0.1157257E+00
         21   -1    0    0  504  503  0.00000000000E+00  0.00000000000E+00  0.24544990652E+03  0.24544990652E+03  0.00000000000E+00 0. -1.
         21   -1    0    0  502  504 -0.00000000000E+00 -0.00000000000E+00 -0.63715414345E+03  0.63715414345E+03  0.00000000000E+00 0. -1.
          6    2    1    2  502    0 -0.76371624162E+02  0.25188005581E+02 -0.58214271029E+03  0.61219364766E+03  0.17153386398E+03 0.  0.
         24    2    3    3    0    0 -0.46442758665E+02  0.36520131266E+02 -0.15490501061E+03  0.18373326899E+03  0.79194078078E+02 0.  0.
         -6    2    1    2    0  503  0.76371624162E+02 -0.25188005581E+02  0.19043847336E+03  0.27041040231E+03  0.17432129227E+03 0.  0.
        -24    2    5    5    0    0  0.28218420801E+02 -0.60038638399E+01  0.20028987018E+03  0.21743963388E+03  0.79571581816E+02 0.  0.
          4    1    4    4  501    0  0.16699921033E+02 -0.10799121337E+02 -0.32318790605E+02  0.37947498077E+02  0.00000000000E+00 0. -1.
         -3    1    4    4    0  501 -0.63142679698E+02  0.47319252603E+02 -0.12258622001E+03  0.14578577092E+03  0.00000000000E+00 0.  1.
          5    1    3    3  502    0 -0.29928865497E+02 -0.11332125686E+02 -0.42723769968E+03  0.42846037867E+03  0.47000000000E+01 0. -1.
         13    1    6    6    0    0  0.48353016236E+02  0.30487542175E+01  0.69024464037E+02  0.84330811196E+02  0.00000000000E+00 0. -1.
        -14    1    6    6    0    0 -0.20134595436E+02 -0.90526180574E+01  0.13126540614E+03  0.13310882268E+03  0.00000000000E+00 0.  1.
         -5    1    5    5    0  503  0.48153203361E+02 -0.19184141741E+02 -0.98513968206E+01  0.52970768425E+02  0.47000000000E+01 0.  1.
<mgrwt>
<rscale>  2 0.19134148E+03</rscale>
<asrwt>0</asrwt>
<pdfrwt beam="1">  1       21 0.37761524E-01 0.19197649E+03</pdfrwt>
<pdfrwt beam="2">  1       21 0.98023714E-01 0.19197649E+03</pdfrwt>
<totfact> 0.58240227E+03</totfact>
</mgrwt>
</event>
<event>
12    1  0.1473662E-001  0.1814953E+03  0.7546771E-02  0.1166593E+00
         21   -1    0    0  504  503  0.00000000000E+00  0.00000000000E+00  0.14625315828E+03  0.14625315828E+03  0.00000000000E+00 0.  1.
         21   -1    0    0  502  504 -0.00000000000E+00 -0.00000000000E+00 -0.25569956863E+03  0.25569956863E+03  0.00000000000E+00 0.  1.
          6    2    1    2  502    0 -0.27357805111E+02  0.44430874382E+02 -0.12530830129E+03  0.21976563888E+03  0.17283579942E+03 0.  0.
         24    2    3    3    0    0 -0.72673175403E+02  0.22231384664E+02 -0.35292201086E+02  0.11646371041E+03  0.80886534715E+02 0.  0.
         -6    2    1    2    0  503  0.27357805111E+02 -0.44430874382E+02  0.15861890936E+02  0.18218708803E+03  0.17383320558E+03 0.  0.
        -24    2    5    5    0    0 -0.85088310702E+01  0.31650970461E+02 -0.22167586865E+02  0.89757688558E+02  0.80565852633E+02 0.  0.
          2    1    4    4  501    0 -0.15661974435E+02  0.29122863691E+02  0.18404293982E+02  0.37843845864E+02  0.00000000000E+00 0. -1.
         -1    1    4    4    0  501 -0.57011200968E+02 -0.68914790266E+01 -0.53696495068E+02  0.78619864548E+02  0.00000000000E+00 0.  1.
          5    1    3    3  502    0  0.45315370292E+02  0.22199489718E+02 -0.90016100207E+02  0.10330192847E+03  0.47000000000E+01 0. -1.
         13    1    6    6    0    0  0.25692115168E+02 -0.98754243980E+01 -0.23128465480E+02  0.35951838678E+02  0.00000000000E+00 0. -1.
        -14    1    6    6    0    0 -0.34200946239E+02  0.41526394859E+02  0.96087861502E+00  0.53805849880E+02  0.00000000000E+00 0.  1.
         -5    1    5    5    0  503  0.35866636181E+02 -0.76081844844E+02  0.38029477801E+02  0.92429399476E+02  0.47000000000E+01 0.  1.
<mgrwt>
<rscale>  2 0.18125604E+03</rscale>
<asrwt>0</asrwt>
<pdfrwt beam="1">  1       21 0.22500486E-01 0.18149528E+03</pdfrwt>
<pdfrwt beam="2">  1       21 0.39338394E-01 0.18149528E+03</pdfrwt>
<totfact> 0.11571409E+05</totfact>
</mgrwt>
</event>
<event>
12    1  0.1473662E-001  0.1761198E+03  0.7546771E-02  0.1171658E+00
         21   -1    0    0  504  503  0.00000000000E+00  0.00000000000E+00  0.15779133200E+03  0.15779133200E+03  0.00000000000E+00 0.  1.
         21   -1    0    0  502  504 -0.00000000000E+00 -0.00000000000E+00 -0.37097205428E+03  0.37097205428E+03  0.00000000000E+00 0.  1.
          6    2    1    2  502    0  0.30715588198E+02  0.16560877803E+02 -0.28799868542E+03  0.33758174930E+03  0.17262816868E+03 0.  0.
         24    2    3    3    0    0 -0.37755215684E+02  0.47670665271E+02 -0.16777142628E+03  0.19569181413E+03  0.80312427457E+02 0.  0.
         -6    2    1    2    0  503 -0.30715588198E+02 -0.16560877803E+02  0.74817963144E+02  0.19118163698E+03  0.17243833877E+03 0.  0.
        -24    2    5    5    0    0 -0.75117772156E+02 -0.49148176322E+02  0.54866516184E+02  0.13241399112E+03  0.80404648595E+02 0.  0.
          4    1    4    4  501    0 -0.56204842846E+02  0.23493524450E+02 -0.67566649586E+02  0.90973524647E+02  0.00000000000E+00 0. -1.
         -3    1    4    4    0  501  0.18449627162E+02  0.24177140822E+02 -0.10020477669E+03  0.10471828948E+03  0.00000000000E+00 0.  1.
          5    1    3    3  502    0  0.68470803881E+02 -0.31109787468E+02 -0.12022725914E+03  0.14188993516E+03  0.47000000000E+01 0. -1.
         11    1    6    6    0    0  0.11032224249E+02 -0.22398256945E+02 -0.31422396933E+01  0.25164768156E+02  0.00000000000E+00 0. -1.
        -12    1    6    6    0    0 -0.86149996404E+02 -0.26749919377E+02  0.58008755877E+02  0.10724922296E+03  0.00000000000E+00 0.  1.
         -5    1    5    5    0  503  0.44402183958E+02  0.32587298519E+02  0.19951446960E+02  0.58767645867E+02  0.47000000000E+01 0.  1.
<mgrwt>
<rscale>  2 0.17607330E+03</rscale>
<asrwt>0</asrwt>
<pdfrwt beam="1">  1       21 0.24275590E-01 0.17611983E+03</pdfrwt>
<pdfrwt beam="2">  1       21 0.57072623E-01 0.17611983E+03</pdfrwt>
<totfact> 0.46570495E+04</totfact>
</mgrwt>
</event>
<event>
12    1  0.1473662E-001  0.1797912E+03  0.7546771E-02  0.1168107E+00
         21   -1    0    0  504  503  0.00000000000E+00  0.00000000000E+00  0.23012578333E+02  0.23012578333E+02  0.00000000000E+00 0.  1.
         21   -1    0    0  502  504 -0.00000000000E+00 -0.00000000000E+00 -0.14644746880E+04  0.14644746880E+04  0.00000000000E+00 0.  1.
          6    2    1    2  502    0 -0.33136901070E+02  0.41521639986E+02 -0.56553517039E+03  0.59329886917E+03  0.17132255662E+03 0.  0.
         24    2    3    3    0    0 -0.45383857800E+02 -0.34149006304E+02 -0.26823003532E+03  0.28623459577E+03  0.82201233483E+02 0.  0.
         -6    2    1    2    0  503  0.33136901070E+02 -0.41521639986E+02 -0.87592693926E+03  0.89418839715E+03  0.17176375018E+03 0.  0.
        -24    2    5    5    0    0  0.47268281934E+02  0.92766013442E+01 -0.27553572987E+03  0.29146802122E+03  0.81934871389E+02 0.  0.
          4    1    4    4  501    0 -0.47890207494E+02  0.10976704418E+01 -0.22670161955E+03  0.23170736104E+03  0.00000000000E+00 0. -1.
         -3    1    4    4    0  501  0.25063496938E+01 -0.35246676746E+02 -0.41528415766E+02  0.54527234722E+02  0.00000000000E+00 0.  1.
          5    1    3    3  502    0  0.12246956730E+02  0.75670646291E+02 -0.29730513507E+03  0.30706427340E+03  0.47000000000E+01 0. -1.
         11    1    6    6    0    0  0.12204325498E+02 -0.83276511392E+01 -0.17417782058E+01  0.14877134324E+02  0.00000000000E+00 0. -1.
        -12    1    6    6    0    0  0.35063956436E+02  0.17604252483E+02 -0.27379395166E+03  0.27659088689E+03  0.00000000000E+00 0.  1.
         -5    1    5    5    0  503 -0.14131380864E+02 -0.50798241331E+02 -0.60039120939E+03  0.60272037593E+03  0.47000000000E+01 0.  1.
<mgrwt>
<rscale>  2 0.17968578E+03</rscale>
<asrwt>0</asrwt>
<pdfrwt beam="1">  1       21 0.35403968E-02 0.17979123E+03</pdfrwt>
<pdfrwt beam="2">  1       21 0.22530379E+00 0.17979123E+03</pdfrwt>
<totfact> 0.45293902E+04</totfact>
</mgrwt>
</event>
<event>
12    1  0.1473662E-001  0.2550638E+03  0.7546771E-02  0.1110845E+00
         21   -1    0    0  504  503  0.00000000000E+00  0.00000000000E+00  0.24591064444E+03  0.24591064444E+03  0.00000000000E+00 0.  1.
         21   -1    0    0  502  504 -0.00000000000E+00 -0.00000000000E+00 -0.26188938629E+03  0.26188938629E+03  0.00000000000E+00 0.  1.
          6    2    1    2  502    0  0.53956243001E+01 -0.18568591468E+03  0.13991561194E+02  0.25544724305E+03  0.17478317575E+03 0.  0.
         24    2    3    3    0    0 -0.52771550107E+02 -0.17065631597E+03  0.23289661928E+02  0.19447303791E+03  0.73273047143E+02 0.  0.
         -6    2    1    2    0  503 -0.53956243001E+01  0.18568591468E+03 -0.29970303048E+02  0.25235278768E+03  0.16815272438E+03 0.  0.
        -24    2    5    5    0    0 -0.34169993009E+02  0.80104866323E+02 -0.66975416173E+02  0.13673795099E+03  0.81407510951E+02 0.  0.
          2    1    4    4  501    0 -0.55935512139E+02 -0.86858686022E+02  0.36524738473E+02  0.10957768649E+03  0.00000000000E+00 0. -1.
         -1    1    4    4    0  501  0.31639620322E+01 -0.83797629950E+02 -0.13235076545E+02  0.84895351416E+02  0.00000000000E+00 0.  1.
          5    1    3    3  502    0  0.58167174407E+02 -0.15029598704E+02 -0.92981007344E+01  0.60974205144E+02  0.47000000000E+01 0. -1.
         11    1    6    6    0    0 -0.43621273898E+01  0.23433163385E+02 -0.68663477450E+02  0.72682972126E+02  0.00000000000E+00 0. -1.
        -12    1    6    6    0    0 -0.29807865619E+02  0.56671702938E+02  0.16880612770E+01  0.64054978866E+02  0.00000000000E+00 0.  1.
         -5    1    5    5    0  503  0.28774368709E+02  0.10558104835E+03  0.37005113125E+02  0.11561483669E+03  0.47000000000E+01 0.  1.
<mgrwt>
<rscale>  2 0.25393202E+03</rscale>
<asrwt>0</asrwt>
<pdfrwt beam="1">  1       21 0.37832407E-01 0.25506378E+03</pdfrwt>
<pdfrwt beam="2">  1       21 0.40290675E-01 0.25506378E+03</pdfrwt>
<totfact> 0.38850110E+04</totfact>
</mgrwt>
</event>
<event>
12    1  0.1473662E-001  0.1833903E+03  0.7546771E-02  0.1164831E+00
         21   -1    0    0  504  503  0.00000000000E+00  0.00000000000E+00  0.59865970297E+02  0.59865970297E+02  0.00000000000E+00 0.  1.
         21   -1    0    0  502  504 -0.00000000000E+00 -0.00000000000E+00 -0.56829416993E+03  0.56829416993E+03  0.00000000000E+00 0.  1.
          6    2    1    2  502    0 -0.51164614710E+02 -0.28088405525E+02 -0.21179580041E+03  0.27941553959E+03  0.17265227010E+03 0.  0.
         24    2    3    3    0    0  0.16013457067E+02  0.36594185947E+02 -0.29308161766E+02  0.74426371040E+02  0.55540535717E+02 0.  0.
         -6    2    1    2    0  503  0.51164614710E+02  0.28088405525E+02 -0.29663239923E+03  0.34874460064E+03  0.17385407639E+03 0.  0.
        -24    2    5    5    0    0  0.76852677843E+02  0.13505984801E+02 -0.10531269121E+03  0.15510099951E+03  0.82926542206E+02 0.  0.
          2    1    4    4  501    0  0.34349653935E+02  0.33349493059E+02 -0.12839453216E+02  0.49567519321E+02  0.00000000000E+00 0. -1.
         -1    1    4    4    0  501 -0.18336196867E+02  0.32446928875E+01 -0.16468708550E+02  0.24858851719E+02  0.00000000000E+00 0.  1.
          5    1    3    3  502    0 -0.67178071777E+02 -0.64682591471E+02 -0.18248763864E+03  0.20498916855E+03  0.47000000000E+01 0. -1.
         11    1    6    6    0    0  0.15870304059E+02 -0.55407322360E+01  0.12589826722E+02  0.21001666637E+02  0.00000000000E+00 0. -1.
        -12    1    6    6    0    0  0.60982373784E+02  0.19046717037E+02 -0.11790251794E+03  0.13409933288E+03  0.00000000000E+00 0.  1.
         -5    1    5    5    0  503 -0.25688063133E+02  0.14582420724E+02 -0.19131970801E+03  0.19364360112E+03  0.47000000000E+01 0.  1.
<mgrwt>
<rscale>  2 0.18310495E+03</rscale>
<asrwt>0</asrwt>
<pdfrwt beam="1">  1       21 0.92101494E-02 0.18339034E+03</pdfrwt>
<pdfrwt beam="2">  1       21 0.87429871E-01 0.18339034E+03</pdfrwt>
<totfact> 0.10574424E+05</totfact>
</mgrwt>
</event>
<event>
12    1  0.1473662E-001  0.2300321E+03  0.7546771E-02  0.1127475E+00
         21   -1    0    0  504  503  0.00000000000E+00  0.00000000000E+00  0.15204953796E+04  0.15204953796E+04  0.00000000000E+00 0. -1.
         21   -1    0    0  502  504 -0.00000000000E+00 -0.00000000000E+00 -0.34558767320E+02  0.34558767320E+02  0.00000000000E+00 0. -1.
          6    2    1    2  502    0 -0.14152591653E+03  0.29265563780E+02  0.64322547372E+03  0.68151146883E+03  0.17272178158E+03 0.  0.
         24    2    3    3    0    0 -0.12783938137E+03 -0.19548715473E+02  0.32617482766E+03  0.36039878258E+03  0.82293405444E+02 0.  0.
         -6    2    1    2    0  503  0.14152591653E+03 -0.29265563780E+02  0.84271113857E+03  0.87354267810E+03  0.17896560877E+03 0.  0.
        -24    2    5    5    0    0  0.82920293253E+02  0.33495921948E+02  0.31522673366E+03  0.33909388673E+03  0.87286989786E+02 0.  0.
          4    1    4    4  501    0 -0.10076776991E+02 -0.32288671468E+02  0.90900564621E+02  0.96989754037E+02  0.00000000000E+00 0. -1.
         -3    1    4    4    0  501 -0.11776260438E+03  0.12739955995E+02  0.23527426304E+03  0.26340902855E+03  0.00000000000E+00 0.  1.
          5    1    3    3  502    0 -0.13686535154E+02  0.48814279253E+02  0.31705064605E+03  0.32111268624E+03  0.47000000000E+01 0. -1.
         11    1    6    6    0    0  0.99804657611E+02  0.19673618326E+02  0.27685074455E+03  0.29494805593E+03  0.00000000000E+00 0. -1.
        -12    1    6    6    0    0 -0.16884364358E+02  0.13822303623E+02  0.38375989111E+02  0.44145830805E+02  0.00000000000E+00 0.  1.
         -5    1    5    5    0  503  0.58605623274E+02 -0.62761485729E+02  0.52748440491E+03  0.53444879137E+03  0.47000000000E+01 0.  1.
<mgrwt>
<rscale>  2 0.22881657E+03</rscale>
<asrwt>0</asrwt>
<pdfrwt beam="1">  1       21 0.23392231E+00 0.23003206E+03</pdfrwt>
<pdfrwt beam="2">  1       21 0.53167346E-02 0.23003206E+03</pdfrwt>
<totfact> 0.19489354E+04</totfact>
</mgrwt>
</event>
<event>
12    1  0.1473662E-001  0.1738045E+03  0.7546771E-02  0.1174064E+00
         21   -1    0    0  504  503  0.00000000000E+00  0.00000000000E+00  0.51325378410E+02  0.51325378410E+02  0.00000000000E+00 0.  1.
         21   -1    0    0  502  504 -0.00000000000E+00 -0.00000000000E+00 -0.10215617272E+04  0.10215617272E+04  0.00000000000E+00 0.  1.
          6    2    1    2  502    0  0.98951506395E-01  0.45892414020E+01 -0.83544948073E+03  0.85333688124E+03  0.17374385486E+03 0.  0.
         24    2    3    3    0    0  0.45891108112E+02  0.64174658686E+01 -0.29188143598E+03  0.30782008656E+03  0.86088648167E+02 0.  0.
         -6    2    1    2    0  503 -0.98951506395E-01 -0.45892414020E+01 -0.13478686804E+03  0.21955022435E+03  0.17324471215E+03 0.  0.
        -24    2    5    5    0    0 -0.14300883228E+02  0.50100567836E+02 -0.31146972826E+02  0.10141475983E+03  0.81241845348E+02 0.  0.
          2    1    4    4  501    0  0.70987071041E+02  0.10455949694E+02 -0.19974939221E+03  0.21224587352E+03  0.00000000000E+00 0. -1.
         -1    1    4    4    0  501 -0.25095962930E+02 -0.40384838250E+01 -0.92132043772E+02  0.95574213031E+02  0.00000000000E+00 0.  1.
          5    1    3    3  502    0 -0.45792156605E+02 -0.18282244666E+01 -0.54356804475E+03  0.54551679469E+03  0.47000000000E+01 0. -1.
         11    1    6    6    0    0 -0.24100784551E+02 -0.15862288052E+02 -0.16140974900E+02  0.33060415438E+02  0.00000000000E+00 0. -1.
        -12    1    6    6    0    0  0.97999013236E+01  0.65962855888E+02 -0.15005997926E+02  0.68354344387E+02  0.00000000000E+00 0.  1.
         -5    1    5    5    0  503  0.14201931721E+02 -0.54689809238E+02 -0.10363989522E+03  0.11813546453E+03  0.47000000000E+01 0.  1.
<mgrwt>
<rscale>  2 0.17367961E+03</rscale>
<asrwt>0</asrwt>
<pdfrwt beam="1">  1       21 0.78962119E-02 0.17380448E+03</pdfrwt>
<pdfrwt beam="2">  1       21 0.15716335E+00 0.17380448E+03</pdfrwt>
<totfact> 0.32811373E+04</totfact>
</mgrwt>
</event>
<event>
12    1  0.1473662E-001  0.2082214E+03  0.7546771E-02  0.1143096E+00
         21   -1    0    0  504  503  0.00000000000E+00  0.00000000000E+00  0.13598072788E+03  0.13598072788E+03  0.00000000000E+00 0. -1.
         21   -1    0    0  502  504 -0.00000000000E+00 -0.00000000000E+00 -0.34711248903E+03  0.34711248903E+03  0.00000000000E+00 0. -1.
          6    2    1    2  502    0 -0.83129796709E+02 -0.82868013940E+02 -0.35448060692E+02  0.21065806295E+03  0.17129677068E+03 0.  0.
         24    2    3    3    0    0 -0.12087337964E+03 -0.51527599789E+02 -0.91348853448E+01  0.15478971047E+03  0.81307692700E+02 0.  0.
         -6    2    1    2    0  503  0.83129796709E+02  0.82868013940E+02 -0.17568370046E+03  0.27243515396E+03  0.17198395178E+03 0.  0.
        -24    2    5    5    0    0  0.43839621032E+01  0.79115735125E+02 -0.15349527263E+03  0.19040221915E+03  0.80085502239E+02 0.  0.
          2    1    4    4  501    0 -0.30069875655E+02 -0.34473419477E+00 -0.36236151564E+02  0.47089010859E+02  0.00000000000E+00 0. -1.
         -1    1    4    4    0  501 -0.90803503988E+02 -0.51182865594E+02  0.27101266219E+02  0.10770069962E+03  0.00000000000E+00 0.  1.
          5    1    3    3  502    0  0.37743582934E+02 -0.31340414151E+02 -0.26313175347E+02  0.55868352479E+02  0.47000000000E+01 0. -1.
         13    1    6    6    0    0 -0.52876095227E+01  0.58326349342E+02 -0.31951232404E+02  0.66714339494E+02  0.00000000000E+00 0. -1.
        -14    1    6    6    0    0  0.96715716259E+01  0.20789385783E+02 -0.12154404022E+03  0.12368787965E+03  0.00000000000E+00 0.  1.
         -5    1    5    5    0  503  0.78745834606E+02  0.37522788148E+01 -0.22188427829E+02  0.82032934810E+02  0.47000000000E+01 0.  1.
<mgrwt>
<rscale>  2 0.20807945E+03</rscale>
<asrwt>0</asrwt>
<pdfrwt beam="1">  1       21 0.20920112E-01 0.20822140E+03</pdfrwt>
<pdfrwt beam="2">  1       21 0.53401921E-01 0.20822140E+03</pdfrwt>
<totfact> 0.69949052E+04</totfact>
</mgrwt>
</event>
<event>
12    1  0.1473662E-001  0.1931832E+03  0.7546771E-02  0.1156107E+00
         21   -1    0    0  504  503  0.00000000000E+00  0.00000000000E+00  0.17153095721E+04  0.17153095721E+04  0.00000000000E+00 0. -1.
         21   -1    0    0  502  504 -0.00000000000E+00 -0.00000000000E+00 -0.62933935471E+02  0.62933935471E+02  0.00000000000E+00 0. -1.
          6    2    1    2  502    0  0.30720618802E+02 -0.74026648347E+02  0.10324409140E+03  0.21711304970E+03  0.17336387414E+03 0.  0.
         24    2    3    3    0    0  0.95593318128E+01 -0.13304979943E+02  0.12471805591E+03  0.14915613517E+03  0.80153327278E+02 0.  0.
         -6    2    1    2    0  503 -0.30720618802E+02  0.74026648347E+02  0.15491315452E+04  0.15611304578E+04  0.17577275383E+03 0.  0.
        -24    2    5    5    0    0 -0.51548034213E+01 -0.22636148132E+02  0.51316281249E+03  0.52033719677E+03  0.82920196703E+02 0.  0.
          4    1    4    4  501    0  0.25761922527E+02  0.68795545202E+01  0.11989889681E+03  0.12282813350E+03  0.00000000000E+00 0. -1.
         -3    1    4    4    0  501 -0.16202590714E+02 -0.20184534463E+02  0.48191590915E+01  0.26328001666E+02  0.00000000000E+00 0.  1.
          5    1    3    3  502    0  0.21161286989E+02 -0.60721668404E+02 -0.21473964505E+02  0.67956914529E+02  0.47000000000E+01 0. -1.
         13    1    6    6    0    0  0.37236907727E+02  0.10907971838E+01  0.20231066349E+03  0.20571189003E+03  0.00000000000E+00 0. -1.
        -14    1    6    6    0    0 -0.42391711149E+02 -0.23726945316E+02  0.31085214900E+03  0.31462530675E+03  0.00000000000E+00 0.  1.
         -5    1    5    5    0  503 -0.25565815381E+02  0.96662796479E+02  0.10359687327E+04  0.10407932611E+04  0.47000000000E+01 0.  1.
<mgrwt>
<rscale>  2 0.19263360E+03</rscale>
<asrwt>0</asrwt>
<pdfrwt beam="1">  1       21 0.26389375E+00 0.19318323E+03</pdfrwt>
<pdfrwt beam="2">  1       21 0.96821452E-02 0.19318323E+03</pdfrwt>
<totfact> 0.47353960E+03</totfact>
</mgrwt>
</event>
<event>
12    1  0.1473662E-001  0.1902403E+03  0.7546771E-02  0.1158374E+00
         21   -1    0    0  504  503  0.00000000000E+00  0.00000000000E+00  0.78216556699E+03  0.78216556699E+03  0.00000000000E+00 0.  1.
         21   -1    0    0  502  504 -0.00000000000E+00 -0.00000000000E+00 -0.46778918141E+02  0.46778918141E+02  0.00000000000E+00 0.  1.
          6    2    1    2  502    0 -0.50730424148E+02 -0.59266412677E+02  0.31840451757E+03  0.37061550805E+03  0.17288242939E+03 0.  0.
         24    2    3    3    0    0 -0.78128045754E+02 -0.62723778102E+02  0.31818014496E+03  0.34260259338E+03  0.78100374307E+02 0.  0.
         -6    2    1    2    0  503  0.50730424148E+02  0.59266412677E+02  0.41698213129E+03  0.45832897709E+03  0.17350870243E+03 0.  0.
        -24    2    5    5    0    0  0.46912286882E+02 -0.31928652474E+02  0.22108666988E+03  0.24216181982E+03  0.80887760951E+02 0.  0.
          2    1    4    4  501    0 -0.69761379685E+02 -0.77025056052E+01  0.20041452713E+03  0.21234867877E+03  0.00000000000E+00 0. -1.
         -1    1    4    4    0  501 -0.83666660691E+01 -0.55021272496E+02  0.11776561783E+03  0.13025391461E+03  0.00000000000E+00 0.  1.
          5    1    3    3  502    0  0.27397621606E+02  0.34573654246E+01  0.22437260409E+00  0.28012914672E+02  0.47000000000E+01 0. -1.
         13    1    6    6    0    0 -0.15401559098E+02 -0.30160020276E+02  0.10597080933E+03  0.11125038101E+03  0.00000000000E+00 0. -1.
        -14    1    6    6    0    0  0.62313845980E+02 -0.17686321982E+01  0.11511586055E+03  0.13091143881E+03  0.00000000000E+00 0.  1.
         -5    1    5    5    0  503  0.38181372661E+01  0.91195065151E+02  0.19589546141E+03  0.21616715727E+03  0.47000000000E+01 0.  1.
<mgrwt>
<rscale>  2 0.19009734E+03</rscale>
<asrwt>0</asrwt>
<pdfrwt beam="1">  1       21 0.12033315E+00 0.19024025E+03</pdfrwt>
<pdfrwt beam="2">  1       21 0.71967572E-02 0.19024025E+03</pdfrwt>
<totfact> 0.75710572E+04</totfact>
</mgrwt>
</event>
<event>
12    1  0.1473662E-001  0.1805318E+03  0.7546771E-02  0.1167381E+00
         21   -1    0    0  504  503  0.00000000000E+00  0.00000000000E+00  0.30384077615E+03  0.30384077615E+03  0.00000000000E+00 0. -1.
         21   -1    0    0  502  504 -0.00000000000E+00 -0.00000000000E+00 -0.16165238049E+03  0.16165238049E+03  0.00000000000E+00 0.  1.
          6    2    1    2  502    0  0.52081715782E+02 -0.98169809921E+01 -0.64137607304E+02  0.19158648253E+03  0.17257714038E+03 0.  0.
         24    2    3    3    0    0  0.57447580417E+02 -0.38318083034E+02  0.11593667538E+02  0.11035581523E+03  0.85296499606E+02 0.  0.
         -6    2    1    2    0  503 -0.52081715782E+02  0.98169809921E+01  0.20632600296E+03  0.27390667410E+03  0.17217888483E+03 0.  0.
        -24    2    5    5    0    0 -0.69424107484E+02  0.42691037193E+02  0.20731137970E+03  0.23642970666E+03  0.79238669100E+02 0.  0.
          4    1    4    4  501    0  0.27673846667E+02 -0.53445557049E+02  0.34954903521E+02  0.69599674121E+02  0.00000000000E+00 0. -1.
         -3    1    4    4    0  501  0.29773733750E+02  0.15127474015E+02 -0.23361235983E+02  0.40756141110E+02  0.00000000000E+00 0.  1.
          5    1    3    3  502    0 -0.53658646345E+01  0.28501102042E+02 -0.75731274842E+02  0.81230667300E+02  0.47000000000E+01 0. -1.
         11    1    6    6    0    0 -0.86145115628E+02  0.37802218567E+02  0.18921293264E+03  0.21130906879E+03  0.00000000000E+00 0. -1.
        -12    1    6    6    0    0  0.16721008144E+02  0.48888186265E+01  0.18098447064E+02  0.25120637871E+02  0.00000000000E+00 0.  1.
         -5    1    5    5    0  503  0.17342391702E+02 -0.32874056201E+02 -0.98537673989E+00  0.37476967438E+02  0.47000000000E+01 0.  1.
<mgrwt>
<rscale>  2 0.18043660E+03</rscale>
<asrwt>0</asrwt>
<pdfrwt beam="1">  1       21 0.46744735E-01 0.18053185E+03</pdfrwt>
<pdfrwt beam="2">  1       21 0.24869597E-01 0.18053185E+03</pdfrwt>
<totfact> 0.67383815E+04</totfact>
</mgrwt>
</event>
<event>
12    1  0.1473662E-001  0.1942792E+03  0.7546771E-02  0.1154969E+00
         21   -1    0    0  504  503  0.00000000000E+00  0.00000000000E+00  0.29258470594E+02  0.29258470594E+02  0.00000000000E+00 0.  1.
         21   -1    0    0  502  504 -0.00000000000E+00 -0.00000000000E+00 -0.12907309180E+04  0.12907309180E+04  0.00000000000E+00 0.  1.
          6    2    1    2  502    0 -0.64954383968E+02 -0.57101353220E+02 -0.57471276930E+03  0.60666231854E+03  0.17396771253E+03 0.  0.
         24    2    3    3    0    0 -0.66186996588E+02 -0.42185026557E+02 -0.57922663316E+03  0.59033806964E+03  0.82675564245E+02 0.  0.
         -6    2    1    2    0  503  0.64954383968E+02  0.57101353220E+02 -0.68675967809E+03  0.71332707003E+03  0.17238624325E+03 0.  0.
        -24    2    5    5    0    0  0.69765711727E+02  0.92042304377E+02 -0.63574838992E+03  0.65113172886E+03  0.80358401708E+02 0.  0.
          2    1    4    4  501    0 -0.23719644429E+02  0.20041810477E+02 -0.86921168192E+02  0.92301599005E+02  0.00000000000E+00 0. -1.
         -1    1    4    4    0  501 -0.42467352159E+02 -0.62226837034E+02 -0.49230546497E+03  0.49803647064E+03  0.00000000000E+00 0.  1.
          5    1    3    3  502    0  0.12326126200E+01 -0.14916326663E+02  0.45138638637E+01  0.16324248895E+02  0.47000000000E+01 0. -1.
         11    1    6    6    0    0  0.10042984706E+02 -0.64318090679E+01 -0.12290266733E+02  0.17125430390E+02  0.00000000000E+00 0. -1.
        -12    1    6    6    0    0  0.59722727021E+02  0.98474113445E+02 -0.62345812318E+03  0.63400629847E+03  0.00000000000E+00 0.  1.
         -5    1    5    5    0  503 -0.48113277593E+01 -0.34940951157E+02 -0.51011288169E+02  0.62195341170E+02  0.47000000000E+01 0.  1.
<mgrwt>
<rscale>  2 0.19392450E+03</rscale>
<asrwt>0</asrwt>
<pdfrwt beam="1">  1       21 0.45013028E-02 0.19427918E+03</pdfrwt>
<pdfrwt beam="2">  1       21 0.19857400E+00 0.19427918E+03</pdfrwt>
<totfact> 0.44013009E+04</totfact>
</mgrwt>
</event>
<event>
12    1  0.1473662E-001  0.1821778E+03  0.7546771E-02  0.1165769E+00
         21   -1    0    0  504  503  0.00000000000E+00  0.00000000000E+00  0.70643155794E+03  0.70643155794E+03  0.00000000000E+00 0. -1.
         21   -1    0    0  502  504 -0.00000000000E+00 -0.00000000000E+00 -0.46919405973E+02  0.46919405973E+02  0.00000000000E+00 0. -1.
          6    2    1    2  502    0 -0.53476982180E+02  0.21079357280E+02  0.32830770807E+03  0.37534946208E+03  0.17261848272E+03 0.  0.
         24    2    3    3    0    0 -0.78355952975E+01  0.74383694885E+02  0.19294204651E+03  0.22280294152E+03  0.82584422382E+02 0.  0.
         -6    2    1    2    0  503  0.53476982180E+02 -0.21079357280E+02  0.33120444390E+03  0.37800150184E+03  0.17287170043E+03 0.  0.
        -24    2    5    5    0    0  0.94721703439E+02 -0.40565230521E+02  0.28306647424E+03  0.31151706449E+03  0.79363175310E+02 0.  0.
          2    1    4    4  501    0 -0.23909052252E+02  0.53986501383E+02  0.18708555258E+03  0.19618152078E+03  0.00000000000E+00 0. -1.
         -1    1    4    4    0  501  0.16073456955E+02  0.20397193502E+02  0.58564939338E+01  0.26621420744E+02  0.00000000000E+00 0.  1.
          5    1    3    3  502    0 -0.45641386883E+02 -0.53304337605E+02  0.13536566156E+03  0.15254652056E+03  0.47000000000E+01 0. -1.
         13    1    6    6    0    0  0.61675928383E+02 -0.45995570789E+02  0.10411101139E+03  0.12945507085E+03  0.00000000000E+00 0. -1.
        -14    1    6    6    0    0  0.33045775056E+02  0.54303402674E+01  0.17895546285E+03  0.18206199364E+03  0.00000000000E+00 0.  1.
         -5    1    5    5    0  503 -0.41244721259E+02  0.19485873241E+02  0.48137969655E+02  0.66484437353E+02  0.47000000000E+01 0.  1.
<mgrwt>
<rscale>  2 0.18211771E+03</rscale>
<asrwt>0</asrwt>
<pdfrwt beam="1">  1       21 0.10868177E+00 0.18217780E+03</pdfrwt>
<pdfrwt beam="2">  1       21 0.72183707E-02 0.18217780E+03</pdfrwt>
<totfact> 0.96882335E+04</totfact>
</mgrwt>
</event>
<event>
12    1  0.1473662E-001  0.1818964E+03  0.7546771E-02  0.1166098E+00
         21   -1    0    0  504  503  0.00000000000E+00  0.00000000000E+00  0.65655608220E+03  0.65655608220E+03  0.00000000000E+00 0. -1.
         21   -1    0    0  502  504 -0.00000000000E+00 -0.00000000000E+00 -0.93187123894E+02  0.93187123894E+02  0.00000000000E+00 0. -1.
          6    2    1    2  502    0  0.38317306956E+02 -0.41054161427E+02  0.27450592649E+02  0.18395609983E+03  0.17301055299E+03 0.  0.
         24    2    3    3    0    0  0.77238202805E+02 -0.39633451583E+02  0.57311875640E+02  0.13465457073E+03  0.85502350091E+02 0.  0.
         -6    2    1    2    0  503 -0.38317306956E+02  0.41054161427E+02  0.53591836566E+03  0.56578710627E+03  0.17249027446E+03 0.  0.
        -24    2    5    5    0    0 -0.12768006250E+02  0.11116671365E+02  0.51392684731E+03  0.52045789982E+03  0.80430210337E+02 0.  0.
          4    1    4    4  501    0  0.65614921658E+01 -0.37378473204E+02  0.51126356284E+02  0.63671875624E+02  0.00000000000E+00 0. -1.
         -3    1    4    4    0  501  0.70676710639E+02 -0.22549783783E+01  0.61855193559E+01  0.70982695102E+02  0.00000000000E+00 0.  1.
          5    1    3    3  502    0 -0.38920895849E+02 -0.14207098447E+01 -0.29861282992E+02  0.49301529105E+02  0.47000000000E+01 0. -1.
         13    1    6    6    0    0 -0.37943077952E+02 -0.16737183120E+02  0.19719169358E+03  0.20150527159E+03  0.00000000000E+00 0. -1.
        -14    1    6    6    0    0  0.25175071702E+02  0.27853854485E+02  0.31673515373E+03  0.31895262823E+03  0.00000000000E+00 0.  1.
         -5    1    5    5    0  503 -0.25549300706E+02  0.29937490063E+02  0.21991518355E+02  0.45329206450E+02  0.47000000000E+01 0.  1.
<mgrwt>
<rscale>  2 0.18177261E+03</rscale>
<asrwt>0</asrwt>
<pdfrwt beam="1">  1       21 0.10100863E+00 0.18189643E+03</pdfrwt>
<pdfrwt beam="2">  1       21 0.14336481E-01 0.18189643E+03</pdfrwt>
<totfact> 0.34341688E+04</totfact>
</mgrwt>
</event>
<event>
12    1  0.1473662E-001  0.2060003E+03  0.7546771E-02  0.1144841E+00
         21   -1    0    0  504  503  0.00000000000E+00  0.00000000000E+00  0.52540534511E+03  0.52540534511E+03  0.00000000000E+00 0. -1.
         21   -1    0    0  502  504 -0.00000000000E+00 -0.00000000000E+00 -0.82152763464E+02  0.82152763464E+02  0.00000000000E+00 0. -1.
          6    2    1    2  502    0  0.98865271496E+02  0.50271605602E+02  0.18054851305E+03  0.27392312988E+03  0.17359302774E+03 0.  0.
         24    2    3    3    0    0 -0.21319534687E+01 -0.56371633295E+01  0.37569169332E+02  0.90098722840E+02  0.81670156955E+02 0.  0.
         -6    2    1    2    0  503 -0.98865271496E+02 -0.50271605602E+02  0.26270406860E+03  0.33363497869E+03  0.17319727224E+03 0.  0.
        -24    2    5    5    0    0 -0.57701429532E+02  0.39439667084E+02  0.13296480178E+03  0.17054929052E+03  0.80761870179E+02 0.  0.
          4    1    4    4  501    0 -0.32566164494E+02 -0.65830181275E+01  0.47592436852E+02  0.58042495149E+02  0.00000000000E+00 0. -1.
         -3    1    4    4    0  501  0.30434211026E+02  0.94585479805E+00 -0.10023267520E+02  0.32056227692E+02  0.00000000000E+00 0.  1.
          5    1    3    3  502    0  0.10099722496E+03  0.55908768932E+02  0.14297934371E+03  0.18382440704E+03  0.47000000000E+01 0. -1.
         11    1    6    6    0    0 -0.42687461178E+02  0.26085995334E+02  0.16969796726E+02  0.52826816063E+02  0.00000000000E+00 0. -1.
        -12    1    6    6    0    0 -0.15013968354E+02  0.13353671750E+02  0.11599500505E+03  0.11772247446E+03  0.00000000000E+00 0.  1.
         -5    1    5    5    0  503 -0.41163841964E+02 -0.89711272687E+02  0.12973926682E+03  0.16308568817E+03  0.47000000000E+01 0.  1.
<mgrwt>
<rscale>  2 0.20591688E+03</rscale>
<asrwt>0</asrwt>
<pdfrwt beam="1">  1       21 0.80831589E-01 0.20600028E+03</pdfrwt>
<pdfrwt beam="2">  1       21 0.12638887E-01 0.20600028E+03</pdfrwt>
<totfact> 0.71405437E+04</totfact>
</mgrwt>
</event>
<event>
12    1  0.1473662E-001  0.2187481E+03  0.7546771E-02  0.1135116E+00
         21   -1    0    0  504  503  0.00000000000E+00  0.00000000000E+00  0.32565307382E+03  0.32565307382E+03  0.00000000000E+00 0. -1.
         21   -1    0    0  502  504 -0.00000000000E+00 -0.00000000000E+00 -0.44444624537E+03  0.44444624537E+03  0.00000000000E+00 0. -1.
          6    2    1    2  502    0  0.13130041108E+03  0.18941774299E+02 -0.37505653697E+03  0.43418675035E+03  0.17393142180E+03 0.  0.
         24    2    3    3    0    0  0.10992066795E+03  0.75879904856E+02 -0.23867555928E+03  0.28478492571E+03  0.79348081980E+02 0.  0.
         -6    2    1    2    0  503 -0.13130041108E+03 -0.18941774299E+02  0.25626336542E+03  0.33591256884E+03  0.17195276295E+03 0.  0.
        -24    2    5    5    0    0 -0.13502595563E+02  0.17500678033E+02  0.15570489348E+03  0.17673193575E+03  0.80632310166E+02 0.  0.
          4    1    4    4  501    0  0.84338781919E+02  0.50731339381E+02 -0.22640319528E+03  0.24687062556E+03  0.00000000000E+00 0. -1.
         -3    1    4    4    0  501  0.25581886026E+02  0.25148565475E+02 -0.12272364000E+02  0.37914300155E+02  0.00000000000E+00 0.  1.
          5    1    3    3  502    0  0.21379743131E+02 -0.56938130557E+02 -0.13638097770E+03  0.14940182464E+03  0.47000000000E+01 0. -1.
         11    1    6    6    0    0 -0.46747367031E+02  0.11264776528E+02  0.10831696005E+03  0.11851065500E+03  0.00000000000E+00 0. -1.
        -12    1    6    6    0    0  0.33244771467E+02  0.62359015051E+01  0.47387933429E+02  0.58221280750E+02  0.00000000000E+00 0.  1.
         -5    1    5    5    0  503 -0.11779781551E+03 -0.36442452332E+02  0.10055847195E+03  0.15918063309E+03  0.47000000000E+01 0.  1.
<mgrwt>
<rscale>  2 0.21835454E+03</rscale>
<asrwt>0</asrwt>
<pdfrwt beam="1">  1       21 0.50100473E-01 0.21874809E+03</pdfrwt>
<pdfrwt beam="2">  1       21 0.68376345E-01 0.21874809E+03</pdfrwt>
<totfact> 0.72678958E+03</totfact>
</mgrwt>
</event>
<event>
12    1  0.1473662E-001  0.2060114E+03  0.7546771E-02  0.1144950E+00
         21   -1    0    0  504  503  0.00000000000E+00  0.00000000000E+00  0.27997094475E+03  0.27997094475E+03  0.00000000000E+00 0.  1.
         21   -1    0    0  502  504 -0.00000000000E+00 -0.00000000000E+00 -0.15188227146E+03  0.15188227146E+03  0.00000000000E+00 0.  1.
          6    2    1    2  502    0 -0.64814436403E+02 -0.89375159673E+02  0.81403538420E+02  0.22151128349E+03  0.17393068250E+03 0.  0.
         24    2    3    3    0    0 -0.94632032216E+02 -0.10174422021E+03  0.32497718849E+02  0.16272393905E+03  0.78204032777E+02 0.  0.
         -6    2    1    2    0  503  0.64814436403E+02  0.89375159673E+02  0.46685134873E+02  0.21034193272E+03  0.17284500719E+03 0.  0.
        -24    2    5    5    0    0  0.16911535941E+02  0.42816666512E+02  0.91240285422E+02  0.12990790635E+03  0.80199797187E+02 0.  0.
          2    1    4    4  501    0 -0.61023054993E+02 -0.92829237616E+02 -0.54891583800E+01  0.11122594777E+03  0.00000000000E+00 0. -1.
         -1    1    4    4    0  501 -0.33608977223E+02 -0.89149825937E+01  0.37986877229E+02  0.51497991284E+02  0.00000000000E+00 0.  1.
          5    1    3    3  502    0  0.29817595813E+02  0.12369060537E+02  0.48905819571E+02  0.58787344442E+02  0.47000000000E+01 0. -1.
         13    1    6    6    0    0  0.47071960659E+01  0.82894248213E+01  0.92766889411E+02  0.93255391424E+02  0.00000000000E+00 0. -1.
        -14    1    6    6    0    0  0.12204339875E+02  0.34527241691E+02 -0.15266039887E+01  0.36652514924E+02  0.00000000000E+00 0.  1.
         -5    1    5    5    0  503  0.47902900463E+02  0.46558493161E+02 -0.44555150549E+02  0.80434026373E+02  0.47000000000E+01 0.  1.
<mgrwt>
<rscale>  2 0.20578211E+03</rscale>
<asrwt>0</asrwt>
<pdfrwt beam="1">  1       21 0.43072453E-01 0.20601144E+03</pdfrwt>
<pdfrwt beam="2">  1       21 0.23366503E-01 0.20601144E+03</pdfrwt>
<totfact> 0.88779789E+04</totfact>
</mgrwt>
</event>
<event>
12    1  0.1473662E-001  0.1975312E+03  0.7546771E-02  0.1152162E+00
         21   -1    0    0  504  503  0.00000000000E+00  0.00000000000E+00  0.13509978382E+04  0.13509978382E+04  0.00000000000E+00 0. -1.
         21   -1    0    0  502  504 -0.00000000000E+00 -0.00000000000E+00 -0.35379536188E+02  0.35379536188E+02  0.00000000000E+00 0. -1.
          6    2    1    2  502    0 -0.64249779187E+02 -0.70456386447E+02  0.35372349780E+03  0.40440987477E+03  0.17127433373E+03 0.  0.
         24    2    3    3    0    0 -0.15585484322E+02 -0.20846106159E+02  0.66285170526E+02  0.10865275230E+03  0.82062349994E+02 0.  0.
         -6    2    1    2    0  503  0.64249779187E+02  0.70456386447E+02  0.96189480420E+03  0.98196749961E+03  0.17299254153E+03 0.  0.
        -24    2    5    5    0    0  0.64691308588E+02  0.10343276343E+03  0.56060751658E+03  0.57929987787E+03  0.80151474749E+02 0.  0.
          4    1    4    4  501    0 -0.48515180741E+02 -0.31311204298E+01  0.35097850795E+02  0.59961536070E+02  0.00000000000E+00 0. -1.
         -3    1    4    4    0  501  0.32929696419E+02 -0.17714985729E+02  0.31187319731E+02  0.48691216227E+02  0.00000000000E+00 0.  1.
          5    1    3    3  502    0 -0.48664294865E+02 -0.49610280288E+02  0.28743832727E+03  0.29575712247E+03  0.47000000000E+01 0. -1.
         13    1    6    6    0    0  0.68029165549E+02  0.33865849339E+02  0.31195638792E+03  0.32107888607E+03  0.00000000000E+00 0. -1.
        -14    1    6    6    0    0 -0.33378569607E+01  0.69566914088E+02  0.24865112866E+03  0.25822099180E+03  0.00000000000E+00 0.  1.
         -5    1    5    5    0  503 -0.44152940116E+00 -0.32976376981E+02  0.40128728763E+03  0.40266762174E+03  0.47000000000E+01 0.  1.
<mgrwt>
<rscale>  2 0.19715432E+03</rscale>
<asrwt>0</asrwt>
<pdfrwt beam="1">  1       21 0.20784578E+00 0.19753115E+03</pdfrwt>
<pdfrwt beam="2">  1       21 0.54430066E-02 0.19753115E+03</pdfrwt>
<totfact> 0.27775007E+04</totfact>
</mgrwt>
</event>
<event>
12    1  0.1473662E-001  0.1775655E+03  0.7546771E-02  0.1170338E+00
         21   -1    0    0  504  503  0.00000000000E+00  0.00000000000E+00  0.31902970033E+03  0.31902970033E+03  0.00000000000E+00 0.  1.
         21   -1    0    0  502  504 -0.00000000000E+00 -0.00000000000E+00 -0.16674764295E+03  0.16674764295E+03  0.00000000000E+00 0.  1.
          6    2    1    2  502    0 -0.27694188464E+02  0.33855584707E+02 -0.79358232706E+02  0.19390968719E+03  0.17143532015E+03 0.  0.
         24    2    3    3    0    0  0.41922587012E+01  0.39324004861E+02 -0.11478342165E+03  0.14570509048E+03  0.80565421332E+02 0.  0.
         -6    2    1    2    0  503  0.27694188464E+02 -0.33855584707E+02  0.23164029009E+03  0.29186765609E+03  0.17209397429E+03 0.  0.
        -24    2    5    5    0    0 -0.28901375736E+02 -0.40106124393E+02  0.61279989480E+02  0.11218223888E+03  0.79911368879E+02 0.  0.
          2    1    4    4  501    0  0.36011979912E+02 -0.25957297895E+01 -0.36209815354E+02  0.51134638341E+02  0.00000000000E+00 0. -1.
         -1    1    4    4    0  501 -0.31819721210E+02  0.41919734651E+02 -0.78573606299E+02  0.94570452140E+02  0.00000000000E+00 0.  1.
          5    1    3    3  502    0 -0.31886447165E+02 -0.54684201539E+01  0.35425188947E+02  0.48204596707E+02  0.47000000000E+01 0. -1.
         11    1    6    6    0    0 -0.47097599656E+02  0.28416886333E+00  0.18510414532E+02  0.50605336591E+02  0.00000000000E+00 0. -1.
        -12    1    6    6    0    0  0.18196223921E+02 -0.40390293256E+02  0.42769574947E+02  0.61576902288E+02  0.00000000000E+00 0.  1.
         -5    1    5    5    0  503  0.56595564200E+02  0.62505396851E+01  0.17036030061E+03  0.17968541721E+03  0.47000000000E+01 0.  1.
<mgrwt>
<rscale>  2 0.17740571E+03</rscale>
<asrwt>0</asrwt>
<pdfrwt beam="1">  1       21 0.49081492E-01 0.17756549E+03</pdfrwt>
<pdfrwt beam="2">  1       21 0.25653484E-01 0.17756549E+03</pdfrwt>
<totfact> 0.57493029E+04</totfact>
</mgrwt>
</event>
<event>
12    1  0.1473662E-001  0.2086700E+03  0.7546771E-02  0.1142628E+00
         21   -1    0    0  504  503  0.00000000000E+00  0.00000000000E+00  0.13456226689E+03  0.13456226689E+03  0.00000000000E+00 0. -1.
         21   -1    0    0  502  504 -0.00000000000E+00 -0.00000000000E+00 -0.58129491821E+03  0.58129491821E+03  0.00000000000E+00 0. -1.
          6    2    1    2  502    0  0.82582235920E+00 -0.11613486835E+03 -0.46170589432E+03  0.50667099347E+03  0.17336427875E+03 0.  0.
         24    2    3    3    0    0 -0.61764206513E+02 -0.89819500834E+02 -0.25355270567E+03  0.28767361854E+03  0.81146634653E+02 0.  0.
         -6    2    1    2    0  503 -0.82582235920E+00  0.11613486835E+03  0.14973243008E+02  0.20918619163E+03  0.17333976789E+03 0.  0.
        -24    2    5    5    0    0  0.30798794662E+02  0.12288031400E+03 -0.30030593595E+02  0.15357097116E+03  0.81449796250E+02 0.  0.
          4    1    4    4  501    0 -0.53423896791E+02 -0.87936703117E+02 -0.13971063817E+03  0.17351091873E+03  0.00000000000E+00 0. -1.
         -3    1    4    4    0  501 -0.83403097219E+01 -0.18827977169E+01 -0.11384206750E+03  0.11416269980E+03  0.00000000000E+00 0.  1.
          5    1    3    3  502    0  0.62590028872E+02 -0.26315367516E+02 -0.20815318865E+03  0.21899737494E+03  0.47000000000E+01 0. -1.
         13    1    6    6    0    0  0.38804990410E+02  0.14421408057E+02 -0.29915699912E+01  0.41506069220E+02  0.00000000000E+00 0. -1.
        -14    1    6    6    0    0 -0.80061957482E+01  0.10845890594E+03 -0.27039023604E+02  0.11206490194E+03  0.00000000000E+00 0.  1.
         -5    1    5    5    0  503 -0.31624617021E+02 -0.67454456506E+01  0.45003836603E+02  0.55615220468E+02  0.47000000000E+01 0.  1.
<mgrwt>
<rscale>  2 0.20866489E+03</rscale>
<asrwt>0</asrwt>
<pdfrwt beam="1">  1       21 0.20701888E-01 0.20866999E+03</pdfrwt>
<pdfrwt beam="2">  1       21 0.89429986E-01 0.20866999E+03</pdfrwt>
<totfact> 0.22853549E+04</totfact>
</mgrwt>
</event>
<event>
12    1  0.1473662E-001  0.1836521E+03  0.7546771E-02  0.1164608E+00
         21   -1    0    0  504  503  0.00000000000E+00  0.00000000000E+00  0.14446789387E+04  0.14446789387E+04  0.00000000000E+00 0. -1.
         21   -1    0    0  502  504 -0.00000000000E+00 -0.00000000000E+00 -0.23336225047E+02  0.23336225047E+02  0.00000000000E+00 0.  1.
          6    2    1    2  502    0  0.82654995432E+01  0.60929959416E+02  0.64995859671E+03  0.67507030467E+03  0.17173514600E+03 0.  0.
         24    2    3    3    0    0 -0.65051020392E+01  0.96432890469E+02  0.34485522893E+03  0.36751740870E+03  0.82476045402E+02 0.  0.
         -6    2    1    2    0  503 -0.82654995432E+01 -0.60929959416E+02  0.77138411695E+03  0.79294485908E+03  0.17305292609E+03 0.  0.
        -24    2    5    5    0    0 -0.13527700236E+01 -0.87478092874E+01  0.69443989202E+03  0.69959998043E+03  0.84350547310E+02 0.  0.
          2    1    4    4  501    0  0.24334370478E+02 -0.26517276273E+00  0.88958700799E+02  0.92227340583E+02  0.00000000000E+00 0. -1.
         -1    1    4    4    0  501 -0.30839472517E+02  0.96698063232E+02  0.25589652813E+03  0.27529006812E+03  0.00000000000E+00 0.  1.
          5    1    3    3  502    0  0.14770601582E+02 -0.35502931054E+02  0.30510336778E+03  0.30755289596E+03  0.47000000000E+01 0. -1.
         13    1    6    6    0    0  0.15772275617E+02 -0.54317816391E+01  0.66618975106E+03  0.66639856943E+03  0.00000000000E+00 0. -1.
        -14    1    6    6    0    0 -0.17125045641E+02 -0.33160276484E+01  0.28250140963E+02  0.33201410994E+02  0.00000000000E+00 0.  1.
         -5    1    5    5    0  503 -0.69127295196E+01 -0.52182150128E+02  0.76944224929E+02  0.93344878656E+02  0.47000000000E+01 0.  1.
<mgrwt>
<rscale>  2 0.18334101E+03</rscale>
<asrwt>0</asrwt>
<pdfrwt beam="1">  1       21 0.22225823E+00 0.18365210E+03</pdfrwt>
<pdfrwt beam="2">  1       21 0.35901896E-02 0.18365210E+03</pdfrwt>
<totfact> 0.46045872E+04</totfact>
</mgrwt>
</event>
<event>
12    1  0.1473662E-001  0.2128646E+03  0.7546771E-02  0.1142952E+00
         21   -1    0    0  504  503  0.00000000000E+00  0.00000000000E+00  0.33756364652E+02  0.33756364652E+02  0.00000000000E+00 0.  1.
         21   -1    0    0  502  504 -0.00000000000E+00 -0.00000000000E+00 -0.15631611215E+04  0.15631611215E+04  0.00000000000E+00 0.  1.
          6    2    1    2  502    0 -0.90117974887E+02 -0.12852938894E+02 -0.11581622737E+04  0.11775615386E+04  0.19241849612E+03 0.  0.
         24    2    3    3    0    0 -0.43845622891E+02 -0.71400590209E+02 -0.93563330255E+03  0.94280594014E+03  0.80329826205E+02 0.  0.
         -6    2    1    2    0  503  0.90117974887E+02  0.12852938894E+02 -0.37124248319E+03  0.41935594755E+03  0.17248762849E+03 0.  0.
        -24    2    5    5    0    0  0.10937682802E+03 -0.37663921176E+02 -0.27573678311E+03  0.30950930297E+03  0.79896017444E+02 0.  0.
          2    1    4    4  501    0 -0.25331027670E+02 -0.42837247787E+02 -0.19042558998E+03  0.19682122873E+03  0.00000000000E+00 0. -1.
         -1    1    4    4    0  501 -0.18514595220E+02 -0.28563342422E+02 -0.74520771257E+03  0.74598471140E+03  0.00000000000E+00 0.  1.
          5    1    3    3  502    0 -0.46272351996E+02  0.58547651316E+02 -0.22252897113E+03  0.23475559849E+03  0.47000000000E+01 0. -1.
         13    1    6    6    0    0  0.11144492226E+03 -0.94497305075E+01 -0.20954601572E+03  0.23752642129E+03  0.00000000000E+00 0. -1.
        -14    1    6    6    0    0 -0.20680942436E+01 -0.28214190668E+02 -0.66190767384E+02  0.71982881685E+02  0.00000000000E+00 0.  1.
         -5    1    5    5    0  503 -0.19258853132E+02  0.50516860069E+02 -0.95505700085E+02  0.10984664457E+03  0.47000000000E+01 0.  1.
<mgrwt>
<rscale>  2 0.20825976E+03</rscale>
<asrwt>0</asrwt>
<pdfrwt beam="1">  1       21 0.51932861E-02 0.21286457E+03</pdfrwt>
<pdfrwt beam="2">  1       21 0.24048636E+00 0.21286457E+03</pdfrwt>
<totfact> 0.18769846E+04</totfact>
</mgrwt>
</event>
<event>
12    1  0.1473662E-001  0.2022465E+03  0.7546771E-02  0.1148880E+00
         21   -1    0    0  504  503  0.00000000000E+00  0.00000000000E+00  0.56087184452E+03  0.56087184452E+03  0.00000000000E+00 0.  1.
         21   -1    0    0  502  504 -0.00000000000E+00 -0.00000000000E+00 -0.25726266641E+03  0.25726266641E+03  0.00000000000E+00 0.  1.
          6    2    1    2  502    0 -0.50766131791E+01 -0.94473130924E+02 -0.19659458329E+03  0.27859077965E+03  0.17324101091E+03 0.  0.
         24    2    3    3    0    0 -0.66015773845E+02 -0.83813384619E+02 -0.15037964717E+03  0.20122721062E+03  0.80595199434E+02 0.  0.
         -6    2    1    2    0  503  0.50766131791E+01  0.94473130924E+02  0.50020376140E+03  0.53954373127E+03  0.17875315539E+03 0.  0.
        -24    2    5    5    0    0 -0.14917147346E+02  0.11285645124E+03  0.48353162475E+03  0.50732964946E+03  0.10306037658E+03 0.  0.
          2    1    4    4  501    0 -0.72446080829E+02 -0.30825454572E+02 -0.74031484267E+02  0.10807082835E+03  0.00000000000E+00 0. -1.
         -1    1    4    4    0  501  0.64303069843E+01 -0.52987930047E+02 -0.76348162907E+02  0.93156382271E+02  0.00000000000E+00 0.  1.
          5    1    3    3  502    0  0.60939160665E+02 -0.10659746305E+02 -0.46214936114E+02  0.77363569036E+02  0.47000000000E+01 0. -1.
         11    1    6    6    0    0  0.16581712064E+02  0.23240752699E+02  0.21780733593E+02  0.35909415434E+02  0.00000000000E+00 0. -1.
        -12    1    6    6    0    0 -0.31498859410E+02  0.89615698545E+02  0.46175089116E+03  0.47142023403E+03  0.00000000000E+00 0.  1.
         -5    1    5    5    0  503  0.19993760525E+02 -0.18383320320E+02  0.16672136652E+02  0.32214081804E+02  0.47000000000E+01 0.  1.
<mgrwt>
<rscale>  2 0.20102164E+03</rscale>
<asrwt>0</asrwt>
<pdfrwt beam="1">  1       21 0.86287976E-01 0.20224647E+03</pdfrwt>
<pdfrwt beam="2">  1       21 0.39578872E-01 0.20224647E+03</pdfrwt>
<totfact> 0.70734946E+03</totfact>
</mgrwt>
</event>
<event>
12    1  0.1473662E-001  0.1790767E+03  0.7546771E-02  0.1169625E+00
         21   -1    0    0  504  503  0.00000000000E+00  0.00000000000E+00  0.44547929342E+03  0.44547929342E+03  0.00000000000E+00 0. -1.
         21   -1    0    0  502  504 -0.00000000000E+00 -0.00000000000E+00 -0.90436236079E+02  0.90436236079E+02  0.00000000000E+00 0. -1.
          6    2    1    2  502    0 -0.43322439821E+02  0.90237928167E+01  0.53132332950E+02  0.18679272130E+03  0.17352294746E+03 0.  0.
         24    2    3    3    0    0 -0.18087158582E+02 -0.57325606042E+02  0.58153449378E+02  0.11547397370E+03  0.79618116747E+02 0.  0.
         -6    2    1    2    0  503  0.43322439821E+02 -0.90237928167E+01  0.30191072439E+03  0.34912280820E+03  0.16964193785E+03 0.  0.
        -24    2    5    5    0    0  0.10898171843E+02  0.55287190085E+02  0.11819745388E+03  0.15174020654E+03  0.76674693619E+02 0.  0.
          4    1    4    4  501    0 -0.44346700031E+02 -0.53681835723E+02  0.27289159095E+02  0.74786813640E+02  0.00000000000E+00 0. -1.
         -3    1    4    4    0  501  0.26259541449E+02 -0.36437703191E+01  0.30864290283E+02  0.40687160062E+02  0.00000000000E+00 0.  1.
          5    1    3    3  502    0 -0.25235281239E+02  0.66349398859E+02 -0.50211164283E+01  0.71318747593E+02  0.47000000000E+01 0. -1.
         13    1    6    6    0    0  0.28753983370E+02  0.42527011592E+02  0.11918587977E+03  0.12977138440E+03  0.00000000000E+00 0. -1.
        -14    1    6    6    0    0 -0.17855811527E+02  0.12760178494E+02 -0.98842588695E+00  0.21968822140E+02  0.00000000000E+00 0.  1.
         -5    1    5    5    0  503  0.32424267978E+02 -0.64310982902E+02  0.18371327051E+03  0.19738260165E+03  0.47000000000E+01 0.  1.
<mgrwt>
<rscale>  2 0.17812974E+03</rscale>
<asrwt>0</asrwt>
<pdfrwt beam="1">  1       21 0.68535274E-01 0.17907673E+03</pdfrwt>
<pdfrwt beam="2">  1       21 0.13913267E-01 0.17907673E+03</pdfrwt>
<totfact> 0.87770370E+04</totfact>
</mgrwt>
</event>
<event>
12    1  0.1473662E-001  0.2563549E+03  0.7546771E-02  0.1109506E+00
         21   -1    0    0  504  503  0.00000000000E+00  0.00000000000E+00  0.78361658907E+02  0.78361658907E+02  0.00000000000E+00 0.  1.
         21   -1    0    0  502  504 -0.00000000000E+00 -0.00000000000E+00 -0.85289901344E+03  0.85289901344E+03  0.00000000000E+00 0.  1.
          6    2    1    2  502    0  0.25376062703E+02 -0.18653231548E+03 -0.45325906726E+03  0.52024049753E+03  0.17253447175E+03 0.  0.
         24    2    3    3    0    0 -0.43017902186E+02 -0.10443416716E+03 -0.18198561978E+03  0.22864280602E+03  0.80010822747E+02 0.  0.
         -6    2    1    2    0  503 -0.25376062703E+02  0.18653231548E+03 -0.32127828728E+03  0.41102017482E+03  0.17401033577E+03 0.  0.
        -24    2    5    5    0    0  0.26175224881E+02  0.18585550543E+03 -0.26519190219E+03  0.33469346969E+03  0.80408720736E+02 0.  0.
          2    1    4    4  501    0 -0.15796425579E+02  0.70592633318E+01 -0.55619567480E+01  0.18174037051E+02  0.00000000000E+00 0. -1.
         -1    1    4    4    0  501 -0.27221476607E+02 -0.11149343049E+03 -0.17642366303E+03  0.21046876896E+03  0.00000000000E+00 0.  1.
          5    1    3    3  502    0  0.68393964889E+02 -0.82098148321E+02 -0.27127344747E+03  0.29159769151E+03  0.47000000000E+01 0. -1.
         13    1    6    6    0    0 -0.25235187549E+02  0.45540069460E+02 -0.46412077956E+02  0.69748072355E+02  0.00000000000E+00 0. -1.
        -14    1    6    6    0    0  0.51410412430E+02  0.14031543597E+03 -0.21877982423E+03  0.26494539734E+03  0.00000000000E+00 0.  1.
         -5    1    5    5    0  503 -0.51551287584E+02  0.67681004889E+00 -0.56086385087E+02  0.76326705127E+02  0.47000000000E+01 0.  1.
<mgrwt>
<rscale>  2 0.25610468E+03</rscale>
<asrwt>0</asrwt>
<pdfrwt beam="1">  1       21 0.12055640E-01 0.25635492E+03</pdfrwt>
<pdfrwt beam="2">  1       21 0.13121524E+00 0.25635492E+03</pdfrwt>
<totfact> 0.23704178E+04</totfact>
</mgrwt>
</event>
<event>
12    1  0.1473662E-001  0.1737301E+03  0.7546771E-02  0.1174048E+00
         21   -1    0    0  504  503  0.00000000000E+00  0.00000000000E+00  0.30419102093E+03  0.30419102093E+03  0.00000000000E+00 0.  1.
         21   -1    0    0  502  504 -0.00000000000E+00 -0.00000000000E+00 -0.21393221024E+03  0.21393221024E+03  0.00000000000E+00 0.  1.
          6    2    1    2  502    0  0.10677361492E+02 -0.13779742370E+02 -0.14462855748E+03  0.22605211711E+03  0.17285326917E+03 0.  0.
         24    2    3    3    0    0  0.55157128744E+02 -0.52995534150E+02 -0.76735691947E+02  0.13578662420E+03  0.81846230226E+02 0.  0.
         -6    2    1    2    0  503 -0.10677361492E+02  0.13779742370E+02  0.23488736817E+03  0.29207111406E+03  0.17271239849E+03 0.  0.
        -24    2    5    5    0    0 -0.74267307910E+02  0.27461983668E+02  0.14727436366E+03  0.18285109038E+03  0.73993171922E+02 0.  0.
          2    1    4    4  501    0  0.60551432518E+02 -0.37700873746E+02 -0.16239583021E+02  0.73154329454E+02  0.00000000000E+00 0. -1.
         -1    1    4    4    0  501 -0.53943037745E+01 -0.15294660404E+02 -0.60496108926E+02  0.62632294747E+02  0.00000000000E+00 0.  1.
          5    1    3    3  502    0 -0.44479767251E+02  0.39215791781E+02 -0.67892865533E+02  0.90265492909E+02  0.47000000000E+01 0. -1.
         11    1    6    6    0    0  0.69897827151E+01 -0.14924094162E+02  0.18244800982E+02  0.24585735942E+02  0.00000000000E+00 0. -1.
        -12    1    6    6    0    0 -0.81257090625E+02  0.42386077830E+02  0.12902956268E+03  0.15826535444E+03  0.00000000000E+00 0.  1.
         -5    1    5    5    0  503  0.63589946418E+02 -0.13682241298E+02  0.87613004511E+02  0.10922002368E+03  0.47000000000E+01 0.  1.
<mgrwt>
<rscale>  2 0.17369503E+03</rscale>
<asrwt>0</asrwt>
<pdfrwt beam="1">  1       21 0.46798619E-01 0.17373008E+03</pdfrwt>
<pdfrwt beam="2">  1       21 0.32912648E-01 0.17373008E+03</pdfrwt>
<totfact> 0.39223838E+04</totfact>
</mgrwt>
</event>
<event>
12    1  0.1473662E-001  0.5810839E+03  0.7546771E-02  0.9945551E-01
         21   -1    0    0  504  503  0.00000000000E+00  0.00000000000E+00  0.16577759835E+04  0.16577759835E+04  0.00000000000E+00 0. -1.
         21   -1    0    0  502  504 -0.00000000000E+00 -0.00000000000E+00 -0.23686364722E+03  0.23686364722E+03  0.00000000000E+00 0.  1.
          6    2    1    2  502    0  0.30760362004E+03 -0.46115501411E+03  0.35542771726E+03  0.68100214827E+03  0.17364080641E+03 0.  0.
         24    2    3    3    0    0  0.10300194302E+03 -0.28094390299E+03  0.22024399808E+03  0.37664279037E+03  0.61753509644E+02 0.  0.
         -6    2    1    2    0  503 -0.30760362004E+03  0.46115501411E+03  0.10654846190E+04  0.12136374824E+04  0.17428290599E+03 0.  0.
        -24    2    5    5    0    0 -0.30914584790E+03  0.41699894553E+03  0.10314374125E+04  0.11576603520E+04  0.82795403442E+02 0.  0.
          4    1    4    4  501    0  0.77199309754E+02 -0.12227347442E+03  0.97909242152E+02  0.17463320323E+03  0.00000000000E+00 0. -1.
         -3    1    4    4    0  501  0.25802633269E+02 -0.15867042858E+03  0.12233475593E+03  0.20200958714E+03  0.00000000000E+00 0.  1.
          5    1    3    3  502    0  0.20460167702E+03 -0.18021111112E+03  0.13518371918E+03  0.30435935790E+03  0.47000000000E+01 0. -1.
         13    1    6    6    0    0 -0.12702442455E+03  0.17828740670E+03  0.52651034349E+03  0.57020588003E+03  0.00000000000E+00 0. -1.
        -14    1    6    6    0    0 -0.18212142335E+03  0.23871153883E+03  0.50492706905E+03  0.58745447200E+03  0.00000000000E+00 0.  1.
         -5    1    5    5    0  503  0.15422278542E+01  0.44156068586E+02  0.34047206456E+02  0.55977130394E+02  0.47000000000E+01 0.  1.
<mgrwt>
<rscale>  2 0.58103580E+03</rscale>
<asrwt>0</asrwt>
<pdfrwt beam="1">  1       21 0.25504245E+00 0.58108387E+03</pdfrwt>
<pdfrwt beam="2">  1       21 0.36440562E-01 0.58108387E+03</pdfrwt>
<totfact> 0.34080612E+02</totfact>
</mgrwt>
</event>
<event>
12    1  0.1473662E-001  0.2119757E+03  0.7546771E-02  0.1140407E+00
         21   -1    0    0  504  503  0.00000000000E+00  0.00000000000E+00  0.13294809620E+04  0.13294809620E+04  0.00000000000E+00 0.  1.
         21   -1    0    0  502  504 -0.00000000000E+00 -0.00000000000E+00 -0.38171546146E+02  0.38171546146E+02  0.00000000000E+00 0.  1.
          6    2    1    2  502    0  0.40417646230E+02 -0.11512208818E+03  0.40855453837E+03  0.46027221677E+03  0.17334076666E+03 0.  0.
         24    2    3    3    0    0  0.46158696186E+02 -0.13653918885E+03  0.40500340552E+03  0.43732984548E+03  0.80349610706E+02 0.  0.
         -6    2    1    2    0  503 -0.40417646230E+02  0.11512208818E+03  0.88275487749E+03  0.90738029139E+03  0.17086877467E+03 0.  0.
        -24    2    5    5    0    0  0.18528710074E+02  0.40799853618E+02  0.22614372859E+03  0.24393567552E+03  0.79722560525E+02 0.  0.
          4    1    4    4  501    0  0.34048610249E+02 -0.10994991515E+03  0.38521176369E+03  0.40204028976E+03  0.00000000000E+00 0. -1.
         -3    1    4    4    0  501  0.12110085937E+02 -0.26589273691E+02  0.19791641830E+02  0.35289555723E+02  0.00000000000E+00 0.  1.
          5    1    3    3  502    0 -0.57410499565E+01  0.21417100668E+02  0.35511328528E+01  0.22942371285E+02  0.47000000000E+01 0. -1.
         11    1    6    6    0    0 -0.17437019894E+02 -0.16256191172E+02  0.65748019282E+02  0.69936510162E+02  0.00000000000E+00 0. -1.
        -12    1    6    6    0    0  0.35965729968E+02  0.57056044791E+02  0.16039570931E+03  0.17399916535E+03  0.00000000000E+00 0.  1.
         -5    1    5    5    0  503 -0.58946356304E+02  0.74322234559E+02  0.65661114890E+03  0.66344461587E+03  0.47000000000E+01 0.  1.
<mgrwt>
<rscale>  2 0.21146975E+03</rscale>
<asrwt>0</asrwt>
<pdfrwt beam="1">  1       21 0.20453550E+00 0.21197571E+03</pdfrwt>
<pdfrwt beam="2">  1       21 0.58725466E-02 0.21197571E+03</pdfrwt>
<totfact> 0.25336542E+04</totfact>
</mgrwt>
</event>
<event>
12    1  0.1473662E-001  0.2223309E+03  0.7546771E-02  0.1132525E+00
         21   -1    0    0  504  503  0.00000000000E+00  0.00000000000E+00  0.45579691720E+03  0.45579691720E+03  0.00000000000E+00 0. -1.
         21   -1    0    0  502  504 -0.00000000000E+00 -0.00000000000E+00 -0.16407758850E+03  0.16407758850E+03  0.00000000000E+00 0.  1.
          6    2    1    2  502    0  0.10261523263E+03 -0.91369758570E+02 -0.36602766731E+02  0.22335662118E+03  0.17225010579E+03 0.  0.
         24    2    3    3    0    0  0.60440044564E+02 -0.12223468483E+03 -0.54770326935E+02  0.16782698580E+03  0.81066585518E+02 0.  0.
         -6    2    1    2    0  503 -0.10261523263E+03  0.91369758570E+02  0.32832209543E+03  0.39651788452E+03  0.17479335127E+03 0.  0.
        -24    2    5    5    0    0 -0.76366602374E+02  0.12022150320E+03  0.31579227029E+03  0.35528076197E+03  0.78832696619E+02 0.  0.
          4    1    4    4  501    0  0.37739406929E+02 -0.12522088979E+03 -0.30167697791E+02  0.13421856826E+03  0.00000000000E+00 0. -1.
         -3    1    4    4    0  501  0.22700637635E+02  0.29862049562E+01 -0.24602629143E+02  0.33608417544E+02  0.00000000000E+00 0.  1.
          5    1    3    3  502    0  0.42175188065E+02  0.30864926263E+02  0.18167560203E+02  0.55529635378E+02  0.47000000000E+01 0. -1.
         11    1    6    6    0    0 -0.22230848753E+02  0.38366420883E+02  0.19331941345E+03  0.19833957876E+03  0.00000000000E+00 0. -1.
        -12    1    6    6    0    0 -0.54135753621E+02  0.81855082321E+02  0.12247285685E+03  0.15694118321E+03  0.00000000000E+00 0.  1.
         -5    1    5    5    0  503 -0.26248630255E+02 -0.28851744634E+02  0.12529825140E+02  0.41237122556E+02  0.47000000000E+01 0.  1.
<mgrwt>
<rscale>  2 0.22183076E+03</rscale>
<asrwt>0</asrwt>
<pdfrwt beam="1">  1       21 0.70122602E-01 0.22233091E+03</pdfrwt>
<pdfrwt beam="2">  1       21 0.25242706E-01 0.22233091E+03</pdfrwt>
<totfact> 0.27002753E+04</totfact>
</mgrwt>
</event>
<event>
12    1  0.1473662E-001  0.1778022E+03  0.7546771E-02  0.1171008E+00
         21   -1    0    0  504  503  0.00000000000E+00  0.00000000000E+00  0.15478036883E+03  0.15478036883E+03  0.00000000000E+00 0. -1.
         21   -1    0    0  502  504 -0.00000000000E+00 -0.00000000000E+00 -0.33482201561E+03  0.33482201561E+03  0.00000000000E+00 0. -1.
          6    2    1    2  502    0 -0.72371194790E+01 -0.60864568979E+01 -0.24636005449E+03  0.30382051998E+03  0.17755058732E+03 0.  0.
         24    2    3    3    0    0 -0.74799029011E+02 -0.21514466412E+02 -0.15066173664E+03  0.18557123610E+03  0.75365494601E+02 0.  0.
         -6    2    1    2    0  503  0.72371194790E+01  0.60864568979E+01  0.66318407713E+02  0.18578186446E+03  0.17328401284E+03 0.  0.
        -24    2    5    5    0    0 -0.14826678625E+02  0.49971924898E+02  0.89495863012E+02  0.13126553734E+03  0.80648050939E+02 0.  0.
          4    1    4    4  501    0 -0.61925461774E+02 -0.99255694254E+01 -0.15542959895E+03  0.16760560842E+03  0.00000000000E+00 0. -1.
         -3    1    4    4    0  501 -0.12873567236E+02 -0.11588896987E+02  0.47678623185E+01  0.17965627678E+02  0.00000000000E+00 0.  1.
          5    1    3    3  502    0  0.67561909532E+02  0.15428009514E+02 -0.95698317853E+02  0.11824928388E+03  0.47000000000E+01 0. -1.
         13    1    6    6    0    0  0.23542531485E+02 -0.85918382561E+01  0.32153328504E+02  0.40766493683E+02  0.00000000000E+00 0. -1.
        -14    1    6    6    0    0 -0.38369210111E+02  0.58563763154E+02  0.57342534508E+02  0.90499043659E+02  0.00000000000E+00 0.  1.
         -5    1    5    5    0  503  0.22063798104E+02 -0.43885468000E+02 -0.23177455299E+02  0.54516327119E+02  0.47000000000E+01 0.  1.
<mgrwt>
<rscale>  2 0.17672742E+03</rscale>
<asrwt>0</asrwt>
<pdfrwt beam="1">  1       21 0.23812364E-01 0.17780223E+03</pdfrwt>
<pdfrwt beam="2">  1       21 0.51511080E-01 0.17780223E+03</pdfrwt>
<totfact> 0.59899507E+04</totfact>
</mgrwt>
</event>
<event>
12    1  0.1473662E-001  0.2150578E+03  0.7546771E-02  0.1137757E+00
         21   -1    0    0  504  503  0.00000000000E+00  0.00000000000E+00  0.60476868885E+03  0.60476868885E+03  0.00000000000E+00 0.  1.
         21   -1    0    0  502  504 -0.00000000000E+00 -0.00000000000E+00 -0.76256870941E+02  0.76256870941E+02  0.00000000000E+00 0.  1.
          6    2    1    2  502    0 -0.55365345754E+02 -0.11477216436E+03  0.25795205744E+03  0.33584088638E+03  0.17323933100E+03 0.  0.
         24    2    3    3    0    0 -0.69207506726E+02 -0.77478982517E+02  0.81021826155E+02  0.15443310382E+03  0.80575278603E+02 0.  0.
         -6    2    1    2    0  503  0.55365345754E+02  0.11477216436E+03  0.27055976047E+03  0.34518467341E+03  0.17237141164E+03 0.  0.
        -24    2    5    5    0    0  0.18035949250E+02  0.14541107529E+03  0.20540547604E+03  0.26394799767E+03  0.77507803496E+02 0.  0.
          4    1    4    4  501    0 -0.51623979430E+02 -0.21053370049E+02  0.77174696148E+02  0.95206162448E+02  0.00000000000E+00 0. -1.
         -3    1    4    4    0  501 -0.17583527296E+02 -0.56425612468E+02  0.38471300067E+01  0.59226941368E+02  0.00000000000E+00 0.  1.
          5    1    3    3  502    0  0.13842160972E+02 -0.37293181845E+02  0.17693023128E+03  0.18140778256E+03  0.47000000000E+01 0. -1.
         11    1    6    6    0    0  0.10601602877E+02  0.39412948534E+02  0.10793693148E+02  0.42217038119E+02  0.00000000000E+00 0. -1.
        -12    1    6    6    0    0  0.74343463730E+01  0.10599812676E+03  0.19461178289E+03  0.22173095955E+03  0.00000000000E+00 0.  1.
         -5    1    5    5    0  503  0.37329396504E+02 -0.30638910930E+02  0.65154284430E+02  0.81236675744E+02  0.47000000000E+01 0.  1.
<mgrwt>
<rscale>  2 0.21488291E+03</rscale>
<asrwt>0</asrwt>
<pdfrwt beam="1">  1       21 0.93041333E-01 0.21505775E+03</pdfrwt>
<pdfrwt beam="2">  1       21 0.11731827E-01 0.21505775E+03</pdfrwt>
<totfact> 0.58788160E+04</totfact>
</mgrwt>
</event>
<event>
12    1  0.1473662E-001  0.3653191E+03  0.7546771E-02  0.1056637E+00
         21   -1    0    0  504  503  0.00000000000E+00  0.00000000000E+00  0.41373346978E+03  0.41373346978E+03  0.00000000000E+00 0. -1.
         21   -1    0    0  502  504 -0.00000000000E+00 -0.00000000000E+00 -0.32472133896E+03  0.32472133896E+03  0.00000000000E+00 0. -1.
          6    2    1    2  502    0  0.10350878014E+03 -0.30266336412E+03  0.82444278184E+02  0.37450643807E+03  0.17646198912E+03 0.  0.
         24    2    3    3    0    0  0.11186986299E+03 -0.30648532869E+03  0.10294636392E+03  0.35155125045E+03  0.80883897651E+02 0.  0.
         -6    2    1    2    0  503 -0.10350878014E+03  0.30266336412E+03  0.65678526390E+01  0.36394837067E+03  0.17348227654E+03 0.  0.
        -24    2    5    5    0    0 -0.96587530416E+02  0.24881938217E+03  0.62688585248E+02  0.28572622087E+03  0.80432447414E+02 0.  0.
          4    1    4    4  501    0  0.27136023035E+02 -0.15128317998E+03  0.16068588136E+02  0.15453531576E+03  0.00000000000E+00 0. -1.
         -3    1    4    4    0  501  0.84733839950E+02 -0.15520214871E+03  0.86877775781E+02  0.19701593469E+03  0.00000000000E+00 0.  1.
          5    1    3    3  502    0 -0.83610828432E+01  0.38219645703E+01 -0.20502085732E+02  0.22955187624E+02  0.47000000000E+01 0. -1.
         13    1    6    6    0    0 -0.69279250410E+02  0.22284949463E+03  0.28975369126E+02  0.23516182473E+03  0.00000000000E+00 0. -1.
        -14    1    6    6    0    0 -0.27308280006E+02  0.25969887538E+02  0.33713216122E+02  0.50564396139E+02  0.00000000000E+00 0.  1.
         -5    1    5    5    0  503 -0.69212497261E+01  0.53843981958E+02 -0.56120732609E+02  0.78222149800E+02  0.47000000000E+01 0.  1.
<mgrwt>
<rscale>  2 0.36496104E+03</rscale>
<asrwt>0</asrwt>
<pdfrwt beam="1">  1       21 0.63651304E-01 0.36531906E+03</pdfrwt>
<pdfrwt beam="2">  1       21 0.49957129E-01 0.36531906E+03</pdfrwt>
<totfact> 0.79574232E+03</totfact>
</mgrwt>
</event>
<event>
12    1  0.1473662E-001  0.1796268E+03  0.7546771E-02  0.1168172E+00
         21   -1    0    0  504  503  0.00000000000E+00  0.00000000000E+00  0.11160782546E+04  0.11160782546E+04  0.00000000000E+00 0. -1.
         21   -1    0    0  502  504 -0.00000000000E+00 -0.00000000000E+00 -0.60975101263E+02  0.60975101263E+02  0.00000000000E+00 0. -1.
          6    2    1    2  502    0  0.50236449373E+02  0.27898314694E+00  0.10071678205E+03  0.20591014992E+03  0.17242778482E+03 0.  0.
         24    2    3    3    0    0  0.97787907028E+02 -0.95981169540E+01  0.88964081445E+02  0.15572136429E+03  0.81730880942E+02 0.  0.
         -6    2    1    2    0  503 -0.50236449373E+02 -0.27898314694E+00  0.95438637131E+03  0.97114320596E+03  0.17245869672E+03 0.  0.
        -24    2    5    5    0    0 -0.73423092516E+02 -0.49185693705E+02  0.75294245863E+03  0.76250182294E+03  0.81709858585E+02 0.  0.
          2    1    4    4  501    0  0.94149186288E+02 -0.33173681073E+02  0.54280621257E+02  0.11362635363E+03  0.00000000000E+00 0. -1.
         -1    1    4    4    0  501  0.36387207396E+01  0.23575564119E+02  0.34683460188E+02  0.42095010664E+02  0.00000000000E+00 0.  1.
          5    1    3    3  502    0 -0.47551457655E+02  0.98771001010E+01  0.11752700609E+02  0.50188785631E+02  0.47000000000E+01 0. -1.
         13    1    6    6    0    0 -0.92069292579E+01  0.18464164686E+02  0.25963848442E+03  0.26045697440E+03  0.00000000000E+00 0. -1.
        -14    1    6    6    0    0 -0.64216163259E+02 -0.67649858391E+02  0.49330397422E+03  0.50204484854E+03  0.00000000000E+00 0.  1.
         -5    1    5    5    0  503  0.23186643144E+02  0.48906710558E+02  0.20144391267E+03  0.20864138303E+03  0.47000000000E+01 0.  1.
<mgrwt>
<rscale>  2 0.17961936E+03</rscale>
<asrwt>0</asrwt>
<pdfrwt beam="1">  1       21 0.17170433E+00 0.17962678E+03</pdfrwt>
<pdfrwt beam="2">  1       21 0.93807857E-02 0.17962678E+03</pdfrwt>
<totfact> 0.19032578E+04</totfact>
</mgrwt>
</event>
<event>
12    1  0.1473662E-001  0.2757989E+03  0.7546771E-02  0.1098115E+00
         21   -1    0    0  504  503  0.00000000000E+00  0.00000000000E+00  0.21286830891E+03  0.21286830891E+03  0.00000000000E+00 0. -1.
         21   -1    0    0  502  504 -0.00000000000E+00 -0.00000000000E+00 -0.35860268312E+03  0.35860268312E+03  0.00000000000E+00 0.  1.
          6    2    1    2  502    0  0.20482450124E+03 -0.60794186006E+02 -0.95537943557E+02  0.29114131736E+03  0.17316685208E+03 0.  0.
         24    2    3    3    0    0  0.18037991595E+03 -0.16047002358E+02 -0.19731957489E+02  0.19966188952E+03  0.81737993732E+02 0.  0.
         -6    2    1    2    0  503 -0.20482450124E+03  0.60794186006E+02 -0.50196430653E+02  0.28032967467E+03  0.17440193660E+03 0.  0.
        -24    2    5    5    0    0 -0.12996988414E+03 -0.26271289517E+02 -0.54078192486E+02  0.16534807265E+03  0.82663067866E+02 0.  0.
          2    1    4    4  501    0  0.10287126295E+03 -0.49105047198E+02 -0.48476708762E+01  0.11409339295E+03  0.00000000000E+00 0. -1.
         -1    1    4    4    0  501  0.77508652999E+02  0.33058044840E+02 -0.14884286613E+02  0.85568496576E+02  0.00000000000E+00 0.  1.
          5    1    3    3  502    0  0.24444585289E+02 -0.44747183649E+02 -0.75805986069E+02  0.91479427842E+02  0.47000000000E+01 0. -1.
         11    1    6    6    0    0 -0.86788828758E+02  0.23725964487E+02 -0.26854835926E+02  0.93895710236E+02  0.00000000000E+00 0. -1.
        -12    1    6    6    0    0 -0.43181055386E+02 -0.49997254004E+02 -0.27223356560E+02  0.71452362414E+02  0.00000000000E+00 0.  1.
         -5    1    5    5    0  503 -0.74854617093E+02  0.87065475524E+02  0.38817618329E+01  0.11498160202E+03  0.47000000000E+01 0.  1.
<mgrwt>
<rscale>  2 0.27560388E+03</rscale>
<asrwt>0</asrwt>
<pdfrwt beam="1">  1       21 0.32748971E-01 0.27579892E+03</pdfrwt>
<pdfrwt beam="2">  1       21 0.55169644E-01 0.27579892E+03</pdfrwt>
<totfact> 0.26706985E+04</totfact>
</mgrwt>
</event>
<event>
12    1  0.1473662E-001  0.2025251E+03  0.7546771E-02  0.1147957E+00
         21   -1    0    0  504  503  0.00000000000E+00  0.00000000000E+00  0.22550294687E+03  0.22550294687E+03  0.00000000000E+00 0.  1.
         21   -1    0    0  502  504 -0.00000000000E+00 -0.00000000000E+00 -0.23437832693E+03  0.23437832693E+03  0.00000000000E+00 0.  1.
          6    2    1    2  502    0 -0.95621548759E+02  0.31662895462E+02 -0.11470678677E+03  0.23137149789E+03  0.17386518792E+03 0.  0.
         24    2    3    3    0    0  0.28290928313E+01  0.44597555043E+02 -0.19463700921E+02  0.93700986709E+02  0.80025580752E+02 0.  0.
         -6    2    1    2    0  503  0.95621548759E+02 -0.31662895462E+02  0.10583140671E+03  0.22850977590E+03  0.17569977661E+03 0.  0.
        -24    2    5    5    0    0  0.11325484824E+03 -0.22858715356E+02  0.22160544030E+02  0.14242057739E+03  0.80270477986E+02 0.  0.
          4    1    4    4  501    0 -0.32098528733E+02  0.23824833549E+02  0.12625930049E+02  0.41920786611E+02  0.00000000000E+00 0. -1.
         -3    1    4    4    0  501  0.34927621564E+02  0.20772721494E+02 -0.32089630970E+02  0.51780200098E+02  0.00000000000E+00 0.  1.
          5    1    3    3  502    0 -0.98450641591E+02 -0.12934659581E+02 -0.95243085849E+02  0.13767051119E+03  0.47000000000E+01 0. -1.
         11    1    6    6    0    0 -0.38747999697E+01  0.15307495630E+01 -0.16240935836E+02  0.16766790565E+02  0.00000000000E+00 0. -1.
        -12    1    6    6    0    0  0.11712964821E+03 -0.24389464919E+02  0.38401479866E+02  0.12565378683E+03  0.00000000000E+00 0.  1.
         -5    1    5    5    0  503 -0.17633299479E+02 -0.88041801064E+01  0.83670862682E+02  0.86089198509E+02  0.47000000000E+01 0.  1.
<mgrwt>
<rscale>  2 0.20212658E+03</rscale>
<asrwt>0</asrwt>
<pdfrwt beam="1">  1       21 0.34692761E-01 0.20252514E+03</pdfrwt>
<pdfrwt beam="2">  1       21 0.36058204E-01 0.20252514E+03</pdfrwt>
<totfact> 0.59122483E+04</totfact>
</mgrwt>
</event>
<event>
12    1  0.1473662E-001  0.2683751E+03  0.7546771E-02  0.1102553E+00
         21   -1    0    0  504  503  0.00000000000E+00  0.00000000000E+00  0.96498153244E+02  0.96498153244E+02  0.00000000000E+00 0. -1.
         21   -1    0    0  502  504 -0.00000000000E+00 -0.00000000000E+00 -0.82331227049E+03  0.82331227049E+03  0.00000000000E+00 0.  1.
          6    2    1    2  502    0  0.90365993032E+02 -0.18129121614E+03 -0.21557176460E+03  0.34240766491E+03  0.17245087867E+03 0.  0.
         24    2    3    3    0    0  0.33376451573E+02 -0.18623146447E+03 -0.14559365394E+03  0.25190219623E+03  0.80380709887E+02 0.  0.
         -6    2    1    2    0  503 -0.90365993032E+02  0.18129121614E+03 -0.51124235265E+03  0.57740275882E+03  0.17604739421E+03 0.  0.
        -24    2    5    5    0    0 -0.11674556182E+03  0.57858874412E+02 -0.29074706261E+03  0.32329316128E+03  0.54840114535E+02 0.  0.
          4    1    4    4  501    0  0.31875665425E+02 -0.17812236613E+03 -0.10237647365E+03  0.20790521330E+03  0.00000000000E+00 0. -1.
         -3    1    4    4    0  501  0.15007861476E+01 -0.81090983424E+01 -0.43217180288E+02  0.43996982931E+02  0.00000000000E+00 0.  1.
          5    1    3    3  502    0  0.56989541460E+02  0.49402483316E+01 -0.69978110660E+02  0.90505468679E+02  0.47000000000E+01 0. -1.
         13    1    6    6    0    0 -0.78945234796E+02  0.34848169350E+02 -0.12608377513E+03  0.15278698686E+03  0.00000000000E+00 0. -1.
        -14    1    6    6    0    0 -0.37800327020E+02  0.23010705062E+02 -0.16466328748E+03  0.17050617441E+03  0.00000000000E+00 0.  1.
         -5    1    5    5    0  503  0.26379568783E+02  0.12343234173E+03 -0.22049529004E+03  0.25410959755E+03  0.47000000000E+01 0.  1.
<mgrwt>
<rscale>  2 0.26778684E+03</rscale>
<asrwt>0</asrwt>
<pdfrwt beam="1">  1       21 0.14845870E-01 0.26837512E+03</pdfrwt>
<pdfrwt beam="2">  1       21 0.12666342E+00 0.26837512E+03</pdfrwt>
<totfact> 0.17659421E+04</totfact>
</mgrwt>
</event>
<event>
12    1  0.1473662E-001  0.2819920E+03  0.7546771E-02  0.1094814E+00
         21   -1    0    0  504  503  0.00000000000E+00  0.00000000000E+00  0.15598241206E+03  0.15598241206E+03  0.00000000000E+00 0. -1.
         21   -1    0    0  502  504 -0.00000000000E+00 -0.00000000000E+00 -0.73115811184E+03  0.73115811184E+03  0.00000000000E+00 0. -1.
          6    2    1    2  502    0  0.21737744517E+03 -0.41026720562E+02 -0.53372058593E+03  0.60363660646E+03  0.17488094049E+03 0.  0.
         24    2    3    3    0    0  0.87031398118E+02  0.36605553442E+02 -0.18396004617E+03  0.22236060784E+03  0.81783314510E+02 0.  0.
         -6    2    1    2    0  503 -0.21737744517E+03  0.41026720562E+02 -0.41455113859E+02  0.28350391744E+03  0.17239431335E+03 0.  0.
        -24    2    5    5    0    0 -0.20411486126E+03  0.22558041041E+02  0.16457876208E+02  0.22111006620E+03  0.80293573100E+02 0.  0.
          2    1    4    4  501    0  0.28152334641E+02  0.56180264941E+02 -0.90348598798E+02  0.11005292099E+03  0.00000000000E+00 0. -1.
         -1    1    4    4    0  501  0.58879063477E+02 -0.19574711499E+02 -0.93611447371E+02  0.11230768685E+03  0.00000000000E+00 0.  1.
          5    1    3    3  502    0  0.13034604705E+03 -0.77632274004E+02 -0.34976053976E+03  0.38127599862E+03  0.47000000000E+01 0. -1.
         13    1    6    6    0    0 -0.11649207948E+03  0.31854468875E+02  0.44398887257E+02  0.12867157013E+03  0.00000000000E+00 0. -1.
        -14    1    6    6    0    0 -0.87622781776E+02 -0.92964278340E+01 -0.27941011049E+02  0.92438496067E+02  0.00000000000E+00 0.  1.
         -5    1    5    5    0  503 -0.13262583907E+02  0.18468679521E+02 -0.57912990067E+02  0.62393851248E+02  0.47000000000E+01 0.  1.
<mgrwt>
<rscale>  2 0.28160738E+03</rscale>
<asrwt>0</asrwt>
<pdfrwt beam="1">  1       21 0.23997294E-01 0.28199200E+03</pdfrwt>
<pdfrwt beam="2">  1       21 0.11248587E+00 0.28199200E+03</pdfrwt>
<totfact> 0.95936412E+03</totfact>
</mgrwt>
</event>
<event>
12    1  0.1473662E-001  0.2034294E+03  0.7546771E-02  0.1147089E+00
         21   -1    0    0  504  503  0.00000000000E+00  0.00000000000E+00  0.64639484121E+03  0.64639484121E+03  0.00000000000E+00 0.  1.
         21   -1    0    0  502  504 -0.00000000000E+00 -0.00000000000E+00 -0.70655568150E+02  0.70655568150E+02  0.00000000000E+00 0. -1.
          6    2    1    2  502    0  0.29347796602E+02 -0.10289852391E+03  0.17603954239E+03  0.26902313162E+03  0.17301481287E+03 0.  0.
         24    2    3    3    0    0 -0.47774267466E+02 -0.53749196031E+02  0.68940100728E+02  0.12811234565E+03  0.80552336493E+02 0.  0.
         -6    2    1    2    0  503 -0.29347796602E+02  0.10289852391E+03  0.39969973067E+03  0.44802727774E+03  0.17181143010E+03 0.  0.
        -24    2    5    5    0    0  0.38541480401E+02  0.79220015781E+02  0.31432586826E+03  0.33631151313E+03  0.80891444514E+02 0.  0.
          4    1    4    4  501    0 -0.15803479668E+01 -0.30477378463E+02  0.70014173787E+02  0.76376387900E+02  0.00000000000E+00 0. -1.
         -3    1    4    4    0  501 -0.46193919499E+02 -0.23271817568E+02 -0.10740730590E+01  0.51735957753E+02  0.00000000000E+00 0.  1.
          5    1    3    3  502    0  0.77122064069E+02 -0.49149327883E+02  0.10709944167E+03  0.14091078597E+03  0.47000000000E+01 0. -1.
         11    1    6    6    0    0  0.28647389617E+02  0.85555249990E+02  0.17877082419E+03  0.20024829915E+03  0.00000000000E+00 0. -1.
        -12    1    6    6    0    0  0.98940907841E+01 -0.63352342083E+01  0.13555504407E+03  0.13606321398E+03  0.00000000000E+00 0.  1.
         -5    1    5    5    0  503 -0.67889277004E+02  0.23678508133E+02  0.85373862414E+02  0.11171576461E+03  0.47000000000E+01 0.  1.
<mgrwt>
<rscale>  2 0.20317331E+03</rscale>
<asrwt>0</asrwt>
<pdfrwt beam="1">  1       21 0.99445356E-01 0.20342941E+03</pdfrwt>
<pdfrwt beam="2">  1       21 0.10870088E-01 0.20342941E+03</pdfrwt>
<totfact> 0.57915690E+04</totfact>
</mgrwt>
</event>
<event>
12    1  0.1473662E-001  0.2396400E+03  0.7546771E-02  0.1120796E+00
         21   -1    0    0  504  503  0.00000000000E+00  0.00000000000E+00  0.15021499880E+04  0.15021499880E+04  0.00000000000E+00 0. -1.
         21   -1    0    0  502  504 -0.00000000000E+00 -0.00000000000E+00 -0.45391702353E+02  0.45391702353E+02  0.00000000000E+00 0. -1.
          6    2    1    2  502    0  0.15193955118E+03 -0.63958741433E+02  0.41173291377E+03  0.47639406031E+03  0.17392803283E+03 0.  0.
         24    2    3    3    0    0  0.80598068505E+02  0.22660480074E+02  0.28013974905E+03  0.30338727523E+03  0.80969214940E+02 0.  0.
         -6    2    1    2    0  503 -0.15193955118E+03  0.63958741433E+02  0.10450253719E+04  0.10711476301E+04  0.16763910538E+03 0.  0.
        -24    2    5    5    0    0 -0.15158202683E+03  0.19943517894E+02  0.61478953525E+03  0.63864048230E+03  0.80750468819E+02 0.  0.
          2    1    4    4  501    0  0.53981030480E+02 -0.71136647419E+01  0.66023694405E+02  0.85578525932E+02  0.00000000000E+00 0. -1.
         -1    1    4    4    0  501  0.26617038025E+02  0.29774144816E+02  0.21411605465E+03  0.21780874930E+03  0.00000000000E+00 0.  1.
          5    1    3    3  502    0  0.71341482676E+02 -0.86619221507E+02  0.13159316471E+03  0.17300678508E+03  0.47000000000E+01 0. -1.
         11    1    6    6    0    0 -0.68941348309E+02 -0.21479042738E+02  0.36994786513E+03  0.37692927943E+03  0.00000000000E+00 0. -1.
        -12    1    6    6    0    0 -0.82640678526E+02  0.41422560631E+02  0.24484167013E+03  0.26171120287E+03  0.00000000000E+00 0.  1.
         -5    1    5    5    0  503 -0.35752434641E+00  0.44015223539E+02  0.43023583666E+03  0.43250714777E+03  0.47000000000E+01 0.  1.
<mgrwt>
<rscale>  2 0.23850070E+03</rscale>
<asrwt>0</asrwt>
<pdfrwt beam="1">  1       21 0.23109996E+00 0.23963996E+03</pdfrwt>
<pdfrwt beam="2">  1       21 0.69833400E-02 0.23963996E+03</pdfrwt>
<totfact> 0.12593298E+04</totfact>
</mgrwt>
</event>
<event>
12    1  0.1473662E-001  0.1828994E+03  0.7546771E-02  0.1165120E+00
         21   -1    0    0  504  503  0.00000000000E+00  0.00000000000E+00  0.20894303944E+03  0.20894303944E+03  0.00000000000E+00 0. -1.
         21   -1    0    0  502  504 -0.00000000000E+00 -0.00000000000E+00 -0.37554792615E+03  0.37554792615E+03  0.00000000000E+00 0.  1.
          6    2    1    2  502    0 -0.20067474611E+02  0.54486199023E+02 -0.30479466101E+03  0.35525617458E+03  0.17301940577E+03 0.  0.
         24    2    3    3    0    0  0.22951623503E+02  0.88726871333E+02 -0.24422680763E+03  0.27331948374E+03  0.81593945288E+02 0.  0.
         -6    2    1    2    0  503  0.20067474611E+02 -0.54486199023E+02  0.13818977430E+03  0.22923479101E+03  0.17343796086E+03 0.  0.
        -24    2    5    5    0    0  0.74120204759E+02 -0.31341823106E+02  0.12765729218E+03  0.16931498666E+03  0.76779332070E+02 0.  0.
          4    1    4    4  501    0  0.14654943540E+02  0.66952712807E+02 -0.71558668206E+02  0.99086205487E+02  0.00000000000E+00 0. -1.
         -3    1    4    4    0  501  0.82966799626E+01  0.21774158526E+02 -0.17266813942E+03  0.17423327825E+03  0.00000000000E+00 0.  1.
          5    1    3    3  502    0 -0.43019098113E+02 -0.34240672310E+02 -0.60567853384E+02  0.81936690843E+02  0.47000000000E+01 0. -1.
         11    1    6    6    0    0  0.42290438198E+02 -0.39628365899E+02  0.27990137613E+02  0.64360984690E+02  0.00000000000E+00 0. -1.
        -12    1    6    6    0    0  0.31829766562E+02  0.82865427931E+01  0.99667154563E+02  0.10495400197E+03  0.00000000000E+00 0.  1.
         -5    1    5    5    0  503 -0.54052730149E+02 -0.23144375917E+02  0.10532482124E+02  0.59919804346E+02  0.47000000000E+01 0.  1.
<mgrwt>
<rscale>  2 0.18280006E+03</rscale>
<asrwt>0</asrwt>
<pdfrwt beam="1">  1       21 0.32145084E-01 0.18289936E+03</pdfrwt>
<pdfrwt beam="2">  1       21 0.57776603E-01 0.18289936E+03</pdfrwt>
<totfact> 0.26295267E+04</totfact>
</mgrwt>
</event>
<event>
12    1  0.1473662E-001  0.2104577E+03  0.7546771E-02  0.1141495E+00
         21   -1    0    0  504  503  0.00000000000E+00  0.00000000000E+00  0.46824764196E+02  0.46824764196E+02  0.00000000000E+00 0.  1.
         21   -1    0    0  502  504 -0.00000000000E+00 -0.00000000000E+00 -0.10034514407E+04  0.10034514407E+04  0.00000000000E+00 0. -1.
          6    2    1    2  502    0  0.10657294171E+03  0.48547680896E+02 -0.61263039694E+03  0.64777190594E+03  0.17486500405E+03 0.  0.
         24    2    3    3    0    0  0.21890380284E+01  0.19713135635E+02 -0.41076525632E+03  0.41864518261E+03  0.78372785541E+02 0.  0.
         -6    2    1    2    0  503 -0.10657294171E+03 -0.48547680896E+02 -0.34399627958E+03  0.40250429898E+03  0.17309419720E+03 0.  0.
        -24    2    5    5    0    0 -0.10008218879E+03  0.19807037042E+02 -0.16207278573E+03  0.20799788533E+03  0.81158913214E+02 0.  0.
          2    1    4    4  501    0  0.32194697519E+02  0.12338186110E+02 -0.33574896417E+03  0.33751458683E+03  0.00000000000E+00 0. -1.
         -1    1    4    4    0  501 -0.30005659491E+02  0.73749495243E+01 -0.75016292157E+02  0.81130595776E+02  0.00000000000E+00 0.  1.
          5    1    3    3  502    0  0.10438390368E+03  0.28834545262E+02 -0.20186514062E+03  0.22912672333E+03  0.47000000000E+01 0. -1.
         11    1    6    6    0    0 -0.43525350850E+02 -0.10035364793E+02 -0.12793632480E+03  0.13550965986E+03  0.00000000000E+00 0. -1.
        -12    1    6    6    0    0 -0.56556837943E+02  0.29842401834E+02 -0.34136460934E+02  0.72488225460E+02  0.00000000000E+00 0.  1.
         -5    1    5    5    0  503 -0.64907529173E+01 -0.68354717938E+02 -0.18192349385E+03  0.19450641365E+03  0.47000000000E+01 0.  1.
<mgrwt>
<rscale>  2 0.21008947E+03</rscale>
<asrwt>0</asrwt>
<pdfrwt beam="1">  1       21 0.72038105E-02 0.21045769E+03</pdfrwt>
<pdfrwt beam="2">  1       21 0.15437713E+00 0.21045769E+03</pdfrwt>
<totfact> 0.39456032E+04</totfact>
</mgrwt>
</event>
<event>
12    1  0.1473662E-001  0.1942649E+03  0.7546771E-02  0.1155096E+00
         21   -1    0    0  504  503  0.00000000000E+00  0.00000000000E+00  0.24392376718E+03  0.24392376718E+03  0.00000000000E+00 0.  1.
         21   -1    0    0  502  504 -0.00000000000E+00 -0.00000000000E+00 -0.15836691212E+03  0.15836691212E+03  0.00000000000E+00 0.  1.
          6    2    1    2  502    0  0.19177238847E+01  0.88355036646E+02  0.65746764064E+01  0.19437615332E+03  0.17299876428E+03 0.  0.
         24    2    3    3    0    0  0.35970797030E+02  0.72322038800E+02  0.59181210908E+02  0.12952088150E+03  0.82151491061E+02 0.  0.
         -6    2    1    2    0  503 -0.19177238847E+01 -0.88355036646E+02  0.78982178655E+02  0.20791452599E+03  0.17082147232E+03 0.  0.
        -24    2    5    5    0    0  0.35453046457E+02 -0.18394370502E+02  0.91036874367E+02  0.12754988842E+03  0.79912390597E+02 0.  0.
          4    1    4    4  501    0  0.41238628072E+02  0.99535267076E+01  0.51093919135E+02  0.66409982019E+02  0.00000000000E+00 0. -1.
         -3    1    4    4    0  501 -0.52678310412E+01  0.62368512092E+02  0.80872917729E+01  0.63110899476E+02  0.00000000000E+00 0.  1.
          5    1    3    3  502    0 -0.34053073146E+02  0.16032997846E+02 -0.52606534502E+02  0.64855271820E+02  0.47000000000E+01 0. -1.
         13    1    6    6    0    0  0.43611433443E+02  0.18751417438E+02  0.31740737903E+02  0.57105579636E+02  0.00000000000E+00 0. -1.
        -14    1    6    6    0    0 -0.81583869856E+01 -0.37145787940E+02  0.59296136464E+02  0.70444308780E+02  0.00000000000E+00 0.  1.
         -5    1    5    5    0  503 -0.37370770342E+02 -0.69960666144E+02 -0.12054695712E+02  0.80364637571E+02  0.47000000000E+01 0.  1.
<mgrwt>
<rscale>  2 0.19377901E+03</rscale>
<asrwt>0</asrwt>
<pdfrwt beam="1">  1       21 0.37526733E-01 0.19426493E+03</pdfrwt>
<pdfrwt beam="2">  1       21 0.24364140E-01 0.19426493E+03</pdfrwt>
<totfact> 0.10889226E+05</totfact>
</mgrwt>
</event>
<event>
12    1  0.1473662E-001  0.2250732E+03  0.7546771E-02  0.1130458E+00
         21   -1    0    0  504  503  0.00000000000E+00  0.00000000000E+00  0.20024707478E+03  0.20024707478E+03  0.00000000000E+00 0. -1.
         21   -1    0    0  502  504 -0.00000000000E+00 -0.00000000000E+00 -0.30258649613E+03  0.30258649613E+03  0.00000000000E+00 0. -1.
          6    2    1    2  502    0 -0.85356270773E+02 -0.11398787272E+03  0.52678682512E+02  0.22954153628E+03  0.17214919459E+03 0.  0.
         24    2    3    3    0    0 -0.11907075643E+03 -0.88293400368E+02  0.72338618621E+02  0.18257904550E+03  0.78285774730E+02 0.  0.
         -6    2    1    2    0  503  0.85356270773E+02  0.11398787272E+03 -0.15501810386E+03  0.27329203463E+03  0.17429571302E+03 0.  0.
        -24    2    5    5    0    0  0.12543191622E+03  0.10219816278E+03 -0.10768271946E+03  0.20998497945E+03  0.79501531088E+02 0.  0.
          4    1    4    4  501    0 -0.11532214901E+03 -0.83472406760E+02  0.37511774295E+02  0.14722083397E+03  0.00000000000E+00 0. -1.
         -3    1    4    4    0  501 -0.37486074188E+01 -0.48209936082E+01  0.34826844325E+02  0.35358211530E+02  0.00000000000E+00 0.  1.
          5    1    3    3  502    0  0.33714485659E+02 -0.25694472355E+02 -0.19659936109E+02  0.46962490784E+02  0.47000000000E+01 0. -1.
         11    1    6    6    0    0  0.64955822335E+02  0.70802604642E+02 -0.10422530038E+03  0.14175747218E+03  0.00000000000E+00 0. -1.
        -12    1    6    6    0    0  0.60476093881E+02  0.31395558136E+02 -0.34574190730E+01  0.68227507271E+02  0.00000000000E+00 0.  1.
         -5    1    5    5    0  503 -0.40075645443E+02  0.11789709946E+02 -0.47335384404E+02  0.63307055175E+02  0.47000000000E+01 0.  1.
<mgrwt>
<rscale>  2 0.22465747E+03</rscale>
<asrwt>0</asrwt>
<pdfrwt beam="1">  1       21 0.30807242E-01 0.22507315E+03</pdfrwt>
<pdfrwt beam="2">  1       21 0.46551769E-01 0.22507315E+03</pdfrwt>
<totfact> 0.44017901E+04</totfact>
</mgrwt>
</event>
<event>
12    1  0.1473662E-001  0.2216447E+03  0.7546771E-02  0.1132919E+00
         21   -1    0    0  504  503  0.00000000000E+00  0.00000000000E+00  0.98632469863E+02  0.98632469863E+02  0.00000000000E+00 0.  1.
         21   -1    0    0  502  504 -0.00000000000E+00 -0.00000000000E+00 -0.75014036100E+03  0.75014036100E+03  0.00000000000E+00 0. -1.
          6    2    1    2  502    0 -0.13392457865E+03 -0.26203733054E+02 -0.57394563949E+03  0.61525601411E+03  0.17465376439E+03 0.  0.
         24    2    3    3    0    0 -0.89084365181E+01  0.16329776208E+02 -0.29064815801E+03  0.30265772842E+03  0.82336668534E+02 0.  0.
         -6    2    1    2    0  503  0.13392457865E+03  0.26203733054E+02 -0.77562251643E+02  0.23351681675E+03  0.17289237239E+03 0.  0.
        -24    2    5    5    0    0  0.20441479694E+02  0.20411958847E+02 -0.83370270600E+02  0.11964064943E+03  0.80800871411E+02 0.  0.
          2    1    4    4  501    0 -0.98695119972E+01 -0.17570106339E+02 -0.24480914474E+03  0.24563719843E+03  0.00000000000E+00 0. -1.
         -1    1    4    4    0  501  0.96107547909E+00  0.33899882547E+02 -0.45839013269E+02  0.57020529990E+02  0.00000000000E+00 0.  1.
          5    1    3    3  502    0 -0.12501614214E+03 -0.42533509263E+02 -0.28329748148E+03  0.31259828570E+03  0.47000000000E+01 0. -1.
         11    1    6    6    0    0  0.38665089361E+02 -0.17756897437E+02 -0.50756047447E+02  0.66230452923E+02  0.00000000000E+00 0. -1.
        -12    1    6    6    0    0 -0.18223609667E+02  0.38168856285E+02 -0.32614223153E+02  0.53410196510E+02  0.00000000000E+00 0.  1.
         -5    1    5    5    0  503  0.11348309896E+03  0.57917742067E+01  0.58080189571E+01  0.11387616731E+03  0.47000000000E+01 0.  1.
<mgrwt>
<rscale>  2 0.22129755E+03</rscale>
<asrwt>0</asrwt>
<pdfrwt beam="1">  1       21 0.15174226E-01 0.22164468E+03</pdfrwt>
<pdfrwt beam="2">  1       21 0.11540621E+00 0.22164468E+03</pdfrwt>
<totfact> 0.21940078E+04</totfact>
</mgrwt>
</event>
<event>
12    1  0.1473662E-001  0.2288410E+03  0.7546771E-02  0.1127612E+00
         21   -1    0    0  504  503  0.00000000000E+00  0.00000000000E+00  0.21093194188E+03  0.21093194188E+03  0.00000000000E+00 0. -1.
         21   -1    0    0  502  504 -0.00000000000E+00 -0.00000000000E+00 -0.33254043320E+03  0.33254043320E+03  0.00000000000E+00 0.  1.
          6    2    1    2  502    0 -0.15210263479E+02  0.14813580114E+03 -0.19844293663E+03  0.30289897460E+03  0.17376024292E+03 0.  0.
         24    2    3    3    0    0  0.21479721637E+02  0.49581729477E+02 -0.25060076965E+02  0.10006217795E+03  0.80403393333E+02 0.  0.
         -6    2    1    2    0  503  0.15210263479E+02 -0.14813580114E+03  0.76834445302E+02  0.24057340048E+03  0.17261651526E+03 0.  0.
        -24    2    5    5    0    0 -0.36153533258E+00 -0.30261574618E+02 -0.39133359737E+02  0.74418544993E+02  0.55595021256E+02 0.  0.
          4    1    4    4  501    0  0.10532058960E+02  0.65207568853E+02  0.30107336584E+01  0.66121220639E+02  0.00000000000E+00 0. -1.
         -3    1    4    4    0  501  0.10947662677E+02 -0.15625839376E+02 -0.28070810623E+02  0.33940957313E+02  0.00000000000E+00 0.  1.
          5    1    3    3  502    0 -0.36689985116E+02  0.98554071668E+02 -0.17338285966E+03  0.20283679665E+03  0.47000000000E+01 0. -1.
         13    1    6    6    0    0 -0.11420621167E+02 -0.10014358735E+02  0.11318048743E+02  0.18942444300E+02  0.00000000000E+00 0. -1.
        -14    1    6    6    0    0  0.11059085834E+02 -0.20247215883E+02 -0.50451408480E+02  0.55476100693E+02  0.00000000000E+00 0.  1.
         -5    1    5    5    0  503  0.15571798812E+02 -0.11787422653E+03  0.11596780504E+03  0.16615485549E+03  0.47000000000E+01 0.  1.
<mgrwt>
<rscale>  2 0.22862386E+03</rscale>
<asrwt>0</asrwt>
<pdfrwt beam="1">  1       21 0.32451068E-01 0.22884097E+03</pdfrwt>
<pdfrwt beam="2">  1       21 0.51160066E-01 0.22884097E+03</pdfrwt>
<totfact> 0.32575894E+04</totfact>
</mgrwt>
</event>
<event>
12    1  0.1473662E-001  0.1762716E+03  0.7546771E-02  0.1171533E+00
         21   -1    0    0  504  503  0.00000000000E+00  0.00000000000E+00  0.12356713156E+03  0.12356713156E+03  0.00000000000E+00 0.  1.
         21   -1    0    0  502  504 -0.00000000000E+00 -0.00000000000E+00 -0.41460226148E+03  0.41460226148E+03  0.00000000000E+00 0.  1.
          6    2    1    2  502    0  0.20892382133E+00 -0.31913086878E+02 -0.31460045080E+03  0.36061769873E+03  0.17335856550E+03 0.  0.
         24    2    3    3    0    0 -0.69620195981E+02 -0.14174983653E+02 -0.19812453357E+03  0.22357947205E+03  0.75409201483E+02 0.  0.
         -6    2    1    2    0  503 -0.20892382133E+00  0.31913086878E+02  0.23565320887E+02  0.17755169431E+03  0.17306296843E+03 0.  0.
        -24    2    5    5    0    0 -0.28928956687E+02 -0.39749132244E+02 -0.58378706443E+01  0.94805385572E+02  0.80852349073E+02 0.  0.
          2    1    4    4  501    0 -0.69833045634E+02  0.12816367049E+02 -0.10599202900E+03  0.12757438512E+03  0.00000000000E+00 0. -1.
         -1    1    4    4    0  501  0.21284965278E+00 -0.26991350702E+02 -0.92132504574E+02  0.96005086931E+02  0.00000000000E+00 0.  1.
          5    1    3    3  502    0  0.69829119802E+02 -0.17738103225E+02 -0.11647591723E+03  0.13703822668E+03  0.47000000000E+01 0. -1.
         11    1    6    6    0    0 -0.48010319141E+02 -0.92077672662E+01 -0.24015313596E+02  0.54465668170E+02  0.00000000000E+00 0. -1.
        -12    1    6    6    0    0  0.19081362455E+02 -0.30541364978E+02  0.18177442951E+02  0.40339717402E+02  0.00000000000E+00 0.  1.
         -5    1    5    5    0  503  0.28720032865E+02  0.71662219122E+02  0.29403191532E+02  0.82746308737E+02  0.47000000000E+01 0.  1.
<mgrwt>
<rscale>  2 0.17619889E+03</rscale>
<asrwt>0</asrwt>
<pdfrwt beam="1">  1       21 0.19010328E-01 0.17627161E+03</pdfrwt>
<pdfrwt beam="2">  1       21 0.63784964E-01 0.17627161E+03</pdfrwt>
<totfact> 0.58049345E+04</totfact>
</mgrwt>
</event>
<event>
12    1  0.1473662E-001  0.2413472E+03  0.7546771E-02  0.1119026E+00
         21   -1    0    0  504  503  0.00000000000E+00  0.00000000000E+00  0.81512225056E+02  0.81512225056E+02  0.00000000000E+00 0.  1.
         21   -1    0    0  502  504 -0.00000000000E+00 -0.00000000000E+00 -0.71646144476E+03  0.71646144476E+03  0.00000000000E+00 0. -1.
          6    2    1    2  502    0  0.59006644240E+02 -0.15565273281E+03 -0.28666592221E+03  0.37424061070E+03  0.17369262059E+03 0.  0.
         24    2    3    3    0    0  0.55770816765E+02 -0.45755986524E+02 -0.21974353063E+03  0.24544440766E+03  0.82168994707E+02 0.  0.
         -6    2    1    2    0  503 -0.59006644240E+02  0.15565273281E+03 -0.34828329750E+03  0.42373305912E+03  0.17475380618E+03 0.  0.
        -24    2    5    5    0    0 -0.48644078124E+01  0.16126154828E+03 -0.22431629119E+03  0.28826074006E+03  0.82143206372E+02 0.  0.
          2    1    4    4  501    0  0.52705658719E+02 -0.66454526781E+02 -0.14661645412E+03  0.16938262959E+03  0.00000000000E+00 0. -1.
         -1    1    4    4    0  501  0.30651580453E+01  0.20698540257E+02 -0.73127076518E+02  0.76061778067E+02  0.00000000000E+00 0.  1.
          5    1    3    3  502    0  0.32358274753E+01 -0.10989674629E+03 -0.66922391571E+02  0.12879620304E+03  0.47000000000E+01 0. -1.
         13    1    6    6    0    0 -0.10892937627E+02  0.12898178892E+03 -0.21984326540E+03  0.25511961764E+03  0.00000000000E+00 0. -1.
        -14    1    6    6    0    0  0.60285298151E+01  0.32279759355E+02 -0.44730257903E+01  0.33141122423E+02  0.00000000000E+00 0.  1.
         -5    1    5    5    0  503 -0.54142236428E+02 -0.56088154643E+01 -0.12396700631E+03  0.13547231906E+03  0.47000000000E+01 0.  1.
<mgrwt>
<rscale>  2 0.24115511E+03</rscale>
<asrwt>0</asrwt>
<pdfrwt beam="1">  1       21 0.12540343E-01 0.24134716E+03</pdfrwt>
<pdfrwt beam="2">  1       21 0.11022483E+00 0.24134716E+03</pdfrwt>
<totfact> 0.34353556E+04</totfact>
</mgrwt>
</event>
<event>
12    1  0.1473662E-001  0.2036359E+03  0.7546771E-02  0.1147566E+00
         21   -1    0    0  504  503  0.00000000000E+00  0.00000000000E+00  0.75952900162E+02  0.75952900162E+02  0.00000000000E+00 0.  1.
         21   -1    0    0  502  504 -0.00000000000E+00 -0.00000000000E+00 -0.53719681344E+03  0.53719681344E+03  0.00000000000E+00 0. -1.
          6    2    1    2  502    0  0.10085455958E+03 -0.21058709391E+02 -0.24802446613E+03  0.31831055478E+03  0.17085187167E+03 0.  0.
         24    2    3    3    0    0  0.10749447995E+03 -0.61308169045E+02 -0.14318450622E+03  0.20571564042E+03  0.80643456524E+02 0.  0.
         -6    2    1    2    0  503 -0.10085455958E+03  0.21058709391E+02 -0.21321944715E+03  0.29483915882E+03  0.17564875606E+03 0.  0.
        -24    2    5    5    0    0 -0.17545100418E+02 -0.35620971331E+02 -0.45003102460E+02  0.98696657533E+02  0.78352197352E+02 0.  0.
          4    1    4    4  501    0 -0.77860882735E+01 -0.22331623125E+02 -0.11121803439E+02  0.26134633606E+02  0.00000000000E+00 0. -1.
         -3    1    4    4    0  501  0.11528056823E+03 -0.38976545920E+02 -0.13206270278E+03  0.17958100682E+03  0.00000000000E+00 0.  1.
          5    1    3    3  502    0 -0.66399203690E+01  0.40249459654E+02 -0.10483995991E+03  0.11259491436E+03  0.47000000000E+01 0. -1.
         13    1    6    6    0    0  0.10458682781E+02 -0.16944981580E+02 -0.58979437988E+02  0.62250225314E+02  0.00000000000E+00 0. -1.
        -14    1    6    6    0    0 -0.28003783200E+02 -0.18675989751E+02  0.13976335528E+02  0.36446432218E+02  0.00000000000E+00 0.  1.
         -5    1    5    5    0  503 -0.83309459166E+02  0.56679680721E+02 -0.16821634468E+03  0.19614250129E+03  0.47000000000E+01 0.  1.
<mgrwt>
<rscale>  2 0.20259731E+03</rscale>
<asrwt>0</asrwt>
<pdfrwt beam="1">  1       21 0.11685061E-01 0.20363594E+03</pdfrwt>
<pdfrwt beam="2">  1       21 0.82645665E-01 0.20363594E+03</pdfrwt>
<totfact> 0.78232411E+04</totfact>
</mgrwt>
</event>
<event>
12    1  0.1473662E-001  0.1761401E+03  0.7546771E-02  0.1171793E+00
         21   -1    0    0  504  503  0.00000000000E+00  0.00000000000E+00  0.30543185554E+03  0.30543185554E+03  0.00000000000E+00 0.  1.
         21   -1    0    0  502  504 -0.00000000000E+00 -0.00000000000E+00 -0.10128302213E+03  0.10128302213E+03  0.00000000000E+00 0.  1.
          6    2    1    2  502    0  0.42001069037E+01  0.29356079761E+02  0.93555770298E+02  0.19873369320E+03  0.17280908061E+03 0.  0.
         24    2    3    3    0    0 -0.21473388356E+02 -0.36939283914E+02  0.19030103960E+02  0.95630014572E+02  0.83410657154E+02 0.  0.
         -6    2    1    2    0  503 -0.42001069037E+01 -0.29356079761E+02  0.11059306311E+03  0.20798118447E+03  0.17362582518E+03 0.  0.
        -24    2    5    5    0    0  0.10164481237E+02  0.40842524645E+02  0.22352610124E+02  0.94215403167E+02  0.81274070382E+02 0.  0.
          4    1    4    4  501    0 -0.41321232824E+02 -0.40493813617E+02  0.36955475778E+02  0.68650567465E+02  0.00000000000E+00 0. -1.
         -3    1    4    4    0  501  0.19847844468E+02  0.35545297034E+01 -0.17925371818E+02  0.26979447107E+02  0.00000000000E+00 0.  1.
          5    1    3    3  502    0  0.25673495260E+02  0.66295363674E+02  0.74525666338E+02  0.10310367863E+03  0.47000000000E+01 0. -1.
         13    1    6    6    0    0 -0.25798864787E+02  0.41227834174E+02  0.30408978096E+02  0.57358710619E+02  0.00000000000E+00 0. -1.
        -14    1    6    6    0    0  0.35963346024E+02 -0.38530952922E+00 -0.80563679724E+01  0.36856692548E+02  0.00000000000E+00 0.  1.
         -5    1    5    5    0  503 -0.14364588141E+02 -0.70198604405E+02  0.88240452987E+02  0.11376578131E+03  0.47000000000E+01 0.  1.
<mgrwt>
<rscale>  2 0.17593853E+03</rscale>
<asrwt>0</asrwt>
<pdfrwt beam="1">  1       21 0.46989516E-01 0.17614014E+03</pdfrwt>
<pdfrwt beam="2">  1       21 0.15582004E-01 0.17614014E+03</pdfrwt>
<totfact> 0.15947303E+05</totfact>
</mgrwt>
</event>
<event>
12    1  0.1473662E-001  0.1764471E+03  0.7546771E-02  0.1171886E+00
         21   -1    0    0  504  503  0.00000000000E+00  0.00000000000E+00  0.20377307087E+02  0.20377307087E+02  0.00000000000E+00 0.  1.
         21   -1    0    0  502  504 -0.00000000000E+00 -0.00000000000E+00 -0.15172352429E+04  0.15172352429E+04  0.00000000000E+00 0.  1.
          6    2    1    2  502    0 -0.31415492325E+02  0.19807685225E+01 -0.81611018085E+03  0.83496671384E+03  0.17361661595E+03 0.  0.
         24    2    3    3    0    0 -0.17763246236E+02 -0.41889609484E+02 -0.73819435175E+03  0.74439099793E+03  0.84361036824E+02 0.  0.
         -6    2    1    2    0  503  0.31415492325E+02 -0.19807685225E+01 -0.68074775496E+03  0.70264583614E+03  0.17118063139E+03 0.  0.
        -24    2    5    5    0    0  0.24996724960E+02  0.60353852796E+02 -0.51974533922E+03  0.52981449216E+03  0.79377293057E+02 0.  0.
          4    1    4    4  501    0  0.26614494379E+02 -0.35289613263E+01 -0.41845430675E+03  0.41931466909E+03  0.00000000000E+00 0. -1.
         -3    1    4    4    0  501 -0.44377740614E+02 -0.38360648157E+02 -0.31974004500E+03  0.32507632883E+03  0.00000000000E+00 0.  1.
          5    1    3    3  502    0 -0.13652246089E+02  0.43870378006E+02 -0.77915829101E+02  0.90575715919E+02  0.47000000000E+01 0. -1.
         13    1    6    6    0    0 -0.14928459840E+02 -0.11925444428E+02 -0.13188665042E+03  0.13326351225E+03  0.00000000000E+00 0. -1.
        -14    1    6    6    0    0  0.39925184800E+02  0.72279297224E+02 -0.38785868880E+03  0.39655097991E+03  0.00000000000E+00 0.  1.
         -5    1    5    5    0  503  0.64187673648E+01 -0.62334621319E+02 -0.16100241573E+03  0.17283134398E+03  0.47000000000E+01 0.  1.
<mgrwt>
<rscale>  2 0.17584495E+03</rscale>
<asrwt>0</asrwt>
<pdfrwt beam="1">  1       21 0.31349698E-02 0.17644712E+03</pdfrwt>
<pdfrwt beam="2">  1       21 0.23342085E+00 0.17644712E+03</pdfrwt>
<totfact> 0.49660776E+04</totfact>
</mgrwt>
</event>
<event>
12    1  0.1473662E-001  0.2104005E+03  0.7546771E-02  0.1141381E+00
         21   -1    0    0  504  503  0.00000000000E+00  0.00000000000E+00  0.30587786411E+02  0.30587786411E+02  0.00000000000E+00 0.  1.
         21   -1    0    0  502  504 -0.00000000000E+00 -0.00000000000E+00 -0.29546211683E+04  0.29546211683E+04  0.00000000000E+00 0.  1.
          6    2    1    2  502    0  0.10741404498E+03  0.53601538024E+02 -0.25308746480E+04  0.25396052521E+04  0.17279308519E+03 0.  0.
         24    2    3    3    0    0  0.82327699444E+02  0.10340246071E+03 -0.18895603397E+04  0.18958540666E+04  0.79714777288E+02 0.  0.
         -6    2    1    2    0  503 -0.10741404498E+03 -0.53601538024E+02 -0.39315873382E+03  0.44560370262E+03  0.17198246384E+03 0.  0.
        -24    2    5    5    0    0 -0.12395850750E+03 -0.65409992020E+02 -0.23212632333E+03  0.28322548346E+03  0.81791600211E+02 0.  0.
          2    1    4    4  501    0  0.29472665921E+02  0.45857893989E+02 -0.12995163233E+04  0.13006591632E+04  0.00000000000E+00 0. -1.
         -1    1    4    4    0  501  0.52855033523E+02  0.57544566722E+02 -0.59004401639E+03  0.59519490338E+03  0.00000000000E+00 0.  1.
          5    1    3    3  502    0  0.25086345538E+02 -0.49800922687E+02 -0.64131430838E+03  0.64375118545E+03  0.47000000000E+01 0. -1.
         11    1    6    6    0    0 -0.47948723028E+01 -0.51742064464E+01  0.66226382672E+01  0.96758746565E+01  0.00000000000E+00 0. -1.
        -12    1    6    6    0    0 -0.11916363520E+03 -0.60235785574E+02 -0.23874896159E+03  0.27354960881E+03  0.00000000000E+00 0.  1.
         -5    1    5    5    0  503  0.16544462517E+02  0.11808453996E+02 -0.16103241050E+03  0.16237821916E+03  0.47000000000E+01 0.  1.
<mgrwt>
<rscale>  2 0.21023395E+03</rscale>
<asrwt>0</asrwt>
<pdfrwt beam="1">  1       21 0.47058119E-02 0.21040046E+03</pdfrwt>
<pdfrwt beam="2">  1       21 0.45455724E+00 0.21040046E+03</pdfrwt>
<totfact> 0.11260771E+03</totfact>
</mgrwt>
</event>
<event>
12    1  0.1473662E-001  0.1987925E+03  0.7546771E-02  0.1154712E+00
         21   -1    0    0  504  503  0.00000000000E+00  0.00000000000E+00  0.73758161583E+03  0.73758161583E+03  0.00000000000E+00 0. -1.
         21   -1    0    0  502  504 -0.00000000000E+00 -0.00000000000E+00 -0.73877705193E+02  0.73877705193E+02  0.00000000000E+00 0. -1.
          6    2    1    2  502    0 -0.75648441579E+01  0.87773835582E+02  0.10642412985E+03  0.22548732690E+03  0.17820484308E+03 0.  0.
         24    2    3    3    0    0  0.48074287569E+02  0.53704008627E+01  0.53051568969E+02  0.11254150233E+03  0.86666847441E+02 0.  0.
         -6    2    1    2    0  503  0.75648441579E+01 -0.87773835582E+02  0.55727978079E+03  0.58597199413E+03  0.15824332764E+03 0.  0.
        -24    2    5    5    0    0 -0.15030651664E+02 -0.70306346690E+02  0.21744251419E+03  0.24490436539E+03  0.86764038273E+02 0.  0.
          2    1    4    4  501    0  0.25170111719E+02  0.44527299109E+02  0.14920575655E+02  0.53280751381E+02  0.00000000000E+00 0. -1.
         -1    1    4    4    0  501  0.22904175850E+02 -0.39156898246E+02  0.38130993313E+02  0.59260750946E+02  0.00000000000E+00 0.  1.
          5    1    3    3  502    0 -0.55639131727E+02  0.82403434719E+02  0.53372560881E+02  0.11294582457E+03  0.47000000000E+01 0. -1.
         11    1    6    6    0    0 -0.20251530823E+02 -0.11522795955E+01  0.42622199858E+01  0.20727246999E+02  0.00000000000E+00 0. -1.
        -12    1    6    6    0    0  0.52208791591E+01 -0.69154067094E+02  0.21318029420E+03  0.22417711840E+03  0.00000000000E+00 0.  1.
         -5    1    5    5    0  503  0.22595495822E+02 -0.17467488892E+02  0.33983726660E+03  0.34106762873E+03  0.47000000000E+01 0.  1.
<mgrwt>
<rscale>  2 0.19421741E+03</rscale>
<asrwt>0</asrwt>
<pdfrwt beam="1">  1       21 0.11347409E+00 0.19879245E+03</pdfrwt>
<pdfrwt beam="2">  1       21 0.11365801E-01 0.19879245E+03</pdfrwt>
<totfact> 0.39025667E+04</totfact>
</mgrwt>
</event>
<event>
12    1  0.1473662E-001  0.1731861E+03  0.7546771E-02  0.1174688E+00
         21   -1    0    0  504  503  0.00000000000E+00  0.00000000000E+00  0.47167393810E+02  0.47167393810E+02  0.00000000000E+00 0. -1.
         21   -1    0    0  502  504 -0.00000000000E+00 -0.00000000000E+00 -0.73186924349E+03  0.73186924349E+03  0.00000000000E+00 0. -1.
          6    2    1    2  502    0 -0.74305998607E+01  0.62424066633E+01 -0.48428253257E+03  0.51415680539E+03  0.17243395178E+03 0.  0.
         24    2    3    3    0    0  0.23382224720E+02 -0.55074658174E+02 -0.32717093168E+03  0.34264774518E+03  0.82381504837E+02 0.  0.
         -6    2    1    2    0  503  0.74305998607E+01 -0.62424066633E+01 -0.20041931711E+03  0.26487983191E+03  0.17291397059E+03 0.  0.
        -24    2    5    5    0    0  0.61351538583E+02  0.63186356886E+01 -0.80639236650E+02  0.13283966721E+03  0.85672365754E+02 0.  0.
          4    1    4    4  501    0  0.16304737541E+02 -0.70835290536E+02 -0.30955185813E+03  0.31797143853E+03  0.00000000000E+00 0. -1.
         -3    1    4    4    0  501  0.70774871788E+01  0.15760632362E+02 -0.17619073547E+02  0.24676306650E+02  0.00000000000E+00 0.  1.
          5    1    3    3  502    0 -0.30812824580E+02  0.61317064838E+02 -0.15711160089E+03  0.17150906021E+03  0.47000000000E+01 0. -1.
         11    1    6    6    0    0  0.65078237982E+02  0.12252839430E+01 -0.96141008472E+02  0.11610241983E+03  0.00000000000E+00 0. -1.
        -12    1    6    6    0    0 -0.37266993989E+01  0.50933517456E+01  0.15501771822E+02  0.16737247385E+02  0.00000000000E+00 0.  1.
         -5    1    5    5    0  503 -0.53920938722E+02 -0.12561042352E+02 -0.11978008046E+03  0.13204016469E+03  0.47000000000E+01 0.  1.
<mgrwt>
<rscale>  2 0.17306615E+03</rscale>
<asrwt>0</asrwt>
<pdfrwt beam="1">  1       21 0.72565222E-02 0.17318609E+03</pdfrwt>
<pdfrwt beam="2">  1       21 0.11259527E+00 0.17318609E+03</pdfrwt>
<totfact> 0.88493674E+04</totfact>
</mgrwt>
</event>
<event>
12    1  0.1473662E-001  0.1814149E+03  0.7546771E-02  0.1166901E+00
         21   -1    0    0  504  503  0.00000000000E+00  0.00000000000E+00  0.44249891183E+02  0.44249891183E+02  0.00000000000E+00 0.  1.
         21   -1    0    0  502  504 -0.00000000000E+00 -0.00000000000E+00 -0.93444383135E+03  0.93444383135E+03  0.00000000000E+00 0.  1.
          6    2    1    2  502    0 -0.30310375912E+02  0.38088833297E+02 -0.67248990372E+03  0.69652999370E+03  0.17476236268E+03 0.  0.
         24    2    3    3    0    0 -0.37867319268E-02  0.80919452093E+02 -0.56843443905E+03  0.57989989046E+03  0.81352404494E+02 0.  0.
         -6    2    1    2    0  503  0.30310375912E+02 -0.38088833297E+02 -0.21770403645E+03  0.28216372883E+03  0.17277686267E+03 0.  0.
        -24    2    5    5    0    0 -0.25815476974E+02 -0.73885403310E+02 -0.12775693004E+03  0.17016338179E+03  0.80673735842E+02 0.  0.
          4    1    4    4  501    0  0.36275545474E+02  0.56455243561E+02 -0.26687981579E+03  0.27518711053E+03  0.00000000000E+00 0. -1.
         -3    1    4    4    0  501 -0.36279332206E+02  0.24464208532E+02 -0.30155462326E+03  0.30471277994E+03  0.00000000000E+00 0.  1.
          5    1    3    3  502    0 -0.30306589180E+02 -0.42830618796E+02 -0.10405546467E+03  0.11663010324E+03  0.47000000000E+01 0. -1.
         11    1    6    6    0    0 -0.48562076916E+02 -0.70016739304E+02 -0.78883779281E+02  0.11611748245E+03  0.00000000000E+00 0. -1.
        -12    1    6    6    0    0  0.22746599942E+02 -0.38686640064E+01 -0.48873150757E+02  0.54045899335E+02  0.00000000000E+00 0.  1.
         -5    1    5    5    0  503  0.56125852887E+02  0.35796570013E+02 -0.89947106411E+02  0.11200034705E+03  0.47000000000E+01 0.  1.
<mgrwt>
<rscale>  2 0.18093501E+03</rscale>
<asrwt>0</asrwt>
<pdfrwt beam="1">  1       21 0.68076766E-02 0.18141489E+03</pdfrwt>
<pdfrwt beam="2">  1       21 0.14376057E+00 0.18141489E+03</pdfrwt>
<totfact> 0.53344652E+04</totfact>
</mgrwt>
</event>
<event>
12    1  0.1473662E-001  0.1967724E+03  0.7546771E-02  0.1155576E+00
         21   -1    0    0  504  503  0.00000000000E+00  0.00000000000E+00  0.10614452698E+03  0.10614452698E+03  0.00000000000E+00 0.  1.
         21   -1    0    0  502  504 -0.00000000000E+00 -0.00000000000E+00 -0.44555581660E+03  0.44555581660E+03  0.00000000000E+00 0.  1.
          6    2    1    2  502    0  0.34680091984E+02 -0.46948426429E+02 -0.29940593038E+03  0.35090244690E+03  0.17344091954E+03 0.  0.
         24    2    3    3    0    0  0.36369002484E+02 -0.84145611140E+02 -0.28592186421E+03  0.31102271509E+03  0.81121074037E+02 0.  0.
         -6    2    1    2    0  503 -0.34680091984E+02  0.46948426429E+02 -0.40005359241E+02  0.20079789667E+03  0.18791621276E+03 0.  0.
        -24    2    5    5    0    0  0.37289940987E+02 -0.28118500843E+02 -0.16506398383E+02  0.94078543334E+02  0.79982006351E+02 0.  0.
          4    1    4    4  501    0  0.48265368295E+01 -0.83845316248E+02 -0.15431642641E+03  0.17568976058E+03  0.00000000000E+00 0. -1.
         -3    1    4    4    0  501  0.31542465655E+02 -0.30029489243E+00 -0.13160543780E+03  0.13533295450E+03  0.00000000000E+00 0.  1.
          5    1    3    3  502    0 -0.16889105007E+01  0.37197184711E+02 -0.13484066171E+02  0.39879731814E+02  0.47000000000E+01 0. -1.
         11    1    6    6    0    0  0.30808875253E+02  0.24648597882E+02 -0.70226340162E+01  0.40075647973E+02  0.00000000000E+00 0. -1.
        -12    1    6    6    0    0  0.64810657336E+01 -0.52767098725E+02 -0.94837643670E+01  0.54002895362E+02  0.00000000000E+00 0.  1.
         -5    1    5    5    0  503 -0.71970032971E+02  0.75066927272E+02 -0.23498960858E+02  0.10671935334E+03  0.47000000000E+01 0.  1.
<mgrwt>
<rscale>  2 0.19323476E+03</rscale>
<asrwt>0</asrwt>
<pdfrwt beam="1">  1       21 0.16329928E-01 0.19677237E+03</pdfrwt>
<pdfrwt beam="2">  1       21 0.68547047E-01 0.19677237E+03</pdfrwt>
<totfact> 0.65053700E+04</totfact>
</mgrwt>
</event>
<event>
12    1  0.1473662E-001  0.2071596E+03  0.7546771E-02  0.1143860E+00
         21   -1    0    0  504  503  0.00000000000E+00  0.00000000000E+00  0.11039384585E+03  0.11039384585E+03  0.00000000000E+00 0. -1.
         21   -1    0    0  502  504 -0.00000000000E+00 -0.00000000000E+00 -0.52022302597E+03  0.52022302597E+03  0.00000000000E+00 0. -1.
          6    2    1    2  502    0 -0.10095589350E+03  0.52746704919E+02 -0.36361246928E+03  0.41848433450E+03  0.17303410964E+03 0.  0.
         24    2    3    3    0    0 -0.68011271242E+01  0.49776384826E+02 -0.95612132809E+02  0.13437130562E+03  0.79937625798E+02 0.  0.
         -6    2    1    2    0  503  0.10095589350E+03 -0.52746704919E+02 -0.46216710841E+02  0.21213253732E+03  0.17288702009E+03 0.  0.
        -24    2    5    5    0    0  0.11776009600E+03 -0.22698965794E+02 -0.79185102772E+02  0.16423417916E+03  0.79497810315E+02 0.  0.
          4    1    4    4  501    0  0.33936052914E+02  0.98982018692E+01 -0.50654577000E+02  0.61769865296E+02  0.00000000000E+00 0. -1.
         -3    1    4    4    0  501 -0.40737180038E+02  0.39878182957E+02 -0.44957555809E+02  0.72601440328E+02  0.00000000000E+00 0.  1.
          5    1    3    3  502    0 -0.94154766376E+02  0.29703200928E+01 -0.26800033647E+03  0.28411302888E+03  0.47000000000E+01 0. -1.
         11    1    6    6    0    0  0.11300649372E+02 -0.34689747871E+02 -0.24546946591E+02  0.43973126686E+02  0.00000000000E+00 0. -1.
        -12    1    6    6    0    0  0.10645944662E+03  0.11990782077E+02 -0.54638156181E+02  0.12026105247E+03  0.00000000000E+00 0.  1.
         -5    1    5    5    0  503 -0.16804202496E+02 -0.30047739125E+02  0.32968391931E+02  0.47898358162E+02  0.47000000000E+01 0.  1.
<mgrwt>
<rscale>  2 0.20712891E+03</rscale>
<asrwt>0</asrwt>
<pdfrwt beam="1">  1       21 0.16983668E-01 0.20715963E+03</pdfrwt>
<pdfrwt beam="2">  1       21 0.80034313E-01 0.20715963E+03</pdfrwt>
<totfact> 0.42621045E+04</totfact>
</mgrwt>
</event>
<event>
12    1  0.1473662E-001  0.3658805E+03  0.7546771E-02  0.1056294E+00
         21   -1    0    0  504  503  0.00000000000E+00  0.00000000000E+00  0.32627616180E+03  0.32627616180E+03  0.00000000000E+00 0.  1.
         21   -1    0    0  502  504 -0.00000000000E+00 -0.00000000000E+00 -0.61981325330E+03  0.61981325330E+03  0.00000000000E+00 0. -1.
          6    2    1    2  502    0  0.20173797376E+03 -0.25156927730E+03  0.12835593577E+03  0.38774192723E+03  0.17286770822E+03 0.  0.
         24    2    3    3    0    0  0.48063814406E+02 -0.41351700209E+02  0.57693637408E+02  0.11788561846E+03  0.80921998724E+02 0.  0.
         -6    2    1    2    0  503 -0.20173797376E+03  0.25156927730E+03 -0.42189302727E+03  0.55834748787E+03  0.17254819446E+03 0.  0.
        -24    2    5    5    0    0 -0.32330909515E+02  0.12099559896E+03 -0.13645089448E+03  0.20162975623E+03  0.79689957441E+02 0.  0.
          2    1    4    4  501    0 -0.41374960624E+01 -0.25433116624E+02 -0.12770867454E+02  0.28758604806E+02  0.00000000000E+00 0. -1.
         -1    1    4    4    0  501  0.52201310469E+02 -0.15918583585E+02  0.70464504862E+02  0.89127013657E+02  0.00000000000E+00 0.  1.
          5    1    3    3  502    0  0.15367415935E+03 -0.21021757709E+03  0.70662298364E+02  0.26985630877E+03  0.47000000000E+01 0. -1.
         11    1    6    6    0    0 -0.40655939988E+02  0.78285979281E+02 -0.13077790377E+03  0.15774809071E+03  0.00000000000E+00 0. -1.
        -12    1    6    6    0    0  0.83250304730E+01  0.42709619674E+02 -0.56729907069E+01  0.43881665518E+02  0.00000000000E+00 0.  1.
         -5    1    5    5    0  503 -0.16940706425E+03  0.13057367834E+03 -0.28544213279E+03  0.35671773164E+03  0.47000000000E+01 0.  1.
<mgrwt>
<rscale>  2 0.36584280E+03</rscale>
<asrwt>0</asrwt>
<pdfrwt beam="1">  1       21 0.50196333E-01 0.36588052E+03</pdfrwt>
<pdfrwt beam="2">  1       21 0.95355884E-01 0.36588052E+03</pdfrwt>
<totfact> 0.31217696E+03</totfact>
</mgrwt>
</event>
<event>
12    1  0.1473662E-001  0.1993636E+03  0.7546771E-02  0.1150572E+00
         21   -1    0    0  504  503  0.00000000000E+00  0.00000000000E+00  0.63612992027E+03  0.63612992027E+03  0.00000000000E+00 0.  1.
         21   -1    0    0  502  504 -0.00000000000E+00 -0.00000000000E+00 -0.11564986053E+03  0.11564986053E+03  0.00000000000E+00 0.  1.
          6    2    1    2  502    0 -0.86552968240E+02  0.37851450890E+02  0.38479025186E+01  0.19801571406E+03  0.17398640182E+03 0.  0.
         24    2    3    3    0    0 -0.10234865184E+03  0.39583683164E+02  0.53694406927E+02  0.14548697668E+03  0.79001623662E+02 0.  0.
         -6    2    1    2    0  503  0.86552968240E+02 -0.37851450890E+02  0.51663215722E+03  0.55376406674E+03  0.17556112067E+03 0.  0.
        -24    2    5    5    0    0  0.49554578893E+02 -0.23394111999E+02  0.50163399251E+03  0.51104486255E+03  0.80791387730E+02 0.  0.
          4    1    4    4  501    0 -0.54802088622E+02  0.58022377990E+02  0.14382797776E+02  0.81097041480E+02  0.00000000000E+00 0. -1.
         -3    1    4    4    0  501 -0.47546563222E+02 -0.18438694826E+02  0.39311609151E+02  0.64389935201E+02  0.00000000000E+00 0.  1.
          5    1    3    3  502    0  0.15795683605E+02 -0.17322322745E+01 -0.49846504408E+02  0.52528737382E+02  0.47000000000E+01 0. -1.
         11    1    6    6    0    0 -0.16314629468E+02 -0.94153597651E+01  0.36617155093E+02  0.41178054608E+02  0.00000000000E+00 0. -1.
        -12    1    6    6    0    0  0.65869208361E+02 -0.13978752234E+02  0.46501683741E+03  0.46986680794E+03  0.00000000000E+00 0.  1.
         -5    1    5    5    0  503  0.36998389347E+02 -0.14457338890E+02  0.14998164716E+02  0.42719204193E+02  0.47000000000E+01 0.  1.
<mgrwt>
<rscale>  2 0.19901640E+03</rscale>
<asrwt>0</asrwt>
<pdfrwt beam="1">  1       21 0.97866139E-01 0.19936363E+03</pdfrwt>
<pdfrwt beam="2">  1       21 0.17792287E-01 0.19936363E+03</pdfrwt>
<totfact> 0.24681035E+04</totfact>
</mgrwt>
</event>
<event>
12    1  0.1473662E-001  0.1801115E+03  0.7546771E-02  0.1168321E+00
         21   -1    0    0  504  503  0.00000000000E+00  0.00000000000E+00  0.25089808261E+04  0.25089808261E+04  0.00000000000E+00 0.  1.
         21   -1    0    0  502  504 -0.00000000000E+00 -0.00000000000E+00 -0.24734500580E+02  0.24734500580E+02  0.00000000000E+00 0.  1.
          6    2    1    2  502    0 -0.25082332488E+02 -0.37871613805E+02  0.36474720518E+03  0.40679316045E+03  0.17428932602E+03 0.  0.
         24    2    3    3    0    0  0.53551506249E+02 -0.35223282485E+02  0.21218566351E+03  0.23507417999E+03  0.78285827887E+02 0.  0.
         -6    2    1    2    0  503  0.25082332488E+02  0.37871613805E+02  0.21194991203E+04  0.21269221662E+04  0.17163332296E+03 0.  0.
        -24    2    5    5    0    0 -0.77943026747E+01  0.45906745663E+02  0.20116384556E+04  0.20137786755E+04  0.80293820661E+02 0.  0.
          4    1    4    4  501    0  0.93571049878E+01 -0.48657785745E+02  0.14741856286E+03  0.15552288643E+03  0.00000000000E+00 0. -1.
         -3    1    4    4    0  501  0.44194401261E+02  0.13434503260E+02  0.64767100654E+02  0.79551293564E+02  0.00000000000E+00 0.  1.
          5    1    3    3  502    0 -0.78633838736E+02 -0.26483313203E+01  0.15256154167E+03  0.17171898046E+03  0.47000000000E+01 0. -1.
         13    1    6    6    0    0  0.70294175492E+00  0.28770899172E+02  0.20207087131E+03  0.20411000906E+03  0.00000000000E+00 0. -1.
        -14    1    6    6    0    0 -0.84972444297E+01  0.17135846491E+02  0.18095675842E+04  0.18096686665E+04  0.00000000000E+00 0.  1.
         -5    1    5    5    0  503  0.32876635163E+02 -0.80351318573E+01  0.10786066475E+03  0.11314349069E+03  0.47000000000E+01 0.  1.
<mgrwt>
<rscale>  2 0.17946581E+03</rscale>
<asrwt>0</asrwt>
<pdfrwt beam="1">  1       21 0.38599685E+00 0.18011150E+03</pdfrwt>
<pdfrwt beam="2">  1       21 0.38053098E-02 0.18011150E+03</pdfrwt>
<totfact> 0.46090152E+03</totfact>
</mgrwt>
</event>
<event>
12    1  0.1473662E-001  0.1868644E+03  0.7546771E-02  0.1166880E+00
         21   -1    0    0  504  503  0.00000000000E+00  0.00000000000E+00  0.68258553872E+03  0.68258553872E+03  0.00000000000E+00 0.  1.
         21   -1    0    0  502  504 -0.00000000000E+00 -0.00000000000E+00 -0.45901756717E+02  0.45901756717E+02  0.00000000000E+00 0.  1.
          6    2    1    2  502    0  0.24473531564E+02  0.60283002095E+02  0.25244495186E+03  0.30121950171E+03  0.15090308281E+03 0.  0.
         24    2    3    3    0    0 -0.12586463921E+02  0.83710549997E+02  0.22314732427E+03  0.24827864557E+03  0.68422819768E+02 0.  0.
         -6    2    1    2    0  503 -0.24473531564E+02 -0.60283002095E+02  0.38423883014E+03  0.42726779372E+03  0.17517218637E+03 0.  0.
        -24    2    5    5    0    0 -0.49893794755E+02 -0.24174437738E+02  0.36645666245E+03  0.37943147187E+03  0.81264766017E+02 0.  0.
          2    1    4    4  501    0 -0.80072139668E+01  0.88604492724E+02  0.22446089042E+03  0.24144888265E+03  0.00000000000E+00 0. -1.
         -1    1    4    4    0  501 -0.45792499538E+01 -0.48939427268E+01 -0.13135661494E+01  0.68297629228E+01  0.00000000000E+00 0.  1.
          5    1    3    3  502    0  0.37059995485E+02 -0.23427547902E+02  0.29297627594E+02  0.52940856139E+02  0.47000000000E+01 0. -1.
         13    1    6    6    0    0 -0.18030817501E+02  0.28166159509E+02  0.84167771573E+02  0.90568519326E+02  0.00000000000E+00 0. -1.
        -14    1    6    6    0    0 -0.31862977254E+02 -0.52340597247E+02  0.28228889088E+03  0.28886295254E+03  0.00000000000E+00 0.  1.
         -5    1    5    5    0  503  0.25420263191E+02 -0.36108564357E+02  0.17782167685E+02  0.47836321851E+02  0.47000000000E+01 0.  1.
<mgrwt>
<rscale>  2 0.18095677E+03</rscale>
<asrwt>0</asrwt>
<pdfrwt beam="1">  1       21 0.10501315E+00 0.18686436E+03</pdfrwt>
<pdfrwt beam="2">  1       21 0.70618092E-02 0.18686436E+03</pdfrwt>
<totfact> 0.10907307E+05</totfact>
</mgrwt>
</event>
<event>
12    1  0.1473662E-001  0.2571222E+03  0.7546771E-02  0.1110081E+00
         21   -1    0    0  504  503  0.00000000000E+00  0.00000000000E+00  0.37216946481E+03  0.37216946481E+03  0.00000000000E+00 0. -1.
         21   -1    0    0  502  504 -0.00000000000E+00 -0.00000000000E+00 -0.69959792589E+03  0.69959792589E+03  0.00000000000E+00 0. -1.
          6    2    1    2  502    0 -0.37256070976E+02 -0.16532194771E+03 -0.62830386352E+03  0.67599239755E+03  0.18297708985E+03 0.  0.
         24    2    3    3    0    0 -0.57104863534E+01 -0.12987784643E+03 -0.60237518716E+03  0.62171722382E+03  0.82313884902E+02 0.  0.
         -6    2    1    2    0  503  0.37256070976E+02  0.16532194771E+03  0.30087540244E+03  0.39577499315E+03  0.19337134272E+03 0.  0.
        -24    2    5    5    0    0  0.82376597198E+02  0.78489512770E+02  0.97922391173E+02  0.17041362018E+03  0.80656679000E+02 0.  0.
          2    1    4    4  501    0 -0.33595463436E+01 -0.63335690655E+02 -0.46220644957E+03  0.46653777799E+03  0.00000000000E+00 0. -1.
         -1    1    4    4    0  501 -0.23509400098E+01 -0.66542155771E+02 -0.14016873758E+03  0.15517944583E+03  0.00000000000E+00 0.  1.
          5    1    3    3  502    0 -0.31545584623E+02 -0.35444101286E+02 -0.25928676363E+02  0.54275173727E+02  0.47000000000E+01 0. -1.
         13    1    6    6    0    0  0.43141427612E+02  0.79658138209E+02  0.94663695625E+02  0.13102601661E+03  0.00000000000E+00 0. -1.
        -14    1    6    6    0    0  0.39235169587E+02 -0.11686254395E+01  0.32586955483E+01  0.39387603565E+02  0.00000000000E+00 0.  1.
         -5    1    5    5    0  503 -0.45120526222E+02  0.86832434943E+02  0.20295301127E+03  0.22536137297E+03  0.47000000000E+01 0.  1.
<mgrwt>
<rscale>  2 0.25516934E+03</rscale>
<asrwt>0</asrwt>
<pdfrwt beam="1">  1       21 0.57256842E-01 0.25712222E+03</pdfrwt>
<pdfrwt beam="2">  1       21 0.10763045E+00 0.25712222E+03</pdfrwt>
<totfact> 0.18706755E+03</totfact>
</mgrwt>
</event>
<event>
12    1  0.1473662E-001  0.1742221E+03  0.7546771E-02  0.1173792E+00
         21   -1    0    0  504  503  0.00000000000E+00  0.00000000000E+00  0.18616700084E+02  0.18616700084E+02  0.00000000000E+00 0. -1.
         21   -1    0    0  502  504 -0.00000000000E+00 -0.00000000000E+00 -0.19370082987E+04  0.19370082987E+04  0.00000000000E+00 0. -1.
          6    2    1    2  502    0 -0.82899780607E+00  0.49679411102E+01 -0.13520972245E+04  0.13631364730E+04  0.17305713469E+03 0.  0.
         24    2    3    3    0    0  0.45207201726E+02 -0.44678088509E+01 -0.12073332827E+04  0.12108635145E+04  0.80455844127E+02 0.  0.
         -6    2    1    2    0  503  0.82899780607E+00 -0.49679411102E+01 -0.56629437411E+03  0.59248852577E+03  0.17414926742E+03 0.  0.
        -24    2    5    5    0    0  0.16952807121E+02 -0.68192396182E+02 -0.30393686319E+03  0.32209832165E+03  0.80200445385E+02 0.  0.
          2    1    4    4  501    0  0.32441314639E+02 -0.41762959739E+02 -0.71834459450E+03  0.72028851174E+03  0.00000000000E+00 0. -1.
         -1    1    4    4    0  501  0.12765887088E+02  0.37295150888E+02 -0.48898868817E+03  0.49057500274E+03  0.00000000000E+00 0.  1.
          5    1    3    3  502    0 -0.46036199533E+02  0.94357499610E+01 -0.14476394185E+03  0.15227295854E+03  0.47000000000E+01 0. -1.
         13    1    6    6    0    0 -0.45105583270E+01  0.13547903564E+02 -0.10483419148E+03  0.10580216694E+03  0.00000000000E+00 0. -1.
        -14    1    6    6    0    0  0.21463365448E+02 -0.81740299746E+02 -0.19910267171E+03  0.21629615471E+03  0.00000000000E+00 0.  1.
         -5    1    5    5    0  503 -0.16123809315E+02  0.63224455072E+02 -0.26235751093E+03  0.27039020412E+03  0.47000000000E+01 0.  1.
<mgrwt>
<rscale>  2 0.17394852E+03</rscale>
<asrwt>0</asrwt>
<pdfrwt beam="1">  1       21 0.28641080E-02 0.17422209E+03</pdfrwt>
<pdfrwt beam="2">  1       21 0.29800125E+00 0.17422209E+03</pdfrwt>
<totfact> 0.24396586E+04</totfact>
</mgrwt>
</event>
<event>
12    1  0.1473662E-001  0.1798996E+03  0.7546771E-02  0.1168034E+00
         21   -1    0    0  504  503  0.00000000000E+00  0.00000000000E+00  0.15945027009E+04  0.15945027009E+04  0.00000000000E+00 0.  1.
         21   -1    0    0  502  504 -0.00000000000E+00 -0.00000000000E+00 -0.26465502740E+02  0.26465502740E+02  0.00000000000E+00 0.  1.
          6    2    1    2  502    0  0.46473939269E+02 -0.68445668030E+01  0.11781847047E+04  0.11918401981E+04  0.17365824000E+03 0.  0.
         24    2    3    3    0    0 -0.25873392907E+02 -0.43050765841E+02  0.52176003798E+03  0.53043226166E+03  0.81252975804E+02 0.  0.
         -6    2    1    2    0  503 -0.46473939269E+02  0.68445668030E+01  0.38985249346E+03  0.42912800552E+03  0.17308727089E+03 0.  0.
        -24    2    5    5    0    0  0.33953899056E+02 -0.12101566075E+02  0.24037215248E+03  0.25826532537E+03  0.87309171581E+02 0.  0.
          2    1    4    4  501    0  0.69389547815E+01 -0.23122376893E+02  0.37155049462E+02  0.44309040919E+02  0.00000000000E+00 0. -1.
         -1    1    4    4    0  501 -0.32812347689E+02 -0.19928388948E+02  0.48460498852E+03  0.48612322075E+03  0.00000000000E+00 0.  1.
          5    1    3    3  502    0  0.72347332176E+02  0.36206199038E+02  0.65642466671E+03  0.66140793644E+03  0.47000000000E+01 0. -1.
         11    1    6    6    0    0 -0.12530268792E+02  0.13857067281E+02  0.16460878605E+03  0.16566556188E+03  0.00000000000E+00 0. -1.
        -12    1    6    6    0    0  0.46484167848E+02 -0.25958633356E+02  0.75763366429E+02  0.92599763493E+02  0.00000000000E+00 0.  1.
         -5    1    5    5    0  503 -0.80427838325E+02  0.18946132878E+02  0.14948034098E+03  0.17086268015E+03  0.47000000000E+01 0.  1.
<mgrwt>
<rscale>  2 0.17976165E+03</rscale>
<asrwt>0</asrwt>
<pdfrwt beam="1">  1       21 0.24530803E+00 0.17989958E+03</pdfrwt>
<pdfrwt beam="2">  1       21 0.40716171E-02 0.17989958E+03</pdfrwt>
<totfact> 0.27246915E+04</totfact>
</mgrwt>
</event>
<event>
12    1  0.1473662E-001  0.1852336E+03  0.7546771E-02  0.1163197E+00
         21   -1    0    0  504  503  0.00000000000E+00  0.00000000000E+00  0.14920652619E+03  0.14920652619E+03  0.00000000000E+00 0.  1.
         21   -1    0    0  502  504 -0.00000000000E+00 -0.00000000000E+00 -0.26677523311E+03  0.26677523311E+03  0.00000000000E+00 0.  1.
          6    2    1    2  502    0 -0.54784182055E+02 -0.32624584368E+02 -0.13826051459E+03  0.23114381269E+03  0.17391326040E+03 0.  0.
         24    2    3    3    0    0 -0.91150404617E+02 -0.23607482455E+01 -0.13161721430E+03  0.18313729898E+03  0.88894374304E+02 0.  0.
         -6    2    1    2    0  503  0.54784182055E+02  0.32624584368E+02  0.20691807662E+02  0.18483794661E+03  0.17225343391E+03 0.  0.
        -24    2    5    5    0    0  0.26187237924E+02 -0.39534418510E+02 -0.23149382774E+02  0.95569548566E+02  0.79680003848E+02 0.  0.
          4    1    4    4  501    0 -0.33602540849E+02 -0.26783690940E+01 -0.11971537263E+03  0.12437071543E+03  0.00000000000E+00 0. -1.
         -3    1    4    4    0  501 -0.57547863768E+02  0.31762084851E+00 -0.11901841674E+02  0.58766583553E+02  0.00000000000E+00 0.  1.
          5    1    3    3  502    0  0.36366222562E+02 -0.30263836123E+02 -0.66433002891E+01  0.48006513714E+02  0.47000000000E+01 0. -1.
         11    1    6    6    0    0 -0.14183507386E+02  0.15862822602E+02 -0.16055572161E+02  0.26656751867E+02  0.00000000000E+00 0. -1.
        -12    1    6    6    0    0  0.40370745310E+02 -0.55397241112E+02 -0.70938106126E+01  0.68912796698E+02  0.00000000000E+00 0.  1.
         -5    1    5    5    0  503  0.28596944131E+02  0.72159002878E+02  0.43841190436E+02  0.89268398041E+02  0.47000000000E+01 0.  1.
<mgrwt>
<rscale>  2 0.18484301E+03</rscale>
<asrwt>0</asrwt>
<pdfrwt beam="1">  1       21 0.22954851E-01 0.18523362E+03</pdfrwt>
<pdfrwt beam="2">  1       21 0.41042343E-01 0.18523362E+03</pdfrwt>
<totfact> 0.10214346E+05</totfact>
</mgrwt>
</event>
<event>
12    1  0.1473662E-001  0.2044139E+03  0.7546771E-02  0.1146128E+00
         21   -1    0    0  504  503  0.00000000000E+00  0.00000000000E+00  0.17940144823E+03  0.17940144823E+03  0.00000000000E+00 0.  1.
         21   -1    0    0  502  504 -0.00000000000E+00 -0.00000000000E+00 -0.17767523073E+04  0.17767523073E+04  0.00000000000E+00 0.  1.
          6    2    1    2  502    0  0.39328379206E+02 -0.10127597298E+03 -0.17104170562E+04  0.17225536754E+04  0.17280368770E+03 0.  0.
         24    2    3    3    0    0  0.56773012478E+02 -0.13365208551E+03 -0.13280536599E+04  0.13383969565E+04  0.80584332253E+02 0.  0.
         -6    2    1    2    0  503 -0.39328379206E+02  0.10127597298E+03  0.11306619712E+03  0.23360008011E+03  0.17315163407E+03 0.  0.
        -24    2    5    5    0    0 -0.82735400088E+02  0.94662880735E+02  0.52041683638E+02  0.15827422999E+03  0.80846692110E+02 0.  0.
          4    1    4    4  501    0  0.48489781756E+02 -0.12301480549E+03 -0.85613641522E+03  0.86628717108E+03  0.00000000000E+00 0. -1.
         -3    1    4    4    0  501  0.82832307220E+01 -0.10637280017E+02 -0.47191724468E+03  0.47210978539E+03  0.00000000000E+00 0.  1.
          5    1    3    3  502    0 -0.17444633272E+02  0.32376112534E+02 -0.38236339626E+03  0.38415671893E+03  0.47000000000E+01 0. -1.
         11    1    6    6    0    0 -0.16111886543E+02 -0.12139669314E+02  0.19943683677E+02  0.28367498615E+02  0.00000000000E+00 0. -1.
        -12    1    6    6    0    0 -0.66623513545E+02  0.10680255005E+03  0.32097999960E+02  0.12990673137E+03  0.00000000000E+00 0.  1.
         -5    1    5    5    0  503  0.43407020883E+02  0.66130922431E+01  0.61024513481E+02  0.75325850122E+02  0.47000000000E+01 0.  1.
<mgrwt>
<rscale>  2 0.20434017E+03</rscale>
<asrwt>0</asrwt>
<pdfrwt beam="1">  1       21 0.27600222E-01 0.20441388E+03</pdfrwt>
<pdfrwt beam="2">  1       21 0.27334651E+00 0.20441388E+03</pdfrwt>
<totfact> 0.59963534E+02</totfact>
</mgrwt>
</event>
<event>
12    1  0.1473662E-001  0.2597411E+03  0.7546771E-02  0.1107385E+00
         21   -1    0    0  504  503  0.00000000000E+00  0.00000000000E+00  0.22396401072E+03  0.22396401072E+03  0.00000000000E+00 0.  1.
         21   -1    0    0  502  504 -0.00000000000E+00 -0.00000000000E+00 -0.78963081669E+03  0.78963081669E+03  0.00000000000E+00 0. -1.
          6    2    1    2  502    0  0.17587130654E+02  0.19145962327E+03 -0.68179684133E+03  0.72959739448E+03  0.17464057571E+03 0.  0.
         24    2    3    3    0    0  0.70889588855E+02  0.12669106179E+03 -0.34515762585E+03  0.38263317442E+03  0.78729921501E+02 0.  0.
         -6    2    1    2    0  503 -0.17587130654E+02 -0.19145962327E+03  0.11613003536E+03  0.28399743292E+03  0.17378798085E+03 0.  0.
        -24    2    5    5    0    0  0.56024728256E+02 -0.10878169391E+03  0.53525592164E+02  0.15673490080E+03  0.82028123255E+02 0.  0.
          4    1    4    4  501    0  0.22438439512E+02  0.76580106621E+02 -0.10099976946E+03  0.12872043244E+03  0.00000000000E+00 0. -1.
         -3    1    4    4    0  501  0.48451149343E+02  0.50110955168E+02 -0.24415785639E+03  0.25391274198E+03  0.00000000000E+00 0.  1.
          5    1    3    3  502    0 -0.53302458201E+02  0.64768561485E+02 -0.33663921548E+03  0.34696422007E+03  0.47000000000E+01 0. -1.
         13    1    6    6    0    0  0.63371773224E+02 -0.62664061410E+02  0.62926802607E+02  0.10909880256E+03  0.00000000000E+00 0. -1.
        -14    1    6    6    0    0 -0.73470449679E+01 -0.46117632501E+02 -0.94012104426E+01  0.47636098235E+02  0.00000000000E+00 0.  1.
         -5    1    5    5    0  503 -0.73611858910E+02 -0.82677929363E+02  0.62604443194E+02  0.12726253213E+03  0.47000000000E+01 0.  1.
<mgrwt>
<rscale>  2 0.25959783E+03</rscale>
<asrwt>0</asrwt>
<pdfrwt beam="1">  1       21 0.34456001E-01 0.25974107E+03</pdfrwt>
<pdfrwt beam="2">  1       21 0.12148167E+00 0.25974107E+03</pdfrwt>
<totfact> 0.39574562E+03</totfact>
</mgrwt>
</event>
<event>
12    1  0.1473662E-001  0.1871160E+03  0.7546771E-02  0.1161552E+00
         21   -1    0    0  504  503  0.00000000000E+00  0.00000000000E+00  0.94473582553E+03  0.94473582553E+03  0.00000000000E+00 0.  1.
         21   -1    0    0  502  504 -0.00000000000E+00 -0.00000000000E+00 -0.49711103929E+02  0.49711103929E+02  0.00000000000E+00 0.  1.
          6    2    1    2  502    0  0.63396716597E+02 -0.29289980710E+02  0.70400873463E+03  0.72845089062E+03  0.17359537714E+03 0.  0.
         24    2    3    3    0    0  0.59173832663E+02  0.49534595824E+02  0.45389152760E+03  0.46613075440E+03  0.72836410641E+02 0.  0.
         -6    2    1    2    0  503 -0.63396716597E+02  0.29289980710E+02  0.19101598697E+03  0.26599603883E+03  0.17143435698E+03 0.  0.
        -24    2    5    5    0    0 -0.95891828673E+02 -0.66653853434E+01  0.89903137829E+02  0.15377028904E+03  0.79517654836E+02 0.  0.
          4    1    4    4  501    0  0.40897715266E+02  0.68232010559E+02  0.32283540150E+03  0.33249199515E+03  0.00000000000E+00 0. -1.
         -3    1    4    4    0  501  0.18276117396E+02 -0.18697414735E+02  0.13105612610E+03  0.13363875925E+03  0.00000000000E+00 0.  1.
          5    1    3    3  502    0  0.42228839340E+01 -0.78824576534E+02  0.25011720703E+03  0.26232013622E+03  0.47000000000E+01 0. -1.
         11    1    6    6    0    0 -0.10676353436E+00 -0.18498665451E+02  0.42273979932E+02  0.46144353947E+02  0.00000000000E+00 0. -1.
        -12    1    6    6    0    0 -0.95785065139E+02  0.11833280107E+02  0.47629157897E+02  0.10762593509E+03  0.00000000000E+00 0.  1.
         -5    1    5    5    0  503  0.32495112077E+02  0.35955366053E+02  0.10111284914E+03  0.11222574980E+03  0.47000000000E+01 0.  1.
<mgrwt>
<rscale>  2 0.18661321E+03</rscale>
<asrwt>0</asrwt>
<pdfrwt beam="1">  1       21 0.14534396E+00 0.18711601E+03</pdfrwt>
<pdfrwt beam="2">  1       21 0.76478628E-02 0.18711601E+03</pdfrwt>
<totfact> 0.42263801E+04</totfact>
</mgrwt>
</event>
<event>
12    1  0.1473662E-001  0.2227415E+03  0.7546771E-02  0.1132176E+00
         21   -1    0    0  504  503  0.00000000000E+00  0.00000000000E+00  0.70373691897E+02  0.70373691897E+02  0.00000000000E+00 0. -1.
         21   -1    0    0  502  504 -0.00000000000E+00 -0.00000000000E+00 -0.10802894912E+04  0.10802894912E+04  0.00000000000E+00 0. -1.
          6    2    1    2  502    0 -0.53005656023E+02 -0.13019868449E+03 -0.16209707304E+03  0.27407299398E+03  0.17052638484E+03 0.  0.
         24    2    3    3    0    0  0.67619997728E+01 -0.29028720715E+02 -0.17599758797E+02  0.87769214972E+02  0.80655392378E+02 0.  0.
         -6    2    1    2    0  503  0.53005656023E+02  0.13019868449E+03 -0.84781872627E+03  0.87659018912E+03  0.17277867358E+03 0.  0.
        -24    2    5    5    0    0  0.15713470151E+02  0.15392399991E+03 -0.60431570375E+03  0.62906360531E+03  0.81142090406E+02 0.  0.
          4    1    4    4  501    0 -0.31934271772E+02 -0.19030594497E+02  0.10832318704E+02  0.38720800212E+02  0.00000000000E+00 0. -1.
         -3    1    4    4    0  501  0.38696271545E+02 -0.99981262178E+01 -0.28432077501E+02  0.49048414759E+02  0.00000000000E+00 0.  1.
          5    1    3    3  502    0 -0.59767655796E+02 -0.10116996377E+03 -0.14449731424E+03  0.18630377901E+03  0.47000000000E+01 0. -1.
         13    1    6    6    0    0  0.23991590676E+02  0.77914805510E+02 -0.44432254245E+03  0.45173978690E+03  0.00000000000E+00 0. -1.
        -14    1    6    6    0    0 -0.82781205255E+01  0.76009194396E+02 -0.15999316130E+03  0.17732381841E+03  0.00000000000E+00 0.  1.
         -5    1    5    5    0  503  0.37292185872E+02 -0.23725315421E+02 -0.24350302252E+03  0.24752658381E+03  0.47000000000E+01 0.  1.
<mgrwt>
<rscale>  2 0.22230457E+03</rscale>
<asrwt>0</asrwt>
<pdfrwt beam="1">  1       21 0.10826723E-01 0.22274148E+03</pdfrwt>
<pdfrwt beam="2">  1       21 0.16619837E+00 0.22274148E+03</pdfrwt>
<totfact> 0.15670855E+04</totfact>
</mgrwt>
</event>
<event>
12    1  0.1473662E-001  0.1955325E+03  0.7546771E-02  0.1154551E+00
         21   -1    0    0  504  503  0.00000000000E+00  0.00000000000E+00  0.15962357303E+03  0.15962357303E+03  0.00000000000E+00 0. -1.
         21   -1    0    0  502  504 -0.00000000000E+00 -0.00000000000E+00 -0.23553755256E+03  0.23553755256E+03  0.00000000000E+00 0. -1.
          6    2    1    2  502    0 -0.82684203365E+02 -0.36259521518E+02 -0.21832159788E+02  0.19228726492E+03  0.16836365006E+03 0.  0.
         24    2    3    3    0    0 -0.53637797692E+02  0.25575202635E+02 -0.56618164057E+02  0.11547982461E+03  0.81233423288E+02 0.  0.
         -6    2    1    2    0  503  0.82684203365E+02  0.36259521518E+02 -0.54081819735E+02  0.20287386068E+03  0.17344027714E+03 0.  0.
        -24    2    5    5    0    0  0.10348450651E+03  0.54876017523E+02 -0.81316531209E+02  0.16359223592E+03  0.80184917661E+02 0.  0.
          2    1    4    4  501    0 -0.55701252223E+02  0.16752928816E+00 -0.26153198719E+01  0.55762868141E+02  0.00000000000E+00 0. -1.
         -1    1    4    4    0  501  0.20634545309E+01  0.25407673347E+02 -0.54002844185E+02  0.59716956466E+02  0.00000000000E+00 0.  1.
          5    1    3    3  502    0 -0.29046405673E+02 -0.61834724153E+02  0.34786004269E+02  0.76807440308E+02  0.47000000000E+01 0. -1.
         13    1    6    6    0    0  0.45995115556E+02 -0.10870775065E+02 -0.54700297242E+02  0.72290019532E+02  0.00000000000E+00 0. -1.
        -14    1    6    6    0    0  0.57489390951E+02  0.65746792587E+02 -0.26616233967E+02  0.91302216391E+02  0.00000000000E+00 0.  1.
         -5    1    5    5    0  503 -0.20800303142E+02 -0.18616496005E+02  0.27234711474E+02  0.39281624754E+02  0.47000000000E+01 0.  1.
<mgrwt>
<rscale>  2 0.19440055E+03</rscale>
<asrwt>0</asrwt>
<pdfrwt beam="1">  1       21 0.24557473E-01 0.19553250E+03</pdfrwt>
<pdfrwt beam="2">  1       21 0.36236546E-01 0.19553250E+03</pdfrwt>
<totfact> 0.11497352E+05</totfact>
</mgrwt>
</event>
<event>
12    1  0.1473662E-001  0.3366208E+03  0.7546771E-02  0.1068293E+00
         21   -1    0    0  504  503  0.00000000000E+00  0.00000000000E+00  0.15371259878E+04  0.15371259878E+04  0.00000000000E+00 0.  1.
         21   -1    0    0  502  504 -0.00000000000E+00 -0.00000000000E+00 -0.73640226661E+02  0.73640226661E+02  0.00000000000E+00 0.  1.
          6    2    1    2  502    0 -0.21716197805E+03 -0.18894330929E+03  0.71754555744E+03  0.79238953936E+03  0.17363944324E+03 0.  0.
         24    2    3    3    0    0 -0.14490931327E+03 -0.14751414889E+03  0.64491002083E+03  0.68177835513E+03  0.78445250691E+02 0.  0.
         -6    2    1    2    0  503  0.21716197805E+03  0.18894330929E+03  0.74594020374E+03  0.81837667514E+03  0.17451273886E+03 0.  0.
        -24    2    5    5    0    0  0.12048256031E+03  0.10438722449E+03  0.26070102380E+03  0.31640477051E+03  0.82062263040E+02 0.  0.
          2    1    4    4  501    0 -0.10014827893E+03 -0.53595725232E+02  0.39680305021E+03  0.41274064519E+03  0.00000000000E+00 0. -1.
         -1    1    4    4    0  501 -0.44761034338E+02 -0.93918423654E+02  0.24810697062E+03  0.26903770994E+03  0.00000000000E+00 0.  1.
          5    1    3    3  502    0 -0.72252664775E+02 -0.41429160407E+02  0.72635536608E+02  0.11061118423E+03  0.47000000000E+01 0. -1.
         11    1    6    6    0    0  0.25850454514E+02  0.49352791307E+02  0.15303144560E+03  0.16285750628E+03  0.00000000000E+00 0. -1.
        -12    1    6    6    0    0  0.94632105797E+02  0.55034433179E+02  0.10766957820E+03  0.15354726423E+03  0.00000000000E+00 0.  1.
         -5    1    5    5    0  503  0.96679417737E+02  0.84556084808E+02  0.48523917994E+03  0.50197190463E+03  0.47000000000E+01 0.  1.
<mgrwt>
<rscale>  2 0.33650781E+03</rscale>
<asrwt>0</asrwt>
<pdfrwt beam="1">  1       21 0.23648090E+00 0.33662085E+03</pdfrwt>
<pdfrwt beam="2">  1       21 0.11329267E-01 0.33662085E+03</pdfrwt>
<totfact> 0.46603144E+03</totfact>
</mgrwt>
</event>
<event>
12    1  0.1473662E-001  0.2686540E+03  0.7546771E-02  0.1102136E+00
         21   -1    0    0  504  503  0.00000000000E+00  0.00000000000E+00  0.89255596332E+02  0.89255596332E+02  0.00000000000E+00 0.  1.
         21   -1    0    0  502  504 -0.00000000000E+00 -0.00000000000E+00 -0.26369634961E+04  0.26369634961E+04  0.00000000000E+00 0. -1.
          6    2    1    2  502    0 -0.70122594415E+02 -0.19265534056E+03 -0.24098413150E+04  0.24247701214E+04  0.17361370818E+03 0.  0.
         24    2    3    3    0    0  0.14176619953E+02 -0.79959879699E+02 -0.72485868672E+03  0.73391377858E+03  0.81331173406E+02 0.  0.
         -6    2    1    2    0  503  0.70122594415E+02  0.19265534056E+03 -0.13786658478E+03  0.30144897104E+03  0.17271661312E+03 0.  0.
        -24    2    5    5    0    0  0.26694495417E+02  0.15056234729E+02 -0.42329892393E+02  0.95107526423E+02  0.79462793196E+02 0.  0.
          2    1    4    4  501    0  0.22007210274E+02 -0.88065110691E+02 -0.70695123884E+03  0.71275510179E+03  0.00000000000E+00 0. -1.
         -1    1    4    4    0  501 -0.78305903211E+01  0.81052309925E+01 -0.17907447873E+02  0.21158676791E+02  0.00000000000E+00 0.  1.
          5    1    3    3  502    0 -0.84299214368E+02 -0.11269546086E+03 -0.16849826283E+04  0.16908563428E+04  0.47000000000E+01 0. -1.
         11    1    6    6    0    0  0.20987005924E+02 -0.66730082360E+01 -0.61656979817E+02  0.65471876533E+02  0.00000000000E+00 0. -1.
        -12    1    6    6    0    0  0.57074894936E+01  0.21729242965E+02  0.19327087424E+02  0.29635649891E+02  0.00000000000E+00 0.  1.
         -5    1    5    5    0  503  0.43428098998E+02  0.17759910583E+03 -0.95536692389E+02  0.20634144462E+03  0.47000000000E+01 0.  1.
<mgrwt>
<rscale>  2 0.26850918E+03</rscale>
<asrwt>0</asrwt>
<pdfrwt beam="1">  1       21 0.13731631E-01 0.26865401E+03</pdfrwt>
<pdfrwt beam="2">  1       21 0.40568668E+00 0.26865401E+03</pdfrwt>
<totfact> 0.33215193E+02</totfact>
</mgrwt>
</event>
<event>
12    1  0.1473662E-001  0.2359778E+03  0.7546771E-02  0.1122542E+00
         21   -1    0    0  504  503  0.00000000000E+00  0.00000000000E+00  0.14646604240E+03  0.14646604240E+03  0.00000000000E+00 0.  1.
         21   -1    0    0  502  504 -0.00000000000E+00 -0.00000000000E+00 -0.42388751633E+03  0.42388751633E+03  0.00000000000E+00 0.  1.
          6    2    1    2  502    0  0.58098496988E+02  0.14954411696E+03 -0.23073259224E+03  0.33003495956E+03  0.17305105356E+03 0.  0.
         24    2    3    3    0    0 -0.27013199181E+02  0.11840189221E+03 -0.15678820627E+03  0.21297215076E+03  0.77626505559E+02 0.  0.
         -6    2    1    2    0  503 -0.58098496988E+02 -0.14954411696E+03 -0.46688881692E+02  0.24031859917E+03  0.17272608131E+03 0.  0.
        -24    2    5    5    0    0 -0.62445116891E+02 -0.14767358443E+03 -0.87836968524E+02  0.19863350535E+03  0.77672751002E+02 0.  0.
          4    1    4    4  501    0 -0.28399062035E+02  0.47210095659E+02 -0.19727828969E+02  0.58519117324E+02  0.00000000000E+00 0. -1.
         -3    1    4    4    0  501  0.13858628536E+01  0.71191796554E+02 -0.13706037730E+03  0.15445303344E+03  0.00000000000E+00 0.  1.
          5    1    3    3  502    0  0.85111696169E+02  0.31142224749E+02 -0.73944385973E+02  0.11706280880E+03  0.47000000000E+01 0. -1.
         13    1    6    6    0    0  0.89209119836E+01 -0.68789963442E+02 -0.18974928590E+02  0.71914460687E+02  0.00000000000E+00 0. -1.
        -14    1    6    6    0    0 -0.71366028875E+02 -0.78883620987E+02 -0.68862039934E+02  0.12671904467E+03  0.00000000000E+00 0.  1.
         -5    1    5    5    0  503  0.43466199032E+01 -0.18705325322E+01  0.41148086831E+02  0.41685093816E+02  0.47000000000E+01 0.  1.
<mgrwt>
<rscale>  2 0.23591827E+03</rscale>
<asrwt>0</asrwt>
<pdfrwt beam="1">  1       21 0.22533237E-01 0.23597785E+03</pdfrwt>
<pdfrwt beam="2">  1       21 0.65213464E-01 0.23597785E+03</pdfrwt>
<totfact> 0.39086967E+04</totfact>
</mgrwt>
</event>
<event>
12    1  0.1473662E-001  0.2131207E+03  0.7546771E-02  0.1139497E+00
         21   -1    0    0  504  503  0.00000000000E+00  0.00000000000E+00  0.30351279322E+04  0.30351279322E+04  0.00000000000E+00 0. -1.
         21   -1    0    0  502  504 -0.00000000000E+00 -0.00000000000E+00 -0.32297046158E+02  0.32297046158E+02  0.00000000000E+00 0. -1.
          6    2    1    2  502    0 -0.11046616417E+03 -0.58651250787E+02  0.37032267128E+03  0.42630401282E+03  0.17015724446E+03 0.  0.
         24    2    3    3    0    0  0.89760826185E+01 -0.39049038443E+02  0.15584111890E+03  0.17998080369E+03  0.80630254214E+02 0.  0.
         -6    2    1    2    0  503  0.11046616417E+03  0.58651250787E+02  0.26325082148E+04  0.26411209655E+04  0.17256219501E+03 0.  0.
        -24    2    5    5    0    0  0.94662713137E+02  0.11126012418E+02  0.23997890708E+04  0.24030271031E+04  0.80416768475E+02 0.  0.
          2    1    4    4  501    0  0.21572123102E+02 -0.27378766019E+02  0.14749961373E+02  0.37848575724E+02  0.00000000000E+00 0. -1.
         -1    1    4    4    0  501 -0.12596040484E+02 -0.11670272425E+02  0.14109115753E+03  0.14213222797E+03  0.00000000000E+00 0.  1.
          5    1    3    3  502    0 -0.11944224679E+03 -0.19602212344E+02  0.21448155238E+03  0.24632320913E+03  0.47000000000E+01 0. -1.
         13    1    6    6    0    0  0.58290998360E+02  0.23234599931E+02  0.70031663916E+03  0.70312238068E+03  0.00000000000E+00 0. -1.
        -14    1    6    6    0    0  0.36371714777E+02 -0.12108587513E+02  0.16994724316E+04  0.16999047224E+04  0.00000000000E+00 0.  1.
         -5    1    5    5    0  503  0.15803451033E+02  0.47525238369E+02  0.23271914399E+03  0.23809386242E+03  0.47000000000E+01 0.  1.
<mgrwt>
<rscale>  2 0.21263344E+03</rscale>
<asrwt>0</asrwt>
<pdfrwt beam="1">  1       21 0.46694253E+00 0.21312075E+03</pdfrwt>
<pdfrwt beam="2">  1       21 0.49687787E-02 0.21312075E+03</pdfrwt>
<totfact> 0.84404715E+02</totfact>
</mgrwt>
</event>
<event>
12    1  0.1473662E-001  0.2390187E+03  0.7546771E-02  0.1120520E+00
         21   -1    0    0  504  503  0.00000000000E+00  0.00000000000E+00  0.35338440537E+03  0.35338440537E+03  0.00000000000E+00 0.  1.
         21   -1    0    0  502  504 -0.00000000000E+00 -0.00000000000E+00 -0.16884386287E+03  0.16884386287E+03  0.00000000000E+00 0. -1.
          6    2    1    2  502    0 -0.10469794839E+03 -0.12674152446E+03  0.37432248164E+02  0.24193200932E+03  0.17350749122E+03 0.  0.
         24    2    3    3    0    0 -0.70820079410E+02 -0.60678202118E+00 -0.16124305105E+02  0.10069434559E+03  0.69738842745E+02 0.  0.
         -6    2    1    2    0  503  0.10469794839E+03  0.12674152446E+03  0.14710829434E+03  0.28029625893E+03  0.17291636154E+03 0.  0.
        -24    2    5    5    0    0  0.50516370196E+02  0.11440746309E+03  0.31578208973E+02  0.15201117363E+03  0.80431600502E+02 0.  0.
          2    1    4    4  501    0 -0.12205212991E+02 -0.21100965963E+02 -0.28369752212E+02  0.37404021566E+02  0.00000000000E+00 0. -1.
         -1    1    4    4    0  501 -0.58614866419E+02  0.20494183942E+02  0.12245447106E+02  0.63290324028E+02  0.00000000000E+00 0.  1.
          5    1    3    3  502    0 -0.33877868979E+02 -0.12613474244E+03  0.53556553270E+02  0.14123766372E+03  0.47000000000E+01 0. -1.
         11    1    6    6    0    0  0.47514143140E+02  0.48177352845E+02 -0.17062354652E+02  0.69783773699E+02  0.00000000000E+00 0. -1.
        -12    1    6    6    0    0  0.30022270565E+01  0.66230110243E+02  0.48640563625E+02  0.82227399934E+02  0.00000000000E+00 0.  1.
         -5    1    5    5    0  503  0.54181578192E+02  0.12334061370E+02  0.11553008536E+03  0.12828508530E+03  0.47000000000E+01 0.  1.
<mgrwt>
<rscale>  2 0.23891141E+03</rscale>
<asrwt>0</asrwt>
<pdfrwt beam="1">  1       21 0.54366831E-01 0.23901867E+03</pdfrwt>
<pdfrwt beam="2">  1       21 0.25975979E-01 0.23901867E+03</pdfrwt>
<totfact> 0.44024806E+04</totfact>
</mgrwt>
</event>
<event>
12    1  0.1473662E-001  0.2069720E+03  0.7546771E-02  0.1144133E+00
         21   -1    0    0  504  503  0.00000000000E+00  0.00000000000E+00  0.10807082119E+04  0.10807082119E+04  0.00000000000E+00 0. -1.
         21   -1    0    0  502  504 -0.00000000000E+00 -0.00000000000E+00 -0.57938032613E+02  0.57938032613E+02  0.00000000000E+00 0. -1.
          6    2    1    2  502    0  0.10779472814E+03  0.35824560186E+02  0.18959774101E+03  0.28015120601E+03  0.17214613648E+03 0.  0.
         24    2    3    3    0    0  0.64406346691E+02 -0.39333091159E+02  0.14242301281E+03  0.18126354661E+03  0.82927011265E+02 0.  0.
         -6    2    1    2    0  503 -0.10779472814E+03 -0.35824560186E+02  0.83317243830E+03  0.85849503852E+03  0.17301536552E+03 0.  0.
        -24    2    5    5    0    0 -0.68879257708E+02  0.32220865592E+02  0.64639123040E+03  0.65587740989E+03  0.81061814379E+02 0.  0.
          2    1    4    4  501    0 -0.19740560290E+02 -0.15078346557E+01  0.27665282839E+02  0.34019570257E+02  0.00000000000E+00 0. -1.
         -1    1    4    4    0  501  0.84146906981E+02 -0.37825256503E+02  0.11475772998E+03  0.14724397636E+03  0.00000000000E+00 0.  1.
          5    1    3    3  502    0  0.43388381448E+02  0.75157651345E+02  0.47174728194E+02  0.98887659395E+02  0.47000000000E+01 0. -1.
         11    1    6    6    0    0 -0.14723877858E+02  0.51013551691E+02  0.34840959725E+03  0.35243215303E+03  0.00000000000E+00 0. -1.
        -12    1    6    6    0    0 -0.54155379849E+02 -0.18792686098E+02  0.29798163315E+03  0.30344525686E+03  0.00000000000E+00 0.  1.
         -5    1    5    5    0  503 -0.38915470432E+02 -0.68045425778E+02  0.18678120790E+03  0.20261762863E+03  0.47000000000E+01 0.  1.
<mgrwt>
<rscale>  2 0.20679027E+03</rscale>
<asrwt>0</asrwt>
<pdfrwt beam="1">  1       21 0.16626279E+00 0.20697203E+03</pdfrwt>
<pdfrwt beam="2">  1       21 0.89135442E-02 0.20697203E+03</pdfrwt>
<totfact> 0.22312773E+04</totfact>
</mgrwt>
</event>
<event>
12    1  0.1473662E-001  0.1858413E+03  0.7546771E-02  0.1163163E+00
         21   -1    0    0  504  503  0.00000000000E+00  0.00000000000E+00  0.88054804384E+02  0.88054804384E+02  0.00000000000E+00 0. -1.
         21   -1    0    0  502  504 -0.00000000000E+00 -0.00000000000E+00 -0.43295849623E+03  0.43295849623E+03  0.00000000000E+00 0. -1.
          6    2    1    2  502    0 -0.45671388119E+02 -0.33662333930E+02 -0.25828089792E+03  0.31597546749E+03  0.17295214774E+03 0.  0.
         24    2    3    3    0    0  0.13715307707E+01 -0.26176264277E+02 -0.50434967941E+02  0.10268904489E+03  0.85523540859E+02 0.  0.
         -6    2    1    2    0  503  0.45671388119E+02  0.33662333930E+02 -0.86622793926E+02  0.20503783313E+03  0.17696885649E+03 0.  0.
        -24    2    5    5    0    0  0.46484081899E+02  0.43812197084E+02  0.14363908229E+02  0.10343033239E+03  0.80070177444E+02 0.  0.
          4    1    4    4  501    0 -0.20803341822E+02 -0.38063295275E+02  0.31497122377E+01  0.43491541308E+02  0.00000000000E+00 0. -1.
         -3    1    4    4    0  501  0.22174872593E+02  0.11887030998E+02 -0.53584680179E+02  0.59197503582E+02  0.00000000000E+00 0.  1.
          5    1    3    3  502    0 -0.47042918890E+02 -0.74860696531E+01 -0.20784592998E+03  0.21328642260E+03  0.47000000000E+01 0. -1.
         11    1    6    6    0    0  0.18979173080E+02 -0.20966409826E+02 -0.83363609868E+01  0.29483796674E+02  0.00000000000E+00 0. -1.
        -12    1    6    6    0    0  0.27504908818E+02  0.64778606910E+02  0.22700269216E+02  0.73946535718E+02  0.00000000000E+00 0.  1.
         -5    1    5    5    0  503 -0.81269377936E+00 -0.10149863154E+02 -0.10098670215E+03  0.10160750073E+03  0.47000000000E+01 0.  1.
<mgrwt>
<rscale>  2 0.18487869E+03</rscale>
<asrwt>0</asrwt>
<pdfrwt beam="1">  1       21 0.13546893E-01 0.18584134E+03</pdfrwt>
<pdfrwt beam="2">  1       21 0.66609001E-01 0.18584134E+03</pdfrwt>
<totfact> 0.97766952E+04</totfact>
</mgrwt>
</event>
<event>
12    1  0.1473662E-001  0.2150250E+03  0.7546771E-02  0.1137832E+00
         21   -1    0    0  504  503  0.00000000000E+00  0.00000000000E+00  0.85072434641E+03  0.85072434641E+03  0.00000000000E+00 0.  1.
         21   -1    0    0  502  504 -0.00000000000E+00 -0.00000000000E+00 -0.10764571236E+03  0.10764571236E+03  0.00000000000E+00 0.  1.
          6    2    1    2  502    0  0.64174678891E+01 -0.12762498476E+03  0.34016880511E+02  0.21769909667E+03  0.17293475042E+03 0.  0.
         24    2    3    3    0    0  0.25327590922E+02 -0.94856853575E+02 -0.40367895560E+02  0.13411364288E+03  0.81960921679E+02 0.  0.
         -6    2    1    2    0  503 -0.64174678891E+01  0.12762498476E+03  0.70906175354E+03  0.74067096210E+03  0.17174278190E+03 0.  0.
        -24    2    5    5    0    0 -0.41823566112E+02  0.76946107346E+02  0.24811683672E+03  0.27557500775E+03  0.81912795797E+02 0.  0.
          4    1    4    4  501    0  0.38467854504E+02 -0.79584494518E+02  0.67059906965E+00  0.88396364750E+02  0.00000000000E+00 0. -1.
         -3    1    4    4    0  501 -0.13140263582E+02 -0.15272359057E+02 -0.41038494630E+02  0.45717278130E+02  0.00000000000E+00 0.  1.
          5    1    3    3  502    0 -0.18910123033E+02 -0.32768131185E+02  0.74384776071E+02  0.83585453792E+02  0.47000000000E+01 0. -1.
         11    1    6    6    0    0 -0.50540925459E+02  0.69514708193E+02  0.24963876420E+03  0.26401930307E+03  0.00000000000E+00 0. -1.
        -12    1    6    6    0    0  0.87173593473E+01  0.74313991523E+01 -0.15219274847E+01  0.11555704679E+02  0.00000000000E+00 0.  1.
         -5    1    5    5    0  503  0.35406098223E+02  0.50678877414E+02  0.46094491683E+03  0.46509595435E+03  0.47000000000E+01 0.  1.
<mgrwt>
<rscale>  2 0.21478523E+03</rscale>
<asrwt>0</asrwt>
<pdfrwt beam="1">  1       21 0.13088066E+00 0.21502500E+03</pdfrwt>
<pdfrwt beam="2">  1       21 0.16560879E-01 0.21502500E+03</pdfrwt>
<totfact> 0.13700373E+04</totfact>
</mgrwt>
</event>
<event>
12    1  0.1473662E-001  0.1945375E+03  0.7546771E-02  0.1154539E+00
         21   -1    0    0  504  503  0.00000000000E+00  0.00000000000E+00  0.47301042495E+03  0.47301042495E+03  0.00000000000E+00 0. -1.
         21   -1    0    0  502  504 -0.00000000000E+00 -0.00000000000E+00 -0.18067668485E+03  0.18067668485E+03  0.00000000000E+00 0. -1.
          6    2    1    2  502    0  0.63456458888E+02 -0.66559358904E+02 -0.98129757933E+02  0.21744570554E+03  0.17086929225E+03 0.  0.
         24    2    3    3    0    0  0.68098540347E+02 -0.10911395050E+03 -0.78477692079E+02  0.17010929378E+03  0.78963018459E+02 0.  0.
         -6    2    1    2    0  503 -0.63456458888E+02  0.66559358904E+02  0.39046349803E+03  0.43624140426E+03  0.17142913717E+03 0.  0.
        -24    2    5    5    0    0 -0.84896134649E+02  0.99633778883E+02  0.32957395431E+03  0.36355575583E+03  0.80122110977E+02 0.  0.
          4    1    4    4  501    0  0.52517687145E+02 -0.92248919991E+02 -0.94492334765E+02  0.14211534763E+03  0.00000000000E+00 0. -1.
         -3    1    4    4    0  501  0.15580853203E+02 -0.16865030509E+02  0.16014642685E+02  0.27993946148E+02  0.00000000000E+00 0.  1.
          5    1    3    3  502    0 -0.46420814595E+01  0.42554591596E+02 -0.19652065854E+02  0.47336411762E+02  0.47000000000E+01 0. -1.
         13    1    6    6    0    0 -0.71323750679E+02  0.43340386697E+02  0.12028281115E+03  0.14640157509E+03  0.00000000000E+00 0. -1.
        -14    1    6    6    0    0 -0.13572383970E+02  0.56293392186E+02  0.20929114316E+03  0.21715418074E+03  0.00000000000E+00 0.  1.
         -5    1    5    5    0  503  0.21439675761E+02 -0.33074419980E+02  0.60889543717E+02  0.72685648431E+02  0.47000000000E+01 0.  1.
<mgrwt>
<rscale>  2 0.19441404E+03</rscale>
<asrwt>0</asrwt>
<pdfrwt beam="1">  1       21 0.72770834E-01 0.19453745E+03</pdfrwt>
<pdfrwt beam="2">  1       21 0.27796413E-01 0.19453745E+03</pdfrwt>
<totfact> 0.20988423E+04</totfact>
</mgrwt>
</event>
<event>
12    1  0.1473662E-001  0.2063672E+03  0.7546771E-02  0.1144538E+00
         21   -1    0    0  504  503  0.00000000000E+00  0.00000000000E+00  0.13269506660E+03  0.13269506660E+03  0.00000000000E+00 0. -1.
         21   -1    0    0  502  504 -0.00000000000E+00 -0.00000000000E+00 -0.37531604835E+03  0.37531604835E+03  0.00000000000E+00 0.  1.
          6    2    1    2  502    0  0.92518057427E+02 -0.68353917715E+02 -0.21849655872E+03  0.30054644234E+03  0.17133466903E+03 0.  0.
         24    2    3    3    0    0 -0.73856284759E+00 -0.70418263373E+02 -0.14993981775E+03  0.18468801372E+03  0.81660493358E+02 0.  0.
         -6    2    1    2    0  503 -0.92518057427E+02  0.68353917715E+02 -0.24124423028E+02  0.20746467261E+03  0.17096126338E+03 0.  0.
        -24    2    5    5    0    0 -0.11037640619E+03  0.93024032041E+02  0.34783800223E+01  0.16609391122E+03  0.82089382007E+02 0.  0.
          2    1    4    4  501    0  0.37626904783E+02 -0.25634442459E+02 -0.43311981741E+02  0.62839767393E+02  0.00000000000E+00 0. -1.
         -1    1    4    4    0  501 -0.38365467631E+02 -0.44783820914E+02 -0.10662783601E+03  0.12184824633E+03  0.00000000000E+00 0.  1.
          5    1    3    3  502    0  0.93256620275E+02  0.20643456577E+01 -0.68556740973E+02  0.11585842861E+03  0.47000000000E+01 0. -1.
         11    1    6    6    0    0 -0.70560578303E+02  0.77602789313E+02  0.37615917782E+02  0.11142686117E+03  0.00000000000E+00 0. -1.
        -12    1    6    6    0    0 -0.39815827883E+02  0.15421242729E+02 -0.34137537760E+02  0.54667050054E+02  0.00000000000E+00 0.  1.
         -5    1    5    5    0  503  0.17858348759E+02 -0.24670114326E+02 -0.27602803050E+02  0.41370761384E+02  0.47000000000E+01 0.  1.
<mgrwt>
<rscale>  2 0.20628967E+03</rscale>
<asrwt>0</asrwt>
<pdfrwt beam="1">  1       21 0.20414626E-01 0.20636719E+03</pdfrwt>
<pdfrwt beam="2">  1       21 0.57740929E-01 0.20636719E+03</pdfrwt>
<totfact> 0.62094405E+04</totfact>
</mgrwt>
</event>
<event>
12    1  0.1473662E-001  0.2073839E+03  0.7546771E-02  0.1143721E+00
         21   -1    0    0  504  503  0.00000000000E+00  0.00000000000E+00  0.47156283926E+02  0.47156283926E+02  0.00000000000E+00 0. -1.
         21   -1    0    0  502  504 -0.00000000000E+00 -0.00000000000E+00 -0.93897457813E+03  0.93897457813E+03  0.00000000000E+00 0. -1.
          6    2    1    2  502    0  0.11311949402E+03 -0.23052131765E+02 -0.53198622250E+03  0.57097937008E+03  0.17228081558E+03 0.  0.
         24    2    3    3    0    0  0.13493939431E+03  0.19272805178E+02 -0.38888197349E+03  0.42008727479E+03  0.81633620377E+02 0.  0.
         -6    2    1    2    0  503 -0.11311949402E+03  0.23052131765E+02 -0.35983207171E+03  0.41515149198E+03  0.17188432378E+03 0.  0.
        -24    2    5    5    0    0 -0.48505125199E+02 -0.36280561455E+02 -0.27680711076E+03  0.29427709733E+03  0.79421704430E+02 0.  0.
          4    1    4    4  501    0  0.14475789962E+03  0.16499930465E+02 -0.37830812370E+03  0.40539380072E+03  0.00000000000E+00 0. -1.
         -3    1    4    4    0  501 -0.98185053097E+01  0.27728747135E+01 -0.10573849796E+02  0.14693474069E+02  0.00000000000E+00 0.  1.
          5    1    3    3  502    0 -0.21819900294E+02 -0.42324936943E+02 -0.14310424901E+03  0.15089209529E+03  0.47000000000E+01 0. -1.
         11    1    6    6    0    0 -0.51887011665E+02  0.14545706392E+01 -0.92061840779E+02  0.10568708664E+03  0.00000000000E+00 0. -1.
        -12    1    6    6    0    0  0.33818864666E+01 -0.37735132094E+02 -0.18474526998E+03  0.18859001069E+03  0.00000000000E+00 0.  1.
         -5    1    5    5    0  503 -0.64614368820E+02  0.59332693220E+02 -0.83024960948E+02  0.12087439465E+03  0.47000000000E+01 0.  1.
<mgrwt>
<rscale>  2 0.20730158E+03</rscale>
<asrwt>0</asrwt>
<pdfrwt beam="1">  1       21 0.72548128E-02 0.20738394E+03</pdfrwt>
<pdfrwt beam="2">  1       21 0.14445763E+00 0.20738394E+03</pdfrwt>
<totfact> 0.46518488E+04</totfact>
</mgrwt>
</event>
<event>
12    1  0.1473662E-001  0.1931325E+03  0.7546771E-02  0.1156135E+00
         21   -1    0    0  504  503  0.00000000000E+00  0.00000000000E+00  0.43292828255E+03  0.43292828255E+03  0.00000000000E+00 0.  1.
         21   -1    0    0  502  504 -0.00000000000E+00 -0.00000000000E+00 -0.18025486953E+03  0.18025486953E+03  0.00000000000E+00 0.  1.
          6    2    1    2  502    0 -0.36310042471E+02  0.69490764455E+02 -0.95952269053E+02  0.21565485138E+03  0.17650153387E+03 0.  0.
         24    2    3    3    0    0 -0.92130724668E+02  0.57838597890E+02 -0.66516284602E+02  0.15130977599E+03  0.81466915734E+02 0.  0.
         -6    2    1    2    0  503  0.36310042471E+02 -0.69490764455E+02  0.34862568207E+03  0.39752830070E+03  0.17418811133E+03 0.  0.
        -24    2    5    5    0    0  0.23174076713E+02  0.32605061121E+02  0.13090756812E+03  0.15665618040E+03  0.76185560466E+02 0.  0.
          4    1    4    4  501    0 -0.67112098580E+02 -0.21983432460E+01 -0.51327655967E+02  0.84518605975E+02  0.00000000000E+00 0. -1.
         -3    1    4    4    0  501 -0.25018626088E+02  0.60036941136E+02 -0.15188628636E+02  0.66791170016E+02  0.00000000000E+00 0.  1.
          5    1    3    3  502    0  0.55820682198E+02  0.11652166565E+02 -0.29435984450E+02  0.64345075392E+02  0.47000000000E+01 0. -1.
         11    1    6    6    0    0 -0.15883378606E+02  0.11251233774E+02  0.10139811212E+03  0.10324945093E+03  0.00000000000E+00 0. -1.
        -12    1    6    6    0    0  0.39057455319E+02  0.21353827347E+02  0.29509456003E+02  0.53406729463E+02  0.00000000000E+00 0.  1.
         -5    1    5    5    0  503  0.13135965757E+02 -0.10209582558E+03  0.21771811395E+03  0.24087212030E+03  0.47000000000E+01 0.  1.
<mgrwt>
<rscale>  2 0.19260238E+03</rscale>
<asrwt>0</asrwt>
<pdfrwt beam="1">  1       21 0.66604351E-01 0.19313254E+03</pdfrwt>
<pdfrwt beam="2">  1       21 0.27731519E-01 0.19313254E+03</pdfrwt>
<totfact> 0.25646864E+04</totfact>
</mgrwt>
</event>
<event>
12    1  0.1473662E-001  0.2617440E+03  0.7546771E-02  0.1106105E+00
         21   -1    0    0  504  503  0.00000000000E+00  0.00000000000E+00  0.94751660827E+02  0.94751660827E+02  0.00000000000E+00 0.  1.
         21   -1    0    0  502  504 -0.00000000000E+00 -0.00000000000E+00 -0.15974962689E+04  0.15974962689E+04  0.00000000000E+00 0. -1.
          6    2    1    2  502    0 -0.10869344159E+03  0.16375457215E+03 -0.13774395580E+04  0.14020876000E+04  0.17285854963E+03 0.  0.
         24    2    3    3    0    0 -0.56315698235E+02  0.14608072148E+03 -0.66976587771E+03  0.69224260236E+03  0.78118208649E+02 0.  0.
         -6    2    1    2    0  503  0.10869344159E+03 -0.16375457215E+03 -0.12530505006E+03  0.29016032964E+03  0.17280577879E+03 0.  0.
        -24    2    5    5    0    0  0.11178370649E+03 -0.12238570608E+03 -0.28560726280E+02  0.18479198999E+03  0.76540880523E+02 0.  0.
          2    1    4    4  501    0 -0.84924429032E+01  0.94473003164E+02 -0.49198011877E+03  0.50104062428E+03  0.00000000000E+00 0. -1.
         -1    1    4    4    0  501 -0.47823255331E+02  0.51607718321E+02 -0.17778575895E+03  0.19120197809E+03  0.00000000000E+00 0.  1.
          5    1    3    3  502    0 -0.52377743352E+02  0.17673850666E+02 -0.70767368026E+03  0.70984499768E+03  0.47000000000E+01 0. -1.
         13    1    6    6    0    0  0.36086708312E+02 -0.53731608941E+02 -0.48236104811E+02  0.80722104306E+02  0.00000000000E+00 0. -1.
        -14    1    6    6    0    0  0.75696998175E+02 -0.68654097140E+02  0.19675378531E+02  0.10406988569E+03  0.00000000000E+00 0.  1.
         -5    1    5    5    0  503 -0.30902648999E+01 -0.41368866070E+02 -0.96744323779E+02  0.10536833965E+03  0.47000000000E+01 0.  1.
<mgrwt>
<rscale>  2 0.26173525E+03</rscale>
<asrwt>0</asrwt>
<pdfrwt beam="1">  1       21 0.14577180E-01 0.26174396E+03</pdfrwt>
<pdfrwt beam="2">  1       21 0.24576863E+00 0.26174396E+03</pdfrwt>
<totfact> 0.27250204E+03</totfact>
</mgrwt>
</event>
<event>
12    1  0.1473662E-001  0.2049798E+03  0.7546771E-02  0.1145969E+00
         21   -1    0    0  504  503  0.00000000000E+00  0.00000000000E+00  0.45535978848E+02  0.45535978848E+02  0.00000000000E+00 0.  1.
         21   -1    0    0  502  504 -0.00000000000E+00 -0.00000000000E+00 -0.19635706458E+04  0.19635706458E+04  0.00000000000E+00 0.  1.
          6    2    1    2  502    0 -0.96059515166E+02  0.52542076994E+02 -0.16951410945E+04  0.17074893960E+04  0.17328764231E+03 0.  0.
         24    2    3    3    0    0 -0.70434640859E+02  0.70418608049E+02 -0.16217568036E+04  0.16275922828E+04  0.95087802187E+02 0.  0.
         -6    2    1    2    0  503  0.96059515166E+02 -0.52542076994E+02 -0.22289357252E+03  0.30161722869E+03  0.17118208920E+03 0.  0.
        -24    2    5    5    0    0  0.75862620857E+02 -0.97426725814E+02 -0.19739692085E+03  0.24598706164E+03  0.79353550565E+02 0.  0.
          2    1    4    4  501    0  0.20858003918E+02  0.30096680272E+02 -0.54071919731E+03  0.54195767070E+03  0.00000000000E+00 0. -1.
         -1    1    4    4    0  501 -0.91292644777E+02  0.40321927776E+02 -0.10810376063E+04  0.10856346121E+04  0.00000000000E+00 0.  1.
          5    1    3    3  502    0 -0.25624874306E+02 -0.17876531055E+02 -0.73384290883E+02  0.79897113178E+02  0.47000000000E+01 0. -1.
         13    1    6    6    0    0 -0.81222795224E+01 -0.29862210934E+02 -0.84072380651E+02  0.89587321953E+02  0.00000000000E+00 0. -1.
        -14    1    6    6    0    0  0.83984900379E+02 -0.67564514879E+02 -0.11332454020E+03  0.15639973968E+03  0.00000000000E+00 0.  1.
         -5    1    5    5    0  503  0.20196894309E+02  0.44884648820E+02 -0.25496651674E+02  0.55630167050E+02  0.47000000000E+01 0.  1.
<mgrwt>
<rscale>  2 0.20453410E+03</rscale>
<asrwt>0</asrwt>
<pdfrwt beam="1">  1       21 0.70055345E-02 0.20497977E+03</pdfrwt>
<pdfrwt beam="2">  1       21 0.30208782E+00 0.20497977E+03</pdfrwt>
<totfact> 0.49462229E+03</totfact>
</mgrwt>
</event>
<event>
12    1  0.1473662E-001  0.1976181E+03  0.7546771E-02  0.1152149E+00
         21   -1    0    0  504  503  0.00000000000E+00  0.00000000000E+00  0.66353286160E+03  0.66353286160E+03  0.00000000000E+00 0.  1.
         21   -1    0    0  502  504 -0.00000000000E+00 -0.00000000000E+00 -0.93790924081E+02  0.93790924081E+02  0.00000000000E+00 0.  1.
          6    2    1    2  502    0  0.68982956134E+02  0.64461397477E+02  0.52827094142E+02  0.20455714984E+03  0.17360589182E+03 0.  0.
         24    2    3    3    0    0  0.83101418018E+02  0.93026715317E+02  0.73165983336E+02  0.16646425335E+03  0.82445564386E+02 0.  0.
         -6    2    1    2    0  503 -0.68982956134E+02 -0.64461397477E+02  0.51691484338E+03  0.55276663584E+03  0.17156945647E+03 0.  0.
        -24    2    5    5    0    0 -0.11396473447E+03 -0.53887512462E+02  0.39414005684E+03  0.42150009161E+03  0.80150596472E+02 0.  0.
          2    1    4    4  501    0 -0.30644520663E+01  0.45119906593E+02  0.45308183533E+02  0.64015844387E+02  0.00000000000E+00 0. -1.
         -1    1    4    4    0  501  0.86165870084E+02  0.47906808724E+02  0.27857799803E+02  0.10244840896E+03  0.00000000000E+00 0.  1.
          5    1    3    3  502    0 -0.14118461884E+02 -0.28565317841E+02 -0.20338889194E+02  0.38092896490E+02  0.47000000000E+01 0. -1.
         13    1    6    6    0    0 -0.11200784021E+02 -0.46676460930E+01  0.99383295309E+00  0.12175064134E+02  0.00000000000E+00 0. -1.
        -14    1    6    6    0    0 -0.10276395045E+03 -0.49219866369E+02  0.39314622389E+03  0.40932502747E+03  0.00000000000E+00 0.  1.
         -5    1    5    5    0  503  0.44981778335E+02 -0.10573885014E+02  0.12277478653E+03  0.13126654423E+03  0.47000000000E+01 0.  1.
<mgrwt>
<rscale>  2 0.19716997E+03</rscale>
<asrwt>0</asrwt>
<pdfrwt beam="1">  1       21 0.10208198E+00 0.19761813E+03</pdfrwt>
<pdfrwt beam="2">  1       21 0.14429373E-01 0.19761813E+03</pdfrwt>
<totfact> 0.32810058E+04</totfact>
</mgrwt>
</event>
<event>
12    1  0.1473662E-001  0.2840232E+03  0.7546771E-02  0.1093747E+00
         21   -1    0    0  504  503  0.00000000000E+00  0.00000000000E+00  0.10813301399E+03  0.10813301399E+03  0.00000000000E+00 0.  1.
         21   -1    0    0  502  504 -0.00000000000E+00 -0.00000000000E+00 -0.13849451811E+04  0.13849451811E+04  0.00000000000E+00 0. -1.
          6    2    1    2  502    0  0.22248223037E+03  0.36710749472E+02 -0.11462284407E+04  0.11804741928E+04  0.16980476884E+03 0.  0.
         24    2    3    3    0    0  0.16939044559E+03  0.61853488501E+02 -0.61793391723E+03  0.64890285373E+03  0.81936624404E+02 0.  0.
         -6    2    1    2    0  503 -0.22248223037E+03 -0.36710749472E+02 -0.13058372638E+03  0.31260400230E+03  0.17269374831E+03 0.  0.
        -24    2    5    5    0    0 -0.15518844134E+03  0.42624682504E+02 -0.84152112213E+02  0.19858404965E+03  0.80335116242E+02 0.  0.
          2    1    4    4  501    0  0.11158725636E+03  0.35044517126E+02 -0.51278626460E+03  0.52595587945E+03  0.00000000000E+00 0. -1.
         -1    1    4    4    0  501  0.57803189236E+02  0.26808971375E+02 -0.10514765263E+03  0.12294697428E+03  0.00000000000E+00 0.  1.
          5    1    3    3  502    0  0.53091784773E+02 -0.25142739029E+02 -0.52829452349E+03  0.53157133904E+03  0.47000000000E+01 0. -1.
         13    1    6    6    0    0 -0.19661028789E+02  0.39276353598E+02 -0.15125358678E+02  0.46453896286E+02  0.00000000000E+00 0. -1.
        -14    1    6    6    0    0 -0.13552741255E+03  0.33483289061E+01 -0.69026753535E+02  0.15213015336E+03  0.00000000000E+00 0.  1.
         -5    1    5    5    0  503 -0.67293789027E+02 -0.79335431976E+02 -0.46431614166E+02  0.11401995265E+03  0.47000000000E+01 0.  1.
<mgrwt>
<rscale>  2 0.28358533E+03</rscale>
<asrwt>0</asrwt>
<pdfrwt beam="1">  1       21 0.16635849E-01 0.28402316E+03</pdfrwt>
<pdfrwt beam="2">  1       21 0.21306848E+00 0.28402316E+03</pdfrwt>
<totfact> 0.33404595E+03</totfact>
</mgrwt>
</event>
<event>
12    1  0.1473662E-001  0.2925064E+03  0.7546771E-02  0.1089051E+00
         21   -1    0    0  504  503  0.00000000000E+00  0.00000000000E+00  0.10568667428E+03  0.10568667428E+03  0.00000000000E+00 0.  1.
         21   -1    0    0  502  504 -0.00000000000E+00 -0.00000000000E+00 -0.10580788697E+04  0.10580788697E+04  0.00000000000E+00 0.  1.
          6    2    1    2  502    0 -0.22035022804E+03 -0.84649697918E+02 -0.19413966831E+03  0.35104979485E+03  0.17270192036E+03 0.  0.
         24    2    3    3    0    0 -0.56008728499E+02 -0.77900166382E+02 -0.59382551357E+02  0.13836398146E+03  0.80080524277E+02 0.  0.
         -6    2    1    2    0  503  0.22035022804E+03  0.84649697918E+02 -0.75825252711E+03  0.81271574914E+03  0.17274316102E+03 0.  0.
        -24    2    5    5    0    0  0.12763554813E+03  0.61912382803E+02 -0.64194180469E+03  0.66217249450E+03  0.79114825207E+02 0.  0.
          4    1    4    4  501    0  0.20716760710E+02 -0.20562336945E+02 -0.14109566512E+02  0.32420267459E+02  0.00000000000E+00 0. -1.
         -3    1    4    4    0  501 -0.76725489209E+02 -0.57337829437E+02 -0.45272984845E+02  0.10594371400E+03  0.00000000000E+00 0.  1.
          5    1    3    3  502    0 -0.16434149954E+03 -0.67495315353E+01 -0.13475711695E+03  0.21268581339E+03  0.47000000000E+01 0. -1.
         11    1    6    6    0    0  0.14494369304E+02  0.11683684224E+02 -0.26011687270E+03  0.26078225147E+03  0.00000000000E+00 0. -1.
        -12    1    6    6    0    0  0.11314117883E+03  0.50228698578E+02 -0.38182493199E+03  0.40139024302E+03  0.00000000000E+00 0.  1.
         -5    1    5    5    0  503  0.92714679910E+02  0.22737315115E+02 -0.11631072242E+03  0.15054325465E+03  0.47000000000E+01 0.  1.
<mgrwt>
<rscale>  2 0.29250031E+03</rscale>
<asrwt>0</asrwt>
<pdfrwt beam="1">  1       21 0.16259489E-01 0.29250640E+03</pdfrwt>
<pdfrwt beam="2">  1       21 0.16278136E+00 0.29250640E+03</pdfrwt>
<totfact> 0.76088466E+03</totfact>
</mgrwt>
</event>
<event>
12    1  0.1473662E-001  0.2038752E+03  0.7546771E-02  0.1146686E+00
         21   -1    0    0  504  503  0.00000000000E+00  0.00000000000E+00  0.24242925845E+03  0.24242925845E+03  0.00000000000E+00 0. -1.
         21   -1    0    0  502  504 -0.00000000000E+00 -0.00000000000E+00 -0.21118219302E+03  0.21118219302E+03  0.00000000000E+00 0. -1.
          6    2    1    2  502    0 -0.38532086882E+02 -0.10030235361E+03  0.11485269576E+03  0.23325942476E+03  0.17226007563E+03 0.  0.
         24    2    3    3    0    0 -0.81799815881E+02 -0.89216763333E+02  0.49239430639E+02  0.15374730465E+03  0.81011551149E+02 0.  0.
         -6    2    1    2    0  503  0.38532086882E+02  0.10030235361E+03 -0.83605630323E+02  0.22035202671E+03  0.17326231672E+03 0.  0.
        -24    2    5    5    0    0 -0.46778859117E+01  0.70844550079E+02  0.14430050610E+02  0.10914074728E+03  0.81625017388E+02 0.  0.
          2    1    4    4  501    0 -0.20788484038E+02 -0.13665378537E+02  0.50865645622E+02  0.56623471668E+02  0.00000000000E+00 0. -1.
         -1    1    4    4    0  501 -0.61011331843E+02 -0.75551384796E+02 -0.16262149833E+01  0.97123832981E+02  0.00000000000E+00 0.  1.
          5    1    3    3  502    0  0.43267728999E+02 -0.11085590276E+02  0.65613265120E+02  0.79512120108E+02  0.47000000000E+01 0. -1.
         13    1    6    6    0    0  0.33214692219E+02  0.17274248759E+02 -0.10602859673E+02  0.38910616580E+02  0.00000000000E+00 0. -1.
        -14    1    6    6    0    0 -0.37892578131E+02  0.53570301320E+02  0.25032910282E+02  0.70230130700E+02  0.00000000000E+00 0.  1.
         -5    1    5    5    0  503  0.43209972793E+02  0.29457803529E+02 -0.98035680933E+02  0.11121127943E+03  0.47000000000E+01 0.  1.
<mgrwt>
<rscale>  2 0.20366214E+03</rscale>
<asrwt>0</asrwt>
<pdfrwt beam="1">  1       21 0.37296809E-01 0.20387524E+03</pdfrwt>
<pdfrwt beam="2">  1       21 0.32489568E-01 0.20387524E+03</pdfrwt>
<totfact> 0.62879472E+04</totfact>
</mgrwt>
</event>
<event>
12    1  0.1473662E-001  0.1949177E+03  0.7546771E-02  0.1154153E+00
         21   -1    0    0  504  503  0.00000000000E+00  0.00000000000E+00  0.19611223084E+03  0.19611223084E+03  0.00000000000E+00 0. -1.
         21   -1    0    0  502  504 -0.00000000000E+00 -0.00000000000E+00 -0.29228141553E+03  0.29228141553E+03  0.00000000000E+00 0.  1.
          6    2    1    2  502    0 -0.69093527085E+02  0.55114357617E+02  0.93909550259E+02  0.21613857853E+03  0.17345135802E+03 0.  0.
         24    2    3    3    0    0 -0.44402494571E+02 -0.38479317658E+02  0.33859601806E+02  0.10213195834E+03  0.76369004632E+02 0.  0.
         -6    2    1    2    0  503  0.69093527085E+02 -0.55114357617E+02 -0.19007873495E+03  0.27225506784E+03  0.17372791539E+03 0.  0.
        -24    2    5    5    0    0 -0.18751912481E+02 -0.99209134981E+01 -0.13591118550E+03  0.15949212155E+03  0.80720677313E+02 0.  0.
          2    1    4    4  501    0  0.18546684667E+02 -0.83576906337E+01  0.24307071531E+02  0.31696438779E+02  0.00000000000E+00 0. -1.
         -1    1    4    4    0  501 -0.62949179238E+02 -0.30121627024E+02  0.95525302749E+01  0.70435519562E+02  0.00000000000E+00 0.  1.
          5    1    3    3  502    0 -0.24691032514E+02  0.93593675275E+02  0.60049948453E+02  0.11400662019E+03  0.47000000000E+01 0. -1.
         13    1    6    6    0    0 -0.43527433188E+00  0.33438614558E+02 -0.77987044392E+02  0.84854637471E+02  0.00000000000E+00 0. -1.
        -14    1    6    6    0    0 -0.18316638149E+02 -0.43359528057E+02 -0.57924141104E+02  0.74637484074E+02  0.00000000000E+00 0.  1.
         -5    1    5    5    0  503  0.87845439566E+02 -0.45193444119E+02 -0.54167549456E+02  0.11276294630E+03  0.47000000000E+01 0.  1.
<mgrwt>
<rscale>  2 0.19485602E+03</rscale>
<asrwt>0</asrwt>
<pdfrwt beam="1">  1       21 0.30171113E-01 0.19491767E+03</pdfrwt>
<pdfrwt beam="2">  1       21 0.44966371E-01 0.19491767E+03</pdfrwt>
<totfact> 0.49963018E+04</totfact>
</mgrwt>
</event>
<event>
12    1  0.1473662E-001  0.2579372E+03  0.7546771E-02  0.1108671E+00
         21   -1    0    0  504  503  0.00000000000E+00  0.00000000000E+00  0.44292161499E+03  0.44292161499E+03  0.00000000000E+00 0. -1.
         21   -1    0    0  502  504 -0.00000000000E+00 -0.00000000000E+00 -0.14914384122E+03  0.14914384122E+03  0.00000000000E+00 0.  1.
          6    2    1    2  502    0 -0.81297415010E+02  0.17230728375E+03  0.14383429771E+03  0.29371226804E+03  0.17111259883E+03 0.  0.
         24    2    3    3    0    0 -0.62672042975E+02  0.26329861292E+02  0.36663844768E+02  0.11160266276E+03  0.80559730980E+02 0.  0.
         -6    2    1    2    0  503  0.81297415010E+02 -0.17230728375E+03  0.14994347606E+03  0.29835318817E+03  0.17387498141E+03 0.  0.
        -24    2    5    5    0    0  0.11924928665E+03 -0.13286341685E+03  0.14324810929E+03  0.24300807879E+03  0.81607754755E+02 0.  0.
          4    1    4    4  501    0 -0.55547642933E+02  0.29931890861E+02 -0.10327189284E+02  0.63938326256E+02  0.00000000000E+00 0. -1.
         -3    1    4    4    0  501 -0.71244000420E+01 -0.36020295694E+01  0.46991034053E+02  0.47664336503E+02  0.00000000000E+00 0.  1.
          5    1    3    3  502    0 -0.18625372035E+02  0.14597742246E+03  0.10717045294E+03  0.18210960528E+03  0.47000000000E+01 0. -1.
         13    1    6    6    0    0  0.93250668125E+02 -0.43660430614E+02  0.67369957431E+02  0.12304727332E+03  0.00000000000E+00 0. -1.
        -14    1    6    6    0    0  0.25998618528E+02 -0.89202986237E+02  0.75878151856E+02  0.11996080547E+03  0.00000000000E+00 0.  1.
         -5    1    5    5    0  503 -0.37951871643E+02 -0.39443866896E+02  0.66953667768E+01  0.55345109388E+02  0.47000000000E+01 0.  1.
<mgrwt>
<rscale>  2 0.25747241E+03</rscale>
<asrwt>0</asrwt>
<pdfrwt beam="1">  1       21 0.68141787E-01 0.25793716E+03</pdfrwt>
<pdfrwt beam="2">  1       21 0.22945206E-01 0.25793716E+03</pdfrwt>
<totfact> 0.33960685E+04</totfact>
</mgrwt>
</event>
<event>
12    1  0.1473662E-001  0.1805500E+03  0.7546771E-02  0.1167301E+00
         21   -1    0    0  504  503  0.00000000000E+00  0.00000000000E+00  0.14605587290E+03  0.14605587290E+03  0.00000000000E+00 0.  1.
         21   -1    0    0  502  504 -0.00000000000E+00 -0.00000000000E+00 -0.23573153873E+03  0.23573153873E+03  0.00000000000E+00 0.  1.
          6    2    1    2  502    0  0.10417974668E+02 -0.44367720622E+02 -0.89142502743E+02  0.20135707593E+03  0.17470334113E+03 0.  0.
         24    2    3    3    0    0 -0.17614343568E+02 -0.57282011800E+02 -0.12103779496E+03  0.15672536693E+03  0.79505967418E+02 0.  0.
         -6    2    1    2    0  503 -0.10417974668E+02  0.44367720622E+02 -0.53316308864E+00  0.18043033570E+03  0.17457890178E+03 0.  0.
        -24    2    5    5    0    0  0.58445078451E+01 -0.39378270115E+02 -0.22639722745E+02  0.92177011218E+02  0.79995236870E+02 0.  0.
          2    1    4    4  501    0 -0.62788489619E+01 -0.46213284609E+02 -0.13028497344E+03  0.13838087268E+03  0.00000000000E+00 0. -1.
         -1    1    4    4    0  501 -0.11335494606E+02 -0.11068727190E+02  0.92471784784E+01  0.18344494253E+02  0.00000000000E+00 0.  1.
          5    1    3    3  502    0  0.28032318236E+02  0.12914291178E+02  0.31895292217E+02  0.44631708996E+02  0.47000000000E+01 0. -1.
         11    1    6    6    0    0 -0.34465029202E+02 -0.33240839441E+02 -0.64892219805E+01  0.48320820011E+02  0.00000000000E+00 0. -1.
        -12    1    6    6    0    0  0.40309537047E+02 -0.61374306740E+01 -0.16150500765E+02  0.43856191207E+02  0.00000000000E+00 0.  1.
         -5    1    5    5    0  503 -0.16262482513E+02  0.83745990737E+02  0.22106559656E+02  0.88253324480E+02  0.47000000000E+01 0.  1.
<mgrwt>
<rscale>  2 0.18051985E+03</rscale>
<asrwt>0</asrwt>
<pdfrwt beam="1">  1       21 0.22470134E-01 0.18054995E+03</pdfrwt>
<pdfrwt beam="2">  1       21 0.36266391E-01 0.18054995E+03</pdfrwt>
<totfact> 0.13654918E+05</totfact>
</mgrwt>
</event>
<event>
12    1  0.1473662E-001  0.1886789E+03  0.7546771E-02  0.1160220E+00
         21   -1    0    0  504  503  0.00000000000E+00  0.00000000000E+00  0.23969539550E+03  0.23969539550E+03  0.00000000000E+00 0. -1.
         21   -1    0    0  502  504 -0.00000000000E+00 -0.00000000000E+00 -0.16051787191E+03  0.16051787191E+03  0.00000000000E+00 0. -1.
          6    2    1    2  502    0  0.11494476592E+02 -0.74007014882E+02  0.98277026285E+02  0.21057011184E+03  0.17050582647E+03 0.  0.
         24    2    3    3    0    0  0.67420641788E+01  0.24346124267E+02  0.24976885983E+02  0.87724981806E+02  0.80209964488E+02 0.  0.
         -6    2    1    2    0  503 -0.11494476592E+02  0.74007014882E+02 -0.19099502692E+02  0.18964315557E+03  0.17317786870E+03 0.  0.
        -24    2    5    5    0    0  0.54798681300E+02  0.23052610867E+02  0.11006343101E+02  0.10065109962E+03  0.80468539977E+02 0.  0.
          2    1    4    4  501    0 -0.30739225850E+02  0.13402621268E+02  0.33887571086E+02  0.47674917272E+02  0.00000000000E+00 0. -1.
         -1    1    4    4    0  501  0.37481290029E+02  0.10943502999E+02 -0.89106851038E+01  0.40050064534E+02  0.00000000000E+00 0.  1.
          5    1    3    3  502    0  0.47524124132E+01 -0.98353139150E+02  0.73300140302E+02  0.12284513003E+03  0.47000000000E+01 0. -1.
         11    1    6    6    0    0  0.73210064556E+02  0.31521594753E+02  0.10326655861E+02  0.80373903161E+02  0.00000000000E+00 0. -1.
        -12    1    6    6    0    0 -0.18411383256E+02 -0.84689838859E+01  0.67968723983E+00  0.20277196458E+02  0.00000000000E+00 0.  1.
         -5    1    5    5    0  503 -0.66293157892E+02  0.50954404015E+02 -0.30105845793E+02  0.88992055953E+02  0.47000000000E+01 0.  1.
<mgrwt>
<rscale>  2 0.18806354E+03</rscale>
<asrwt>0</asrwt>
<pdfrwt beam="1">  1       21 0.36876215E-01 0.18867892E+03</pdfrwt>
<pdfrwt beam="2">  1       21 0.24695057E-01 0.18867892E+03</pdfrwt>
<totfact> 0.11012882E+05</totfact>
</mgrwt>
</event>
<event>
12    1  0.1473662E-001  0.3125558E+03  0.7546771E-02  0.1079241E+00
         21   -1    0    0  504  503  0.00000000000E+00  0.00000000000E+00  0.15175565049E+03  0.15175565049E+03  0.00000000000E+00 0.  1.
         21   -1    0    0  502  504 -0.00000000000E+00 -0.00000000000E+00 -0.66484168239E+03  0.66484168239E+03  0.00000000000E+00 0.  1.
          6    2    1    2  502    0 -0.26118187657E+03  0.22860179244E+01 -0.33299108029E+03  0.45669925613E+03  0.17166814633E+03 0.  0.
         24    2    3    3    0    0 -0.22061665781E+03 -0.48523963657E+02 -0.22156360360E+03  0.32760485747E+03  0.84901280602E+02 0.  0.
         -6    2    1    2    0  503  0.26118187657E+03 -0.22860179244E+01 -0.18009495161E+03  0.35989807675E+03  0.16991537755E+03 0.  0.
        -24    2    5    5    0    0  0.14656951034E+03  0.26110892707E+00 -0.17989001708E+03  0.24516092346E+03  0.79125031485E+02 0.  0.
          4    1    4    4  501    0 -0.19181733763E+03 -0.97784430056E+01 -0.16470882404E+03  0.25301878523E+03  0.00000000000E+00 0. -1.
         -3    1    4    4    0  501 -0.28799320172E+02 -0.38745520652E+02 -0.56854779559E+02  0.74586072236E+02  0.00000000000E+00 0.  1.
          5    1    3    3  502    0 -0.40565218765E+02  0.50809981582E+02 -0.11142747670E+03  0.12909439866E+03  0.47000000000E+01 0. -1.
         11    1    6    6    0    0  0.13718675883E+03 -0.22807142241E+02 -0.13495549757E+03  0.19378689032E+03  0.00000000000E+00 0. -1.
        -12    1    6    6    0    0  0.93827515144E+01  0.23068251168E+02 -0.44934519502E+02  0.51374033137E+02  0.00000000000E+00 0.  1.
         -5    1    5    5    0  503  0.11461236623E+03 -0.25471268515E+01 -0.20493453041E+00  0.11473715330E+03  0.47000000000E+01 0.  1.
<mgrwt>
<rscale>  2 0.31231575E+03</rscale>
<asrwt>0</asrwt>
<pdfrwt beam="1">  1       21 0.23347023E-01 0.31255584E+03</pdfrwt>
<pdfrwt beam="2">  1       21 0.10228334E+00 0.31255584E+03</pdfrwt>
<totfact> 0.12575965E+04</totfact>
</mgrwt>
</event>
<event>
12    1  0.1473662E-001  0.2260177E+03  0.7546771E-02  0.1129697E+00
         21   -1    0    0  504  503  0.00000000000E+00  0.00000000000E+00  0.42904257790E+03  0.42904257790E+03  0.00000000000E+00 0.  1.
         21   -1    0    0  502  504 -0.00000000000E+00 -0.00000000000E+00 -0.14513831034E+03  0.14513831034E+03  0.00000000000E+00 0.  1.
          6    2    1    2  502    0  0.30285583372E+02  0.14167940440E+03  0.26545682820E+03  0.34864208933E+03  0.17347538334E+03 0.  0.
         24    2    3    3    0    0 -0.12120832766E+02  0.74682770398E+01  0.67200847316E+02  0.10545809563E+03  0.80017287537E+02 0.  0.
         -6    2    1    2    0  503 -0.30285583372E+02 -0.14167940440E+03  0.18447439362E+02  0.22553879892E+03  0.17186381704E+03 0.  0.
        -24    2    5    5    0    0 -0.83080172186E+02 -0.80339729749E+02  0.27994416000E+02  0.14391123582E+03  0.81055347031E+02 0.  0.
          4    1    4    4  501    0  0.11786945050E+02 -0.49075995851E+01 -0.14568224380E+02  0.19371364663E+02  0.00000000000E+00 0. -1.
         -3    1    4    4    0  501 -0.23907777816E+02  0.12375876625E+02  0.81769071696E+02  0.86086730966E+02  0.00000000000E+00 0.  1.
          5    1    3    3  502    0  0.42406416138E+02  0.13421112736E+03  0.19825598088E+03  0.24318399370E+03  0.47000000000E+01 0. -1.
         11    1    6    6    0    0  0.11803191138E+02  0.13900067647E+01  0.13276877342E+02  0.17819172590E+02  0.00000000000E+00 0. -1.
        -12    1    6    6    0    0 -0.94883363324E+02 -0.81729736514E+02  0.14717538659E+02  0.12609206323E+03  0.00000000000E+00 0.  1.
         -5    1    5    5    0  503  0.52794588814E+02 -0.61339674647E+02 -0.95469766381E+01  0.81627563095E+02  0.47000000000E+01 0.  1.
<mgrwt>
<rscale>  2 0.22570838E+03</rscale>
<asrwt>0</asrwt>
<pdfrwt beam="1">  1       21 0.66006550E-01 0.22601765E+03</pdfrwt>
<pdfrwt beam="2">  1       21 0.22328971E-01 0.22601765E+03</pdfrwt>
<totfact> 0.38905559E+04</totfact>
</mgrwt>
</event>
<event>
12    1  0.1473662E-001  0.1955898E+03  0.7546771E-02  0.1154411E+00
         21   -1    0    0  504  503  0.00000000000E+00  0.00000000000E+00  0.41818910135E+02  0.41818910135E+02  0.00000000000E+00 0. -1.
         21   -1    0    0  502  504 -0.00000000000E+00 -0.00000000000E+00 -0.19233804235E+04  0.19233804235E+04  0.00000000000E+00 0. -1.
          6    2    1    2  502    0 -0.73307940439E+01  0.91283318793E+02 -0.16543545134E+04  0.16654021150E+04  0.16819323314E+03 0.  0.
         24    2    3    3    0    0 -0.56432667968E+02  0.12244666098E+02 -0.87529268089E+03  0.88078913296E+03  0.79483593686E+02 0.  0.
         -6    2    1    2    0  503  0.73307940439E+01 -0.91283318793E+02 -0.22720699995E+03  0.29979721866E+03  0.17282640614E+03 0.  0.
        -24    2    5    5    0    0 -0.25436388033E+02 -0.60159512890E+02 -0.43705652088E+02  0.11075432887E+03  0.78039480462E+02 0.  0.
          2    1    4    4  501    0  0.44271653593E+01  0.21687292968E+02 -0.49891867325E+03  0.49940943222E+03  0.00000000000E+00 0. -1.
         -1    1    4    4    0  501 -0.60859833327E+02 -0.94426268694E+01 -0.37637400763E+03  0.38137970074E+03  0.00000000000E+00 0.  1.
          5    1    3    3  502    0  0.49101873924E+02  0.79038652695E+02 -0.77906183253E+03  0.78461298202E+03  0.47000000000E+01 0. -1.
         13    1    6    6    0    0 -0.16323716276E+02 -0.49131106270E+02 -0.66234193391E+02  0.84067221260E+02  0.00000000000E+00 0. -1.
        -14    1    6    6    0    0 -0.91126717563E+01 -0.11028406620E+02  0.22528541303E+02  0.26687107605E+02  0.00000000000E+00 0.  1.
         -5    1    5    5    0  503  0.32767182076E+02 -0.31123805903E+02 -0.18350134787E+03  0.18904288980E+03  0.47000000000E+01 0.  1.
<mgrwt>
<rscale>  2 0.19456125E+03</rscale>
<asrwt>0</asrwt>
<pdfrwt beam="1">  1       21 0.64336802E-02 0.19558975E+03</pdfrwt>
<pdfrwt beam="2">  1       21 0.29590460E+00 0.19558975E+03</pdfrwt>
<totfact> 0.62837076E+03</totfact>
</mgrwt>
</event>
<event>
12    1  0.1473662E-001  0.2133556E+03  0.7546771E-02  0.1139008E+00
         21   -1    0    0  504  503  0.00000000000E+00  0.00000000000E+00  0.38542560615E+03  0.38542560615E+03  0.00000000000E+00 0.  1.
         21   -1    0    0  502  504 -0.00000000000E+00 -0.00000000000E+00 -0.11841488481E+03  0.11841488481E+03  0.00000000000E+00 0. -1.
          6    2    1    2  502    0  0.12327422225E+03  0.27235323959E+01  0.11698113092E+03  0.24332119649E+03  0.17411682334E+03 0.  0.
         24    2    3    3    0    0  0.11227044696E+03 -0.55369435592E+02  0.10682384917E+03  0.18314531783E+03  0.80376893646E+02 0.  0.
         -6    2    1    2    0  503 -0.12327422225E+03 -0.27235323959E+01  0.15002959042E+03  0.26051929446E+03  0.17365907200E+03 0.  0.
        -24    2    5    5    0    0 -0.24316490583E+02  0.42887175039E+02  0.31963359386E+02  0.99787548382E+02  0.80655421218E+02 0.  0.
          2    1    4    4  501    0  0.84658024529E+02 -0.69386870601E+02  0.54338272892E+02  0.12220542881E+03  0.00000000000E+00 0. -1.
         -1    1    4    4    0  501  0.27612422436E+02  0.14017435009E+02  0.52485576276E+02  0.60939889022E+02  0.00000000000E+00 0.  1.
          5    1    3    3  502    0  0.11003775283E+02  0.58092967988E+02  0.10157281756E+02  0.60175878663E+02  0.47000000000E+01 0. -1.
         11    1    6    6    0    0 -0.44208507106E+02  0.87782665349E+01 -0.54402679242E+01  0.45398750853E+02  0.00000000000E+00 0. -1.
        -12    1    6    6    0    0  0.19892016523E+02  0.34108908504E+02  0.37403627310E+02  0.54388797529E+02  0.00000000000E+00 0.  1.
         -5    1    5    5    0  503 -0.98957731665E+02 -0.45610707435E+02  0.11806623103E+03  0.16073174608E+03  0.47000000000E+01 0.  1.
<mgrwt>
<rscale>  2 0.21326221E+03</rscale>
<asrwt>0</asrwt>
<pdfrwt beam="1">  1       21 0.59296247E-01 0.21335562E+03</pdfrwt>
<pdfrwt beam="2">  1       21 0.18217675E-01 0.21335562E+03</pdfrwt>
<totfact> 0.72311851E+04</totfact>
</mgrwt>
</event>
<event>
12    1  0.1473662E-001  0.1887164E+03  0.7546771E-02  0.1159682E+00
         21   -1    0    0  504  503  0.00000000000E+00  0.00000000000E+00  0.26638742346E+03  0.26638742346E+03  0.00000000000E+00 0. -1.
         21   -1    0    0  502  504 -0.00000000000E+00 -0.00000000000E+00 -0.14941355353E+03  0.14941355353E+03  0.00000000000E+00 0. -1.
          6    2    1    2  502    0  0.60662576385E+02 -0.40884680024E+02 -0.93708684864E+01  0.18869553017E+03  0.17368559151E+03 0.  0.
         24    2    3    3    0    0  0.24078087003E+02 -0.37567269959E+02  0.60952182944E+02  0.10921690641E+03  0.78880352400E+02 0.  0.
         -6    2    1    2    0  503 -0.60662576385E+02  0.40884680024E+02  0.12634473841E+03  0.22710544682E+03  0.17396087438E+03 0.  0.
        -24    2    5    5    0    0  0.71856479291E+01  0.67857167317E+02  0.37486161264E+02  0.11200187021E+03  0.80516942024E+02 0.  0.
          4    1    4    4  501    0  0.11327078393E+02 -0.60419543149E+02  0.54759662497E+02  0.82325236326E+02  0.00000000000E+00 0. -1.
         -3    1    4    4    0  501  0.12751008611E+02  0.22852273190E+02  0.61925204467E+01  0.26891670086E+02  0.00000000000E+00 0.  1.
          5    1    3    3  502    0  0.36584489381E+02 -0.33174100649E+01 -0.70323051430E+02  0.79478623763E+02  0.47000000000E+01 0. -1.
         13    1    6    6    0    0 -0.30238214569E+02  0.23411207074E+02  0.37978950045E+02  0.53896520143E+02  0.00000000000E+00 0. -1.
        -14    1    6    6    0    0  0.37423862498E+02  0.44445960243E+02 -0.49278878136E+00  0.58105350072E+02  0.00000000000E+00 0.  1.
         -5    1    5    5    0  503 -0.67848224314E+02 -0.26972487293E+02  0.88858577151E+02  0.11510357660E+03  0.47000000000E+01 0.  1.
<mgrwt>
<rscale>  2 0.18865297E+03</rscale>
<asrwt>0</asrwt>
<pdfrwt beam="1">  1       21 0.40982681E-01 0.18871643E+03</pdfrwt>
<pdfrwt beam="2">  1       21 0.22986701E-01 0.18871643E+03</pdfrwt>
<totfact> 0.10204618E+05</totfact>
</mgrwt>
</event>
<event>
12    1  0.1473662E-001  0.1957854E+03  0.7546771E-02  0.1153694E+00
         21   -1    0    0  504  503  0.00000000000E+00  0.00000000000E+00  0.24512111885E+03  0.24512111885E+03  0.00000000000E+00 0. -1.
         21   -1    0    0  502  504 -0.00000000000E+00 -0.00000000000E+00 -0.15664825803E+03  0.15664825803E+03  0.00000000000E+00 0. -1.
          6    2    1    2  502    0  0.89184041460E+02 -0.15789476276E+02  0.64383800138E+02  0.20610000614E+03  0.17357660557E+03 0.  0.
         24    2    3    3    0    0  0.27409187145E+02  0.23049152517E+02  0.92456929134E+02  0.12777528282E+03  0.80595981184E+02 0.  0.
         -6    2    1    2    0  503 -0.89184041460E+02  0.15789476276E+02  0.24089060684E+02  0.19566937074E+03  0.17176471986E+03 0.  0.
        -24    2    5    5    0    0  0.92393727232E+01 -0.39352647190E+02  0.10939183573E+02  0.81990738148E+02  0.70489847182E+02 0.  0.
          4    1    4    4  501    0 -0.88770020223E+01  0.43114932651E+02  0.31816341296E+02  0.54313701364E+02  0.00000000000E+00 0. -1.
         -3    1    4    4    0  501  0.36286189167E+02 -0.20065780133E+02  0.60640587838E+02  0.73461581456E+02  0.00000000000E+00 0.  1.
          5    1    3    3  502    0  0.61774854316E+02 -0.38838628794E+02 -0.28073128996E+02  0.78324723325E+02  0.47000000000E+01 0. -1.
         13    1    6    6    0    0 -0.73904990260E+01  0.33422020214E+01  0.30947945897E+02  0.31993204676E+02  0.00000000000E+00 0. -1.
        -14    1    6    6    0    0  0.16629871749E+02 -0.42694849211E+02 -0.20008762324E+02  0.49997533472E+02  0.00000000000E+00 0.  1.
         -5    1    5    5    0  503 -0.98423414184E+02  0.55142123466E+02  0.13149877112E+02  0.11367863259E+03  0.47000000000E+01 0.  1.
<mgrwt>
<rscale>  2 0.19538307E+03</rscale>
<asrwt>0</asrwt>
<pdfrwt beam="1">  1       21 0.37710941E-01 0.19578544E+03</pdfrwt>
<pdfrwt beam="2">  1       21 0.24099732E-01 0.19578544E+03</pdfrwt>
<totfact> 0.11002431E+05</totfact>
</mgrwt>
</event>
<event>
12    1  0.1473662E-001  0.1773343E+03  0.7546771E-02  0.1170504E+00
         21   -1    0    0  504  503  0.00000000000E+00  0.00000000000E+00  0.13978197233E+03  0.13978197233E+03  0.00000000000E+00 0.  1.
         21   -1    0    0  502  504 -0.00000000000E+00 -0.00000000000E+00 -0.23147025449E+03  0.23147025449E+03  0.00000000000E+00 0.  1.
          6    2    1    2  502    0 -0.12401162238E+01  0.39221617549E+02 -0.78044256844E+02  0.19339382083E+03  0.17254098278E+03 0.  0.
         24    2    3    3    0    0  0.26829722419E+02  0.77346773895E+02 -0.22978636565E+02  0.12062187621E+03  0.85552684612E+02 0.  0.
         -6    2    1    2    0  503  0.12401162238E+01 -0.39221617549E+02 -0.13644025319E+02  0.17785840599E+03  0.17293808135E+03 0.  0.
        -24    2    5    5    0    0 -0.51322476383E+02  0.10317561667E+02 -0.36747173672E+02  0.10187944915E+03  0.79300811625E+02 0.  0.
          4    1    4    4  501    0  0.30213968791E+02  0.13876135569E+02  0.24488263471E+02  0.41292930343E+02  0.00000000000E+00 0. -1.
         -3    1    4    4    0  501 -0.33842463726E+01  0.63470638326E+02 -0.47466900036E+02  0.79328945865E+02  0.00000000000E+00 0.  1.
          5    1    3    3  502    0 -0.28069838642E+02 -0.38125156345E+02 -0.55065620278E+02  0.72771944624E+02  0.47000000000E+01 0. -1.
         13    1    6    6    0    0 -0.31512762343E+02  0.29697214120E+02  0.12761426672E+02  0.45142360679E+02  0.00000000000E+00 0. -1.
        -14    1    6    6    0    0 -0.19809714040E+02 -0.19379652454E+02 -0.49508600344E+02  0.56737088466E+02  0.00000000000E+00 0.  1.
         -5    1    5    5    0  503  0.52562592607E+02 -0.49539179216E+02  0.23103148354E+02  0.75978956842E+02  0.47000000000E+01 0.  1.
<mgrwt>
<rscale>  2 0.17723741E+03</rscale>
<asrwt>0</asrwt>
<pdfrwt beam="1">  1       21 0.21504919E-01 0.17733430E+03</pdfrwt>
<pdfrwt beam="2">  1       21 0.35610808E-01 0.17733430E+03</pdfrwt>
<totfact> 0.15394807E+05</totfact>
</mgrwt>
</event>
<event>
12    1  0.1473662E-001  0.2272644E+03  0.7546771E-02  0.1128581E+00
         21   -1    0    0  504  503  0.00000000000E+00  0.00000000000E+00  0.40721246443E+02  0.40721246443E+02  0.00000000000E+00 0.  1.
         21   -1    0    0  502  504 -0.00000000000E+00 -0.00000000000E+00 -0.13165154197E+04  0.13165154197E+04  0.00000000000E+00 0.  1.
          6    2    1    2  502    0  0.13403273807E+03 -0.60174493789E+02 -0.50807625611E+03  0.55658833888E+03  0.17338786686E+03 0.  0.
         24    2    3    3    0    0  0.13800569922E+03 -0.97594162614E+02 -0.44644203769E+03  0.48422202824E+03  0.81180576639E+02 0.  0.
         -6    2    1    2    0  503 -0.13403273807E+03  0.60174493789E+02 -0.76771791718E+03  0.80064832729E+03  0.17338165724E+03 0.  0.
        -24    2    5    5    0    0 -0.38355641914E+02  0.88361178583E+02 -0.36660359291E+03  0.38729208014E+03  0.79486526267E+02 0.  0.
          4    1    4    4  501    0  0.40337175098E+02 -0.42927751187E+02 -0.69969717657E+02  0.91463877601E+02  0.00000000000E+00 0. -1.
         -3    1    4    4    0  501  0.97668524118E+02 -0.54666411426E+02 -0.37647232004E+03  0.39275815064E+03  0.00000000000E+00 0.  1.
          5    1    3    3  502    0 -0.39729611415E+01  0.37419668825E+02 -0.61634218421E+02  0.72366310639E+02  0.47000000000E+01 0. -1.
         13    1    6    6    0    0  0.14774787526E+02  0.65154801080E+02 -0.18847153194E+03  0.19996239847E+03  0.00000000000E+00 0. -1.
        -14    1    6    6    0    0 -0.53130429440E+02  0.23206377503E+02 -0.17813206097E+03  0.18732968167E+03  0.00000000000E+00 0.  1.
         -5    1    5    5    0  503 -0.95677096160E+02 -0.28186684794E+02 -0.40111432427E+03  0.41335624715E+03  0.47000000000E+01 0.  1.
<mgrwt>
<rscale>  2 0.22726319E+03</rscale>
<asrwt>0</asrwt>
<pdfrwt beam="1">  1       21 0.62648065E-02 0.22726438E+03</pdfrwt>
<pdfrwt beam="2">  1       21 0.20254085E+00 0.22726438E+03</pdfrwt>
<totfact> 0.23105841E+04</totfact>
</mgrwt>
</event>
<event>
12    1  0.1473662E-001  0.2201515E+03  0.7546771E-02  0.1133836E+00
         21   -1    0    0  504  503  0.00000000000E+00  0.00000000000E+00  0.45132782131E+03  0.45132782131E+03  0.00000000000E+00 0.  1.
         21   -1    0    0  502  504 -0.00000000000E+00 -0.00000000000E+00 -0.11636389398E+03  0.11636389398E+03  0.00000000000E+00 0.  1.
          6    2    1    2  502    0  0.32313846753E+02  0.13138172055E+03  0.88019021021E+02  0.23709500910E+03  0.17367024527E+03 0.  0.
         24    2    3    3    0    0  0.83701361129E+02  0.71159887062E+02  0.29360883029E+02  0.13845316699E+03  0.78978292052E+02 0.  0.
         -6    2    1    2    0  503 -0.32313846753E+02 -0.13138172055E+03  0.24694490632E+03  0.33059670619E+03  0.17322544328E+03 0.  0.
        -24    2    5    5    0    0  0.34784645872E+02 -0.64554801741E+02  0.18507440177E+03  0.21737968396E+03  0.87316085520E+02 0.  0.
          2    1    4    4  501    0  0.46600049865E+02  0.77106076708E+02  0.41185975154E+02  0.99061578133E+02  0.00000000000E+00 0. -1.
         -1    1    4    4    0  501  0.37101311264E+02 -0.59461896463E+01 -0.11825092125E+02  0.39391588856E+02  0.00000000000E+00 0.  1.
          5    1    3    3  502    0 -0.51387514375E+02  0.60221833490E+02  0.58658137992E+02  0.98641842112E+02  0.47000000000E+01 0. -1.
         13    1    6    6    0    0  0.16071421399E+02 -0.43179216254E+02  0.18320412708E+03  0.18890867497E+03  0.00000000000E+00 0. -1.
        -14    1    6    6    0    0  0.18713224473E+02 -0.21375585487E+02  0.18702746923E+01  0.28471008983E+02  0.00000000000E+00 0.  1.
         -5    1    5    5    0  503 -0.67098492626E+02 -0.66826918811E+02  0.61870504547E+02  0.11321702223E+03  0.47000000000E+01 0.  1.
<mgrwt>
<rscale>  2 0.22006380E+03</rscale>
<asrwt>0</asrwt>
<pdfrwt beam="1">  1       21 0.69435048E-01 0.22015153E+03</pdfrwt>
<pdfrwt beam="2">  1       21 0.17902138E-01 0.22015153E+03</pdfrwt>
<totfact> 0.52802497E+04</totfact>
</mgrwt>
</event>
<event>
12    1  0.1473662E-001  0.2398106E+03  0.7546771E-02  0.1120074E+00
         21   -1    0    0  504  503  0.00000000000E+00  0.00000000000E+00  0.14567729762E+03  0.14567729762E+03  0.00000000000E+00 0. -1.
         21   -1    0    0  502  504 -0.00000000000E+00 -0.00000000000E+00 -0.45088509406E+03  0.45088509406E+03  0.00000000000E+00 0. -1.
          6    2    1    2  502    0 -0.63393387582E+02  0.15261305558E+03 -0.25950649170E+03  0.35334505573E+03  0.17378044439E+03 0.  0.
         24    2    3    3    0    0  0.71415454562E+01  0.83143018426E+02 -0.77656573248E+02  0.14623941679E+03  0.91606006731E+02 0.  0.
         -6    2    1    2    0  503  0.63393387582E+02 -0.15261305558E+03 -0.45701304748E+02  0.24321733595E+03  0.17250100559E+03 0.  0.
        -24    2    5    5    0    0  0.54902880371E+02 -0.11997537689E+02 -0.13151878501E+02  0.98557847033E+02  0.79889987608E+02 0.  0.
          2    1    4    4  501    0  0.45163691083E+02  0.70729853849E+02 -0.52773647062E+02  0.99133894516E+02  0.00000000000E+00 0. -1.
         -1    1    4    4    0  501 -0.38022145626E+02  0.12413164576E+02 -0.24882926186E+02  0.47105522271E+02  0.00000000000E+00 0.  1.
          5    1    3    3  502    0 -0.70534933038E+02  0.69470037157E+02 -0.18184991845E+03  0.20710563894E+03  0.47000000000E+01 0. -1.
         11    1    6    6    0    0  0.44162836093E+02 -0.43379048299E+02  0.23436651789E+01  0.61948290449E+02  0.00000000000E+00 0. -1.
        -12    1    6    6    0    0  0.10740044279E+02  0.31381510610E+02 -0.15495543680E+02  0.36609556584E+02  0.00000000000E+00 0.  1.
         -5    1    5    5    0  503  0.84905072108E+01 -0.14061551789E+03 -0.32549426247E+02  0.14465948892E+03  0.47000000000E+01 0.  1.
<mgrwt>
<rscale>  2 0.23957885E+03</rscale>
<asrwt>0</asrwt>
<pdfrwt beam="1">  1       21 0.22411892E-01 0.23981057E+03</pdfrwt>
<pdfrwt beam="2">  1       21 0.69366936E-01 0.23981057E+03</pdfrwt>
<totfact> 0.34411734E+04</totfact>
</mgrwt>
</event>
<event>
12    1  0.1473662E-001  0.2279668E+03  0.7546771E-02  0.1130451E+00
         21   -1    0    0  504  503  0.00000000000E+00  0.00000000000E+00  0.31201373690E+03  0.31201373690E+03  0.00000000000E+00 0. -1.
         21   -1    0    0  502  504 -0.00000000000E+00 -0.00000000000E+00 -0.15826469154E+03  0.15826469154E+03  0.00000000000E+00 0. -1.
          6    2    1    2  502    0  0.44690961643E+02  0.12237766554E+03  0.60319720985E+02  0.23581204205E+03  0.18707024179E+03 0.  0.
         24    2    3    3    0    0  0.95174702405E+02  0.41581576162E+02  0.22356981525E+02  0.13314814515E+03  0.80257974557E+02 0.  0.
         -6    2    1    2    0  503 -0.44690961643E+02 -0.12237766554E+03  0.93429324382E+02  0.23446638638E+03  0.17109024699E+03 0.  0.
        -24    2    5    5    0    0  0.21618189125E+02 -0.16620407167E+02  0.63102860711E+02  0.10592345358E+03  0.80586741798E+02 0.  0.
          4    1    4    4  501    0  0.99980384603E+02  0.56368061900E+02  0.24759504685E+02  0.11741579442E+03  0.00000000000E+00 0. -1.
         -3    1    4    4    0  501 -0.48056821979E+01 -0.14786485738E+02 -0.24025231596E+01  0.15732350727E+02  0.00000000000E+00 0.  1.
          5    1    3    3  502    0 -0.50483740762E+02  0.80796089379E+02  0.37962739459E+02  0.10266389690E+03  0.47000000000E+01 0. -1.
         11    1    6    6    0    0 -0.21885958210E+02 -0.23800024769E+02  0.50677404778E+02  0.60113523444E+02  0.00000000000E+00 0. -1.
        -12    1    6    6    0    0  0.43504147335E+02  0.71796176015E+01  0.12425455933E+02  0.45809930140E+02  0.00000000000E+00 0.  1.
         -5    1    5    5    0  503 -0.66309150768E+02 -0.10575725837E+03  0.30326463671E+02  0.12854293280E+03  0.47000000000E+01 0.  1.
<mgrwt>
<rscale>  2 0.22466597E+03</rscale>
<asrwt>0</asrwt>
<pdfrwt beam="1">  1       21 0.48002113E-01 0.22796677E+03</pdfrwt>
<pdfrwt beam="2">  1       21 0.24348414E-01 0.22796677E+03</pdfrwt>
<totfact> 0.65055683E+04</totfact>
</mgrwt>
</event>
<event>
12    1  0.1473662E-001  0.1959128E+03  0.7546771E-02  0.1153333E+00
         21   -1    0    0  504  503  0.00000000000E+00  0.00000000000E+00  0.24402083569E+03  0.24402083569E+03  0.00000000000E+00 0. -1.
         21   -1    0    0  502  504 -0.00000000000E+00 -0.00000000000E+00 -0.49937441176E+03  0.49937441176E+03  0.00000000000E+00 0. -1.
          6    2    1    2  502    0 -0.59657839992E+02 -0.69163967166E+02 -0.43552863474E+03  0.47756361927E+03  0.17331793488E+03 0.  0.
         24    2    3    3    0    0  0.12786363062E+02  0.85103453764E+01 -0.25941465217E+03  0.27184612794E+03  0.79802496554E+02 0.  0.
         -6    2    1    2    0  503  0.59657839992E+02  0.69163967166E+02  0.18017505867E+03  0.26583162819E+03  0.17280246107E+03 0.  0.
        -24    2    5    5    0    0  0.96405151411E+02  0.74420241402E+02  0.17423099460E+03  0.22794475430E+03  0.82280289147E+02 0.  0.
          2    1    4    4  501    0  0.14740882529E+02 -0.33752487496E+02 -0.15202669369E+03  0.15642454930E+03  0.00000000000E+00 0. -1.
         -1    1    4    4    0  501 -0.19545194666E+01  0.42262832872E+02 -0.10738795849E+03  0.11542157864E+03  0.00000000000E+00 0.  1.
          5    1    3    3  502    0 -0.72444203054E+02 -0.77674312542E+02 -0.17611398256E+03  0.20571749133E+03  0.47000000000E+01 0. -1.
         11    1    6    6    0    0  0.10000159958E+03  0.34153185628E+02  0.11441532112E+03  0.15574859779E+03  0.00000000000E+00 0. -1.
        -12    1    6    6    0    0 -0.35964481659E+01  0.40267055775E+02  0.59815673484E+02  0.72196156508E+02  0.00000000000E+00 0.  1.
         -5    1    5    5    0  503 -0.36747311420E+02 -0.52562742367E+01  0.59440640621E+01  0.37886873888E+02  0.47000000000E+01 0.  1.
<mgrwt>
<rscale>  2 0.19579872E+03</rscale>
<asrwt>0</asrwt>
<pdfrwt beam="1">  1       21 0.37541667E-01 0.19591278E+03</pdfrwt>
<pdfrwt beam="2">  1       21 0.76826832E-01 0.19591278E+03</pdfrwt>
<totfact> 0.10286468E+04</totfact>
</mgrwt>
</event>
<event>
12    1  0.1473662E-001  0.2161134E+03  0.7546771E-02  0.1136849E+00
         21   -1    0    0  504  503  0.00000000000E+00  0.00000000000E+00  0.39589451498E+03  0.39589451498E+03  0.00000000000E+00 0.  1.
         21   -1    0    0  502  504 -0.00000000000E+00 -0.00000000000E+00 -0.13838109512E+03  0.13838109512E+03  0.00000000000E+00 0.  1.
          6    2    1    2  502    0  0.78017557384E+02  0.10335339570E+03  0.25870467143E+02  0.21747366602E+03  0.17279135013E+03 0.  0.
         24    2    3    3    0    0  0.57761500464E+02  0.24420288361E+02  0.65522170372E+02  0.12672626471E+03  0.88507908902E+02 0.  0.
         -6    2    1    2    0  503 -0.78017557384E+02 -0.10335339570E+03  0.23164295272E+03  0.31680194408E+03  0.17302124309E+03 0.  0.
        -24    2    5    5    0    0 -0.65054235125E+02 -0.11811558511E+03  0.10643395661E+03  0.18997390038E+03  0.81108265626E+02 0.  0.
          2    1    4    4  501    0  0.65225439557E+02  0.15390954517E+02  0.82380673576E+02  0.10619705658E+03  0.00000000000E+00 0. -1.
         -1    1    4    4    0  501 -0.74639390930E+01  0.90293338445E+01 -0.16858503204E+02  0.20529208137E+02  0.00000000000E+00 0.  1.
          5    1    3    3  502    0  0.20256056920E+02  0.78933107337E+02 -0.39651703229E+02  0.90747401312E+02  0.47000000000E+01 0. -1.
         11    1    6    6    0    0 -0.23338438831E+02 -0.27927340686E+02 -0.91696721004E+01  0.37532678712E+02  0.00000000000E+00 0. -1.
        -12    1    6    6    0    0 -0.41715796294E+02 -0.90188244423E+02  0.11560362872E+03  0.15244122167E+03  0.00000000000E+00 0.  1.
         -5    1    5    5    0  503 -0.12963322259E+02  0.14762189411E+02  0.12520899611E+03  0.12682804369E+03  0.47000000000E+01 0.  1.
<mgrwt>
<rscale>  2 0.21606741E+03</rscale>
<asrwt>0</asrwt>
<pdfrwt beam="1">  1       21 0.60906848E-01 0.21611343E+03</pdfrwt>
<pdfrwt beam="2">  1       21 0.21289399E-01 0.21611343E+03</pdfrwt>
<totfact> 0.50942175E+04</totfact>
</mgrwt>
</event>
<event>
12    1  0.1473662E-001  0.2305571E+03  0.7546771E-02  0.1126429E+00
         21   -1    0    0  504  503  0.00000000000E+00  0.00000000000E+00  0.78062459815E+02  0.78062459815E+02  0.00000000000E+00 0. -1.
         21   -1    0    0  502  504 -0.00000000000E+00 -0.00000000000E+00 -0.96792543012E+03  0.96792543012E+03  0.00000000000E+00 0. -1.
          6    2    1    2  502    0  0.12816405337E+03 -0.83299032130E+02 -0.73050632819E+03  0.76571814442E+03  0.17123091962E+03 0.  0.
         24    2    3    3    0    0  0.78838642812E+01 -0.10464657944E+02 -0.19749025670E+03  0.21444653041E+03  0.82542404430E+02 0.  0.
         -6    2    1    2    0  503 -0.12816405337E+03  0.83299032130E+02 -0.15935664211E+03  0.28026974551E+03  0.17260312145E+03 0.  0.
        -24    2    5    5    0    0 -0.12100389723E+03  0.14145430402E+02 -0.14869196253E+03  0.20977638513E+03  0.83992831185E+02 0.  0.
          2    1    4    4  501    0  0.11056666423E+02  0.30549822549E+02 -0.14021061100E+03  0.14392552577E+03  0.00000000000E+00 0. -1.
         -1    1    4    4    0  501 -0.31728021413E+01 -0.41014480493E+02 -0.57279645697E+02  0.70521004635E+02  0.00000000000E+00 0.  1.
          5    1    3    3  502    0  0.12028018909E+03 -0.72834374186E+02 -0.53301607149E+03  0.55127161401E+03  0.47000000000E+01 0. -1.
         11    1    6    6    0    0 -0.57078904655E+02  0.29893443165E+02 -0.23974944114E+02  0.68748943600E+02  0.00000000000E+00 0. -1.
        -12    1    6    6    0    0 -0.63924992579E+02 -0.15748012763E+02 -0.12471701841E+03  0.14102744153E+03  0.00000000000E+00 0.  1.
         -5    1    5    5    0  503 -0.71601561356E+01  0.69153601728E+02 -0.10664679585E+02  0.70493360385E+02  0.47000000000E+01 0.  1.
<mgrwt>
<rscale>  2 0.23030033E+03</rscale>
<asrwt>0</asrwt>
<pdfrwt beam="1">  1       21 0.12009610E-01 0.23055713E+03</pdfrwt>
<pdfrwt beam="2">  1       21 0.14891160E+00 0.23055713E+03</pdfrwt>
<totfact> 0.17417052E+04</totfact>
</mgrwt>
</event>
<event>
12    1  0.1473662E-001  0.1800776E+03  0.7546771E-02  0.1168011E+00
         21   -1    0    0  504  503  0.00000000000E+00  0.00000000000E+00  0.14923731233E+03  0.14923731233E+03  0.00000000000E+00 0. -1.
         21   -1    0    0  502  504 -0.00000000000E+00 -0.00000000000E+00 -0.22429789725E+03  0.22429789725E+03  0.00000000000E+00 0. -1.
          6    2    1    2  502    0 -0.16303634892E+02 -0.47970966472E+02 -0.73812735196E+02  0.19461822950E+03  0.17280310541E+03 0.  0.
         24    2    3    3    0    0 -0.73347252576E+02 -0.34628540249E+02 -0.30780831856E+02  0.12177710539E+03  0.85459045909E+02 0.  0.
         -6    2    1    2    0  503  0.16303634892E+02  0.47970966472E+02 -0.12478497305E+01  0.17891698008E+03  0.17158877148E+03 0.  0.
        -24    2    5    5    0    0  0.62135650820E+02  0.55550826511E+02 -0.35858878915E+02  0.12079606041E+03  0.79743937605E+02 0.  0.
          2    1    4    4  501    0 -0.12729994912E+02  0.24800046203E+02  0.71805556702E+01  0.28786375976E+02  0.00000000000E+00 0. -1.
         -1    1    4    4    0  501 -0.60617257664E+02 -0.59428586452E+02 -0.37961387526E+02  0.92990729415E+02  0.00000000000E+00 0.  1.
          5    1    3    3  502    0  0.57043617684E+02 -0.13342426223E+02 -0.43031903340E+02  0.72841124106E+02  0.47000000000E+01 0. -1.
         11    1    6    6    0    0  0.45834069504E+01  0.29345463977E+02  0.20499932293E+02  0.36088933197E+02  0.00000000000E+00 0. -1.
        -12    1    6    6    0    0  0.57552243870E+02  0.26205362534E+02 -0.56358811208E+02  0.84707127214E+02  0.00000000000E+00 0.  1.
         -5    1    5    5    0  503 -0.45832015928E+02 -0.75798600391E+01  0.34611029185E+02  0.58120919672E+02  0.47000000000E+01 0.  1.
<mgrwt>
<rscale>  2 0.17978563E+03</rscale>
<asrwt>0</asrwt>
<pdfrwt beam="1">  1       21 0.22959587E-01 0.18007758E+03</pdfrwt>
<pdfrwt beam="2">  1       21 0.34507369E-01 0.18007758E+03</pdfrwt>
<totfact> 0.14472232E+05</totfact>
</mgrwt>
</event>
<event>
12    1  0.1473662E-001  0.2030470E+03  0.7546771E-02  0.1147343E+00
         21   -1    0    0  504  503  0.00000000000E+00  0.00000000000E+00  0.78965050557E+02  0.78965050557E+02  0.00000000000E+00 0. -1.
         21   -1    0    0  502  504 -0.00000000000E+00 -0.00000000000E+00 -0.57215803466E+03  0.57215803466E+03  0.00000000000E+00 0. -1.
          6    2    1    2  502    0  0.83280306436E+02  0.65540910562E+02 -0.14813668716E+03  0.25075835025E+03  0.17234863428E+03 0.  0.
         24    2    3    3    0    0  0.82150581009E+02  0.10881375960E+03 -0.11822077437E+03  0.19792968775E+03  0.81307180247E+02 0.  0.
         -6    2    1    2    0  503 -0.83280306436E+02 -0.65540910562E+02 -0.34505629695E+03  0.40036473497E+03  0.17319599461E+03 0.  0.
        -24    2    5    5    0    0 -0.11089936424E+02 -0.57164406795E+02 -0.91737631937E+02  0.13678542740E+03  0.83088530745E+02 0.  0.
          4    1    4    4  501    0  0.98695803143E+02  0.94021149783E+02 -0.97759713105E+02  0.16774325522E+03  0.00000000000E+00 0. -1.
         -3    1    4    4    0  501 -0.16545222134E+02  0.14792609821E+02 -0.20461061267E+02  0.30186432531E+02  0.00000000000E+00 0.  1.
          5    1    3    3  502    0  0.11297254267E+01 -0.43272849041E+02 -0.29915912789E+02  0.52828662502E+02  0.47000000000E+01 0. -1.
         11    1    6    6    0    0 -0.44516144121E+02 -0.14198754459E+02 -0.47626148750E+02  0.66719875303E+02  0.00000000000E+00 0. -1.
        -12    1    6    6    0    0  0.33426207698E+02 -0.42965652336E+02 -0.44111483187E+02  0.70065552097E+02  0.00000000000E+00 0.  1.
         -5    1    5    5    0  503 -0.72190370012E+02 -0.83765037676E+01 -0.25331866501E+03  0.26357930757E+03  0.47000000000E+01 0.  1.
<mgrwt>
<rscale>  2 0.20286616E+03</rscale>
<asrwt>0</asrwt>
<pdfrwt beam="1">  1       21 0.12148469E-01 0.20304697E+03</pdfrwt>
<pdfrwt beam="2">  1       21 0.88024312E-01 0.20304697E+03</pdfrwt>
<totfact> 0.63165951E+04</totfact>
</mgrwt>
</event>
<event>
12    1  0.1473662E-001  0.1745335E+03  0.7546771E-02  0.1173340E+00
         21   -1    0    0  504  503  0.00000000000E+00  0.00000000000E+00  0.19111050802E+02  0.19111050802E+02  0.00000000000E+00 0.  1.
         21   -1    0    0  502  504 -0.00000000000E+00 -0.00000000000E+00 -0.22149484789E+04  0.22149484789E+04  0.00000000000E+00 0.  1.
          6    2    1    2  502    0  0.19035362168E+01 -0.23802239347E+02 -0.16905260387E+04  0.16994554254E+04  0.17233770736E+03 0.  0.
         24    2    3    3    0    0  0.45651890094E+02 -0.52730338840E+02 -0.14207863596E+04  0.14246239536E+04  0.77813532774E+02 0.  0.
         -6    2    1    2    0  503 -0.19035362168E+01  0.23802239347E+02 -0.50531138940E+03  0.53460410429E+03  0.17289238856E+03 0.  0.
        -24    2    5    5    0    0 -0.61279121054E+02  0.31395692438E+02 -0.19480029040E+03  0.21834099673E+03  0.70603240237E+02 0.  0.
          4    1    4    4  501    0  0.55051510886E+02 -0.30182818363E+02 -0.12930169024E+04  0.12945402201E+04  0.00000000000E+00 0. -1.
         -3    1    4    4    0  501 -0.93996207921E+01 -0.22547520477E+02 -0.12776945717E+03  0.13008373355E+03  0.00000000000E+00 0.  1.
          5    1    3    3  502    0 -0.43748353877E+02  0.28928099493E+02 -0.26973967904E+03  0.27483147174E+03  0.47000000000E+01 0. -1.
         11    1    6    6    0    0 -0.48092243308E+02  0.39342818206E+02 -0.19310051746E+03  0.20285100704E+03  0.00000000000E+00 0. -1.
        -12    1    6    6    0    0 -0.13186877746E+02 -0.79471257678E+01 -0.16997729362E+01  0.15489989693E+02  0.00000000000E+00 0.  1.
         -5    1    5    5    0  503  0.59375584837E+02 -0.75934530915E+01 -0.31051109900E+03  0.31626310756E+03  0.47000000000E+01 0.  1.
<mgrwt>
<rscale>  2 0.17439599E+03</rscale>
<asrwt>0</asrwt>
<pdfrwt beam="1">  1       21 0.29401604E-02 0.17453352E+03</pdfrwt>
<pdfrwt beam="2">  1       21 0.34076145E+00 0.17453352E+03</pdfrwt>
<totfact> 0.13248422E+04</totfact>
</mgrwt>
</event>
<event>
12    1  0.1473662E-001  0.2849948E+03  0.7546771E-02  0.1093038E+00
         21   -1    0    0  504  503  0.00000000000E+00  0.00000000000E+00  0.52135091397E+02  0.52135091397E+02  0.00000000000E+00 0. -1.
         21   -1    0    0  502  504 -0.00000000000E+00 -0.00000000000E+00 -0.18170947274E+04  0.18170947274E+04  0.00000000000E+00 0.  1.
          6    2    1    2  502    0  0.18621040516E+03 -0.12973122315E+03 -0.12362782722E+04  0.12686251185E+04  0.17181740168E+03 0.  0.
         24    2    3    3    0    0  0.13427645065E+03 -0.39739572319E+02 -0.90422391199E+03  0.92066273398E+03  0.10192932806E+03 0.  0.
         -6    2    1    2    0  503 -0.18621040516E+03  0.12973122315E+03 -0.52868136376E+03  0.60060470033E+03  0.17238769222E+03 0.  0.
        -24    2    5    5    0    0 -0.14488926438E+03  0.18825189063E+02 -0.30489371030E+03  0.34740401133E+03  0.79887957994E+02 0.  0.
          4    1    4    4  501    0  0.16450211476E+02  0.31318300612E+02 -0.16642295127E+03  0.17014124756E+03  0.00000000000E+00 0. -1.
         -3    1    4    4    0  501  0.11782623918E+03 -0.71057872931E+02 -0.73780096072E+03  0.75052148642E+03  0.00000000000E+00 0.  1.
          5    1    3    3  502    0  0.51933954509E+02 -0.89991650832E+02 -0.33205436026E+03  0.34796238448E+03  0.47000000000E+01 0. -1.
         11    1    6    6    0    0 -0.12033146645E+03  0.35004849036E+02 -0.18154685057E+03  0.22059977385E+03  0.00000000000E+00 0. -1.
        -12    1    6    6    0    0 -0.24557797931E+02 -0.16179659973E+02 -0.12334685974E+03  0.12680423748E+03  0.00000000000E+00 0.  1.
         -5    1    5    5    0  503 -0.41321140785E+02  0.11090603409E+03 -0.22378765345E+03  0.25320068900E+03  0.47000000000E+01 0.  1.
<mgrwt>
<rscale>  2 0.28490859E+03</rscale>
<asrwt>0</asrwt>
<pdfrwt beam="1">  1       21 0.80207836E-02 0.28499477E+03</pdfrwt>
<pdfrwt beam="2">  1       21 0.27955302E+00 0.28499477E+03</pdfrwt>
<totfact> 0.49151245E+03</totfact>
</mgrwt>
</event>
<event>
12    1  0.1473662E-001  0.1965734E+03  0.7546771E-02  0.1153238E+00
         21   -1    0    0  504  503  0.00000000000E+00  0.00000000000E+00  0.72776357117E+02  0.72776357117E+02  0.00000000000E+00 0. -1.
         21   -1    0    0  502  504 -0.00000000000E+00 -0.00000000000E+00 -0.68182761873E+03  0.68182761873E+03  0.00000000000E+00 0. -1.
          6    2    1    2  502    0 -0.24099977792E+02 -0.88294675036E+02 -0.48456265551E+03  0.52192709893E+03  0.17096833307E+03 0.  0.
         24    2    3    3    0    0 -0.17566242209E+02 -0.10496137767E+03 -0.48549041895E+03  0.50339551987E+03  0.79878901220E+02 0.  0.
         -6    2    1    2    0  503  0.24099977792E+02  0.88294675036E+02 -0.12448860610E+03  0.23267687692E+03  0.17396654113E+03 0.  0.
        -24    2    5    5    0    0 -0.49383755284E+02  0.18387415970E+02 -0.60114199687E+02  0.11245608796E+03  0.79093630353E+02 0.  0.
          2    1    4    4  501    0 -0.45601161333E+02 -0.68808246226E+02 -0.37163689367E+03  0.38069413103E+03  0.00000000000E+00 0. -1.
         -1    1    4    4    0  501  0.28034919124E+02 -0.36153131445E+02 -0.11385352529E+03  0.12270138884E+03  0.00000000000E+00 0.  1.
          5    1    3    3  502    0 -0.65337355827E+01  0.16666702635E+02  0.92776344582E+00  0.18531579058E+02  0.47000000000E+01 0. -1.
         13    1    6    6    0    0 -0.10988803183E+02  0.35776165468E+02  0.19001316409E+01  0.37473968447E+02  0.00000000000E+00 0. -1.
        -14    1    6    6    0    0 -0.38394952102E+02 -0.17388749498E+02 -0.62014331328E+02  0.74982119509E+02  0.00000000000E+00 0.  1.
         -5    1    5    5    0  503  0.73483733076E+02  0.69907259066E+02 -0.64374406417E+02  0.12022078896E+03  0.47000000000E+01 0.  1.
<mgrwt>
<rscale>  2 0.19590797E+03</rscale>
<asrwt>0</asrwt>
<pdfrwt beam="1">  1       21 0.11196362E-01 0.19657344E+03</pdfrwt>
<pdfrwt beam="2">  1       21 0.10489656E+00 0.19657344E+03</pdfrwt>
<totfact> 0.48536065E+04</totfact>
</mgrwt>
</event>
<event>
12    1  0.1473662E-001  0.2022617E+03  0.7546771E-02  0.1148145E+00
         21   -1    0    0  504  503  0.00000000000E+00  0.00000000000E+00  0.11323133937E+03  0.11323133937E+03  0.00000000000E+00 0. -1.
         21   -1    0    0  502  504 -0.00000000000E+00 -0.00000000000E+00 -0.12222293031E+04  0.12222293031E+04  0.00000000000E+00 0. -1.
          6    2    1    2  502    0  0.64907758776E+02 -0.76398928526E+02 -0.11163292017E+04  0.11345045917E+04  0.17567005574E+03 0.  0.
         24    2    3    3    0    0 -0.16187094271E+02 -0.20941188225E+02 -0.29075084295E+03  0.30308793763E+03  0.81398340739E+02 0.  0.
         -6    2    1    2    0  503 -0.64907758776E+02  0.76398928526E+02  0.73312380285E+01  0.20095605075E+03  0.17401084407E+03 0.  0.
        -24    2    5    5    0    0 -0.45965091101E+02 -0.77318208558E+01 -0.39331787973E+02  0.10279121160E+03  0.82743416555E+02 0.  0.
          4    1    4    4  501    0 -0.20198033614E+02 -0.50666439389E+02 -0.16383528902E+03  0.17267614361E+03  0.00000000000E+00 0. -1.
         -3    1    4    4    0  501  0.40109393424E+01  0.29725251164E+02 -0.12691555393E+03  0.13041179402E+03  0.00000000000E+00 0.  1.
          5    1    3    3  502    0  0.81094853047E+02 -0.55457740301E+02 -0.82557835877E+03  0.83141665404E+03  0.47000000000E+01 0. -1.
         13    1    6    6    0    0 -0.33983183118E+02  0.26231621181E+02  0.76371628391E+01  0.43603680359E+02  0.00000000000E+00 0. -1.
        -14    1    6    6    0    0 -0.11981907983E+02 -0.33963442037E+02 -0.46968950812E+02  0.59187531240E+02  0.00000000000E+00 0.  1.
         -5    1    5    5    0  503 -0.18942667675E+02  0.84130749382E+02  0.46663026001E+02  0.98164839152E+02  0.47000000000E+01 0.  1.
<mgrwt>
<rscale>  2 0.20190086E+03</rscale>
<asrwt>0</asrwt>
<pdfrwt beam="1">  1       21 0.17420206E-01 0.20226167E+03</pdfrwt>
<pdfrwt beam="2">  1       21 0.18803528E+00 0.20226167E+03</pdfrwt>
<totfact> 0.47515585E+03</totfact>
</mgrwt>
</event>
<event>
12    1  0.1473662E-001  0.1949420E+03  0.7546771E-02  0.1154186E+00
         21   -1    0    0  504  503  0.00000000000E+00  0.00000000000E+00  0.65657031191E+03  0.65657031191E+03  0.00000000000E+00 0.  1.
         21   -1    0    0  502  504 -0.00000000000E+00 -0.00000000000E+00 -0.69506272478E+02  0.69506272478E+02  0.00000000000E+00 0.  1.
          6    2    1    2  502    0  0.88655669920E+02 -0.57464370507E+00  0.14443104144E+03  0.24261634780E+03  0.17361511589E+03 0.  0.
         24    2    3    3    0    0  0.99430744821E+02 -0.42978890414E+02  0.14465240464E+03  0.19861224141E+03  0.82394455103E+02 0.  0.
         -6    2    1    2    0  503 -0.88655669920E+02  0.57464370507E+00  0.44263299800E+03  0.48346023659E+03  0.17305973367E+03 0.  0.
        -24    2    5    5    0    0  0.14427168078E+02 -0.94578788030E+01  0.15710300532E+03  0.17969027475E+03  0.85496467224E+02 0.  0.
          4    1    4    4  501    0  0.12913664002E+02 -0.35136121254E+02  0.10658897595E+02  0.38921996772E+02  0.00000000000E+00 0. -1.
         -3    1    4    4    0  501  0.86517080820E+02 -0.78427691598E+01  0.13399350705E+03  0.15969024464E+03  0.00000000000E+00 0.  1.
          5    1    3    3  502    0 -0.10775074901E+02  0.42404246709E+02 -0.22136320335E+00  0.44004106396E+02  0.47000000000E+01 0. -1.
         13    1    6    6    0    0 -0.23194764946E+02 -0.34163754774E+02  0.88223924952E+02  0.97409548788E+02  0.00000000000E+00 0. -1.
        -14    1    6    6    0    0  0.37621933024E+02  0.24705875971E+02  0.68879080367E+02  0.82280725957E+02  0.00000000000E+00 0.  1.
         -5    1    5    5    0  503 -0.10308283800E+03  0.10032522508E+02  0.28552999268E+03  0.30376996184E+03  0.47000000000E+01 0.  1.
<mgrwt>
<rscale>  2 0.19481822E+03</rscale>
<asrwt>0</asrwt>
<pdfrwt beam="1">  1       21 0.10101081E+00 0.19494196E+03</pdfrwt>
<pdfrwt beam="2">  1       21 0.10693273E-01 0.19494196E+03</pdfrwt>
<totfact> 0.57699287E+04</totfact>
</mgrwt>
</event>
<event>
12    1  0.1473662E-001  0.4738205E+03  0.7546771E-02  0.1020870E+00
         21   -1    0    0  504  503  0.00000000000E+00  0.00000000000E+00  0.11766127295E+04  0.11766127295E+04  0.00000000000E+00 0. -1.
         21   -1    0    0  502  504 -0.00000000000E+00 -0.00000000000E+00 -0.28284632537E+03  0.28284632537E+03  0.00000000000E+00 0.  1.
          6    2    1    2  502    0  0.42960556900E+02  0.43908874020E+03  0.30426469428E+02  0.47479637748E+03  0.17280422104E+03 0.  0.
         24    2    3    3    0    0 -0.37007779819E+02  0.15766036146E+03  0.32750119268E+01  0.18093219306E+03  0.80618654432E+02 0.  0.
         -6    2    1    2    0  503 -0.42960556900E+02 -0.43908874020E+03  0.86333993465E+03  0.98466267735E+03  0.17193084126E+03 0.  0.
        -24    2    5    5    0    0 -0.26967601383E+02 -0.12044088650E+03  0.21256362309E+03  0.25987020568E+03  0.84356216574E+02 0.  0.
          4    1    4    4  501    0  0.15790058020E+02  0.39785781674E+02  0.25574026087E+02  0.49862462494E+02  0.00000000000E+00 0. -1.
         -3    1    4    4    0  501 -0.52797837838E+02  0.11787457978E+03 -0.22299014161E+02  0.13106973057E+03  0.00000000000E+00 0.  1.
          5    1    3    3  502    0  0.79968336718E+02  0.28142837874E+03  0.27151457501E+02  0.29386418442E+03  0.47000000000E+01 0. -1.
         13    1    6    6    0    0 -0.47186419793E+02 -0.28021810835E+02  0.76454685802E+02  0.94112162214E+02  0.00000000000E+00 0. -1.
        -14    1    6    6    0    0  0.20218818411E+02 -0.92419075668E+02  0.13610893729E+03  0.16575804347E+03  0.00000000000E+00 0.  1.
         -5    1    5    5    0  503 -0.15992955517E+02 -0.31864785369E+03  0.65077631156E+03  0.72479247166E+03  0.47000000000E+01 0.  1.
<mgrwt>
<rscale>  2 0.47374099E+03</rscale>
<asrwt>0</asrwt>
<pdfrwt beam="1">  1       21 0.18101734E+00 0.47382046E+03</pdfrwt>
<pdfrwt beam="2">  1       21 0.43514820E-01 0.47382046E+03</pdfrwt>
<totfact> 0.75029862E+02</totfact>
</mgrwt>
</event>
<event>
12    1  0.1473662E-001  0.3016244E+03  0.7546771E-02  0.1084481E+00
         21   -1    0    0  504  503  0.00000000000E+00  0.00000000000E+00  0.17830300301E+04  0.17830300301E+04  0.00000000000E+00 0.  1.
         21   -1    0    0  502  504 -0.00000000000E+00 -0.00000000000E+00 -0.13047876563E+03  0.13047876563E+03  0.00000000000E+00 0.  1.
          6    2    1    2  502    0 -0.18698899504E+03  0.16097420273E+03  0.79567771000E+02  0.31194279112E+03  0.17349264117E+03 0.  0.
         24    2    3    3    0    0 -0.62351737165E+02  0.14043805180E+03  0.62782077094E+02  0.18442797212E+03  0.80383469534E+02 0.  0.
         -6    2    1    2    0  503  0.18698899504E+03 -0.16097420273E+03  0.15729834935E+04  0.16015660046E+04  0.17279762207E+03 0.  0.
        -24    2    5    5    0    0  0.15951819998E+03 -0.52830039193E+02  0.10955222143E+04  0.11112179978E+04  0.79996546320E+02 0.  0.
          2    1    4    4  501    0 -0.54799404653E+02  0.12851165203E+03  0.80914991410E+02  0.16144799563E+03  0.00000000000E+00 0. -1.
         -1    1    4    4    0  501 -0.75523325119E+01  0.11926399771E+02 -0.18132914316E+02  0.22979976490E+02  0.00000000000E+00 0.  1.
          5    1    3    3  502    0 -0.12463725788E+03  0.20536150934E+02  0.16785693906E+02  0.12751481901E+03  0.47000000000E+01 0. -1.
         13    1    6    6    0    0 -0.17693588481E+01 -0.17250774687E+02  0.18719618817E+03  0.18799769340E+03  0.00000000000E+00 0. -1.
        -14    1    6    6    0    0  0.16128755883E+03 -0.35579264507E+02  0.90832602613E+03  0.92322030439E+03  0.00000000000E+00 0.  1.
         -5    1    5    5    0  503  0.27470795060E+02 -0.10814416354E+03  0.47746127917E+03  0.49034800682E+03  0.47000000000E+01 0.  1.
<mgrwt>
<rscale>  2 0.30152454E+03</rscale>
<asrwt>0</asrwt>
<pdfrwt beam="1">  1       21 0.27431230E+00 0.30162439E+03</pdfrwt>
<pdfrwt beam="2">  1       21 0.20073658E-01 0.30162439E+03</pdfrwt>
<totfact> 0.98445924E+02</totfact>
</mgrwt>
</event>
<event>
12    1  0.1473662E-001  0.2582491E+03  0.7546771E-02  0.1108272E+00
         21   -1    0    0  504  503  0.00000000000E+00  0.00000000000E+00  0.16569800318E+04  0.16569800318E+04  0.00000000000E+00 0. -1.
         21   -1    0    0  502  504 -0.00000000000E+00 -0.00000000000E+00 -0.45253759114E+02  0.45253759114E+02  0.00000000000E+00 0.  1.
          6    2    1    2  502    0  0.48416611016E+01 -0.19371046195E+03  0.52008647850E+03  0.58046284275E+03  0.16999994691E+03 0.  0.
         24    2    3    3    0    0  0.20759162004E+02 -0.15401488658E+03  0.23917450923E+03  0.29627499991E+03  0.80143007262E+02 0.  0.
         -6    2    1    2    0  503 -0.48416611016E+01  0.19371046195E+03  0.10916397942E+04  0.11217709482E+04  0.17072034191E+03 0.  0.
        -24    2    5    5    0    0 -0.17506687013E+02  0.12688660584E+03  0.41772650159E+03  0.44441797773E+03  0.81272467424E+02 0.  0.
          2    1    4    4  501    0 -0.39584324017E+00 -0.13761131213E+03  0.22991094328E+03  0.26794789001E+03  0.00000000000E+00 0. -1.
         -1    1    4    4    0  501  0.21155005244E+02 -0.16403574447E+02  0.92635659477E+01  0.28327109905E+02  0.00000000000E+00 0.  1.
          5    1    3    3  502    0 -0.15917500902E+02 -0.39695575365E+02  0.28091196927E+03  0.28418784284E+03  0.47000000000E+01 0. -1.
         13    1    6    6    0    0 -0.49775585170E+02  0.64703665734E+02  0.22295777312E+03  0.23743281540E+03  0.00000000000E+00 0. -1.
        -14    1    6    6    0    0  0.32268898156E+02  0.62182940102E+02  0.19476872848E+03  0.20698516232E+03  0.00000000000E+00 0.  1.
         -5    1    5    5    0  503  0.12665025912E+02  0.66823856109E+02  0.67391329264E+03  0.67735297049E+03  0.47000000000E+01 0.  1.
<mgrwt>
<rscale>  2 0.25813014E+03</rscale>
<asrwt>0</asrwt>
<pdfrwt beam="1">  1       21 0.25491996E+00 0.25824914E+03</pdfrwt>
<pdfrwt beam="2">  1       21 0.69621181E-02 0.25824914E+03</pdfrwt>
<totfact> 0.89812614E+03</totfact>
</mgrwt>
</event>
<event>
12    1  0.1473662E-001  0.6973984E+03  0.7546771E-02  0.9721701E-01
         21   -1    0    0  504  503  0.00000000000E+00  0.00000000000E+00  0.10160238242E+04  0.10160238242E+04  0.00000000000E+00 0.  1.
         21   -1    0    0  502  504 -0.00000000000E+00 -0.00000000000E+00 -0.97301842551E+03  0.97301842551E+03  0.00000000000E+00 0. -1.
          6    2    1    2  502    0  0.30851382166E+03 -0.60142597966E+03 -0.68736684172E+03  0.97920261745E+03  0.17167004325E+03 0.  0.
         24    2    3    3    0    0  0.12959321353E+03 -0.21396298333E+03 -0.19158160914E+03  0.32501209139E+03  0.79716920155E+02 0.  0.
         -6    2    1    2    0  503 -0.30851382166E+03  0.60142597966E+03  0.73037224038E+03  0.10098396322E+04  0.17157647309E+03 0.  0.
        -24    2    5    5    0    0 -0.20014187497E+03  0.50489694288E+03  0.61508068169E+03  0.82443044346E+03  0.79897547355E+02 0.  0.
          2    1    4    4  501    0  0.11802846750E+03 -0.13168382396E+03 -0.15104137775E+03  0.23256148956E+03  0.00000000000E+00 0. -1.
         -1    1    4    4    0  501  0.11564746029E+02 -0.82279159370E+02 -0.40540231392E+02  0.92450601830E+02  0.00000000000E+00 0.  1.
          5    1    3    3  502    0  0.17892060813E+03 -0.38746299633E+03 -0.49578523258E+03  0.65419052606E+03  0.47000000000E+01 0. -1.
         13    1    6    6    0    0 -0.23358799513E+02  0.24856360254E+02  0.19409040694E+02  0.39245165567E+02  0.00000000000E+00 0. -1.
        -14    1    6    6    0    0 -0.17678307546E+03  0.48004058263E+03  0.59567164100E+03  0.78518527789E+03  0.00000000000E+00 0.  1.
         -5    1    5    5    0  503 -0.10837194669E+03  0.96529036782E+02  0.11529155869E+03  0.18540918876E+03  0.47000000000E+01 0.  1.
<mgrwt>
<rscale>  2 0.69739269E+03</rscale>
<asrwt>0</asrwt>
<pdfrwt beam="1">  1       21 0.15631136E+00 0.69739844E+03</pdfrwt>
<pdfrwt beam="2">  1       21 0.14969514E+00 0.69739844E+03</pdfrwt>
<totfact> 0.56830013E+01</totfact>
</mgrwt>
</event>
<event>
12    1  0.1473662E-001  0.1993771E+03  0.7546771E-02  0.1150343E+00
         21   -1    0    0  504  503  0.00000000000E+00  0.00000000000E+00  0.28969039238E+03  0.28969039238E+03  0.00000000000E+00 0.  1.
         21   -1    0    0  502  504 -0.00000000000E+00 -0.00000000000E+00 -0.49714179270E+03  0.49714179270E+03  0.00000000000E+00 0.  1.
          6    2    1    2  502    0 -0.98664841529E+02 -0.12352217924E+00 -0.43861558469E+03  0.48180373707E+03  0.17325254316E+03 0.  0.
         24    2    3    3    0    0  0.71754668582E+00 -0.58942853840E+01 -0.29988050106E+03  0.31098314632E+03  0.82139788807E+02 0.  0.
         -6    2    1    2    0  503  0.98664841529E+02  0.12352217924E+00  0.23116418436E+03  0.30502844801E+03  0.17283144318E+03 0.  0.
        -24    2    5    5    0    0  0.81425171593E+02  0.50424365393E+02  0.21672791742E+03  0.24973037525E+03  0.78877087548E+02 0.  0.
          2    1    4    4  501    0  0.76718675900E+01  0.34493415978E+02 -0.82121532940E+02  0.89401339311E+02  0.00000000000E+00 0. -1.
         -1    1    4    4    0  501 -0.69543209042E+01 -0.40387701362E+02 -0.21775896812E+03  0.22158180700E+03  0.00000000000E+00 0.  1.
          5    1    3    3  502    0 -0.99382388215E+02  0.57707632047E+01 -0.13873508363E+03  0.17082059075E+03  0.47000000000E+01 0. -1.
         11    1    6    6    0    0  0.66512870442E+01  0.15576551281E+01  0.11146738006E+03  0.11167650929E+03  0.00000000000E+00 0. -1.
        -12    1    6    6    0    0  0.74773884548E+02  0.48866710265E+02  0.10526053735E+03  0.13805386596E+03  0.00000000000E+00 0.  1.
         -5    1    5    5    0  503  0.17239669937E+02 -0.50300843214E+02  0.14436266947E+02  0.55298072759E+02  0.47000000000E+01 0.  1.
<mgrwt>
<rscale>  2 0.19928554E+03</rscale>
<asrwt>0</asrwt>
<pdfrwt beam="1">  1       21 0.44567753E-01 0.19937705E+03</pdfrwt>
<pdfrwt beam="2">  1       21 0.76483352E-01 0.19937705E+03</pdfrwt>
<totfact> 0.73192404E+03</totfact>
</mgrwt>
</event>
<event>
12    1  0.1473662E-001  0.2287827E+03  0.7546771E-02  0.1127547E+00
         21   -1    0    0  504  503  0.00000000000E+00  0.00000000000E+00  0.43626725638E+03  0.43626725638E+03  0.00000000000E+00 0.  1.
         21   -1    0    0  502  504 -0.00000000000E+00 -0.00000000000E+00 -0.12914031438E+03  0.12914031438E+03  0.00000000000E+00 0.  1.
          6    2    1    2  502    0 -0.10205635999E+03 -0.10877202559E+03  0.77762089607E+02  0.24163702945E+03  0.17347811752E+03 0.  0.
         24    2    3    3    0    0 -0.11808297502E+03 -0.43075529980E+02  0.84748391788E+02  0.17349174097E+03  0.84368264190E+02 0.  0.
         -6    2    1    2    0  503  0.10205635999E+03  0.10877202559E+03  0.22936485239E+03  0.32377054130E+03  0.17312502343E+03 0.  0.
        -24    2    5    5    0    0  0.39423029689E+02  0.52504461554E+02  0.21480759066E+03  0.23819614855E+03  0.79273011960E+02 0.  0.
          2    1    4    4  501    0 -0.70303193632E+02 -0.64494344178E+02  0.72208727446E+02  0.11965015581E+03  0.00000000000E+00 0. -1.
         -1    1    4    4    0  501 -0.47779781386E+02  0.21418814198E+02  0.12539664342E+02  0.53841585162E+02  0.00000000000E+00 0.  1.
          5    1    3    3  502    0  0.16026615028E+02 -0.65696495606E+02 -0.69863021813E+01  0.68145288482E+02  0.47000000000E+01 0. -1.
         13    1    6    6    0    0  0.13987101023E+02  0.27135175551E+01 -0.19163236513E+01  0.14376177130E+02  0.00000000000E+00 0. -1.
        -14    1    6    6    0    0  0.25435928667E+02  0.49790943999E+02  0.21672391431E+03  0.22381997142E+03  0.00000000000E+00 0.  1.
         -5    1    5    5    0  503  0.62633330301E+02  0.56267564032E+02  0.14557261736E+02  0.85574392758E+02  0.47000000000E+01 0.  1.
<mgrwt>
<rscale>  2 0.22871574E+03</rscale>
<asrwt>0</asrwt>
<pdfrwt beam="1">  1       21 0.67118039E-01 0.22878267E+03</pdfrwt>
<pdfrwt beam="2">  1       21 0.19867741E-01 0.22878267E+03</pdfrwt>
<totfact> 0.46679672E+04</totfact>
</mgrwt>
</event>
<event>
12    1  0.1473662E-001  0.1995785E+03  0.7546771E-02  0.1151794E+00
         21   -1    0    0  504  503  0.00000000000E+00  0.00000000000E+00  0.54343579914E+02  0.54343579914E+02  0.00000000000E+00 0. -1.
         21   -1    0    0  502  504 -0.00000000000E+00 -0.00000000000E+00 -0.10236802706E+04  0.10236802706E+04  0.00000000000E+00 0. -1.
          6    2    1    2  502    0  0.53387000426E+02  0.63824738473E+02 -0.79236740112E+03  0.81711546204E+03  0.18140510162E+03 0.  0.
         24    2    3    3    0    0  0.92650673104E+02  0.19041228089E+02 -0.36628424977E+03  0.38686420909E+03  0.80950905231E+02 0.  0.
         -6    2    1    2    0  503 -0.53387000426E+02 -0.63824738473E+02 -0.17696928956E+03  0.26090838846E+03  0.17271736644E+03 0.  0.
        -24    2    5    5    0    0 -0.72898813684E+02 -0.70495979409E+02 -0.19065624103E+03  0.23571634701E+03  0.94490601935E+02 0.  0.
          4    1    4    4  501    0  0.43672262852E+02  0.47783079650E+02 -0.15260141399E+03  0.16576393093E+03  0.00000000000E+00 0. -1.
         -3    1    4    4    0  501  0.48978410252E+02 -0.28741851561E+02 -0.21368283577E+03  0.22110027817E+03  0.00000000000E+00 0.  1.
          5    1    3    3  502    0 -0.39263672677E+02  0.44783510385E+02 -0.42608315135E+03  0.43025125295E+03  0.47000000000E+01 0. -1.
         11    1    6    6    0    0 -0.82938810908E+02 -0.53969842235E+02 -0.91768454119E+02  0.13495569420E+03  0.00000000000E+00 0. -1.
        -12    1    6    6    0    0  0.10039997225E+02 -0.16526137174E+02 -0.98887786910E+02  0.10076065281E+03  0.00000000000E+00 0.  1.
         -5    1    5    5    0  503  0.19511813257E+02  0.66712409357E+01  0.13686951471E+02  0.25192041457E+02  0.47000000000E+01 0.  1.
<mgrwt>
<rscale>  2 0.19758318E+03</rscale>
<asrwt>0</asrwt>
<pdfrwt beam="1">  1       21 0.83605516E-02 0.19957851E+03</pdfrwt>
<pdfrwt beam="2">  1       21 0.15748926E+00 0.19957851E+03</pdfrwt>
<totfact> 0.29056112E+04</totfact>
</mgrwt>
</event>
<event>
12    1  0.1473662E-001  0.1810306E+03  0.7546771E-02  0.1166915E+00
         21   -1    0    0  504  503  0.00000000000E+00  0.00000000000E+00  0.18503717870E+03  0.18503717870E+03  0.00000000000E+00 0. -1.
         21   -1    0    0  502  504 -0.00000000000E+00 -0.00000000000E+00 -0.42544274585E+03  0.42544274585E+03  0.00000000000E+00 0. -1.
          6    2    1    2  502    0 -0.28969184446E+02  0.44019404325E+02 -0.35354844380E+03  0.39700068373E+03  0.17273134967E+03 0.  0.
         24    2    3    3    0    0  0.27196583748E+02  0.23045426082E+02 -0.31156215381E+03  0.32365601911E+03  0.80071825185E+02 0.  0.
         -6    2    1    2    0  503  0.28969184446E+02 -0.44019404325E+02  0.11314287665E+03  0.21347924083E+03  0.17319109135E+03 0.  0.
        -24    2    5    5    0    0  0.86087608993E+02 -0.21334338099E+02  0.71598268002E+02  0.13914774575E+03  0.79809477901E+02 0.  0.
          4    1    4    4  501    0 -0.80401044900E+01  0.36390844043E+02 -0.23905915384E+03  0.24194672109E+03  0.00000000000E+00 0. -1.
         -3    1    4    4    0  501  0.35236688238E+02 -0.13345417962E+02 -0.72502999968E+02  0.81709298020E+02  0.00000000000E+00 0.  1.
          5    1    3    3  502    0 -0.56165768195E+02  0.20973978243E+02 -0.41986289990E+02  0.73344664614E+02  0.47000000000E+01 0. -1.
         13    1    6    6    0    0  0.61646190789E+02 -0.11070442821E+01  0.90602992280E+00  0.61662786801E+02  0.00000000000E+00 0. -1.
        -14    1    6    6    0    0  0.24441418204E+02 -0.20227293817E+02  0.70692238079E+02  0.77484958951E+02  0.00000000000E+00 0.  1.
         -5    1    5    5    0  503 -0.57118424547E+02 -0.22685066226E+02  0.41544608652E+02  0.74331495077E+02  0.47000000000E+01 0.  1.
<mgrwt>
<rscale>  2 0.18092055E+03</rscale>
<asrwt>0</asrwt>
<pdfrwt beam="1">  1       21 0.28467259E-01 0.18103059E+03</pdfrwt>
<pdfrwt beam="2">  1       21 0.65452729E-01 0.18103059E+03</pdfrwt>
<totfact> 0.25497917E+04</totfact>
</mgrwt>
</event>
<event>
12    1  0.1473662E-001  0.1759231E+03  0.7546771E-02  0.1171890E+00
         21   -1    0    0  504  503  0.00000000000E+00  0.00000000000E+00  0.37170023286E+02  0.37170023286E+02  0.00000000000E+00 0. -1.
         21   -1    0    0  502  504 -0.00000000000E+00 -0.00000000000E+00 -0.84788798356E+03  0.84788798356E+03  0.00000000000E+00 0. -1.
          6    2    1    2  502    0 -0.10969131728E+02 -0.30464899770E+02 -0.46804504530E+03  0.50001510182E+03  0.17291762679E+03 0.  0.
         24    2    3    3    0    0 -0.24586352507E+02 -0.73972277108E+01 -0.97957982229E+02  0.12893011096E+03  0.79799746375E+02 0.  0.
         -6    2    1    2    0  503  0.10969131728E+02  0.30464899770E+02 -0.34267291498E+03  0.38504290502E+03  0.17258296579E+03 0.  0.
        -24    2    5    5    0    0  0.57675581090E+01  0.40335842061E+02 -0.77992845943E+02  0.12008607682E+03  0.81716197570E+02 0.  0.
          2    1    4    4  501    0  0.27341151115E+02 -0.13345599433E+02 -0.26174140392E+02  0.40133890838E+02  0.00000000000E+00 0. -1.
         -1    1    4    4    0  501 -0.51927503622E+02  0.59483717222E+01 -0.71783841837E+02  0.88796220119E+02  0.00000000000E+00 0.  1.
          5    1    3    3  502    0  0.13617220779E+02 -0.23067672059E+02 -0.37008706307E+03  0.37108499087E+03  0.47000000000E+01 0. -1.
         11    1    6    6    0    0  0.27368031976E+02  0.86733675761E+01  0.45598457408E+01  0.29069376886E+02  0.00000000000E+00 0. -1.
        -12    1    6    6    0    0 -0.21600473867E+02  0.31662474485E+02 -0.82552691684E+02  0.91016699930E+02  0.00000000000E+00 0.  1.
         -5    1    5    5    0  503  0.52015736192E+01 -0.98709422916E+01 -0.26468006903E+03  0.26495682821E+03  0.47000000000E+01 0.  1.
<mgrwt>
<rscale>  2 0.17584081E+03</rscale>
<asrwt>0</asrwt>
<pdfrwt beam="1">  1       21 0.57184657E-02 0.17592310E+03</pdfrwt>
<pdfrwt beam="2">  1       21 0.13044429E+00 0.17592310E+03</pdfrwt>
<totfact> 0.92443648E+04</totfact>
</mgrwt>
</event>
<event>
12    1  0.1473662E-001  0.1754596E+03  0.7546771E-02  0.1172475E+00
         21   -1    0    0  504  503  0.00000000000E+00  0.00000000000E+00  0.12114742866E+03  0.12114742866E+03  0.00000000000E+00 0. -1.
         21   -1    0    0  502  504 -0.00000000000E+00 -0.00000000000E+00 -0.53067247998E+03  0.53067247998E+03  0.00000000000E+00 0. -1.
          6    2    1    2  502    0 -0.19890124181E+02 -0.24197769340E+00 -0.44030848475E+03  0.47368042192E+03  0.17351053216E+03 0.  0.
         24    2    3    3    0    0  0.17995698528E+01 -0.43871744161E+02 -0.12748827129E+03  0.15705355114E+03  0.80526953386E+02 0.  0.
         -6    2    1    2    0  503  0.19890124181E+02  0.24197769340E+00  0.30783433427E+02  0.17813948672E+03  0.17432837222E+03 0.  0.
        -24    2    5    5    0    0 -0.27774640997E+02 -0.34454384968E+02  0.63771706650E+02  0.11041885772E+03  0.78529983100E+02 0.  0.
          4    1    4    4  501    0 -0.12112857797E+02 -0.56502541194E+02 -0.12549141280E+03  0.13815698741E+03  0.00000000000E+00 0. -1.
         -3    1    4    4    0  501  0.13912427650E+02  0.12630797032E+02 -0.19968584918E+01  0.18896563725E+02  0.00000000000E+00 0.  1.
          5    1    3    3  502    0 -0.21689694033E+02  0.43629766468E+02 -0.31282021346E+03  0.31662687078E+03  0.47000000000E+01 0. -1.
         11    1    6    6    0    0 -0.16502806729E+02 -0.57161647717E+02  0.60507703374E+02  0.84858580988E+02  0.00000000000E+00 0. -1.
        -12    1    6    6    0    0 -0.11271834268E+02  0.22707262750E+02  0.32640032763E+01  0.25560276735E+02  0.00000000000E+00 0.  1.
         -5    1    5    5    0  503  0.47664765177E+02  0.34696362661E+02 -0.32988273223E+02  0.67720628995E+02  0.47000000000E+01 0.  1.
<mgrwt>
<rscale>  2 0.17525607E+03</rscale>
<asrwt>0</asrwt>
<pdfrwt beam="1">  1       21 0.18638066E-01 0.17545956E+03</pdfrwt>
<pdfrwt beam="2">  1       21 0.81641919E-01 0.17545956E+03</pdfrwt>
<totfact> 0.34895046E+04</totfact>
</mgrwt>
</event>
<event>
12    1  0.1473662E-001  0.1733542E+03  0.7546771E-02  0.1174537E+00
         21   -1    0    0  504  503  0.00000000000E+00  0.00000000000E+00  0.15266343134E+03  0.15266343134E+03  0.00000000000E+00 0. -1.
         21   -1    0    0  502  504 -0.00000000000E+00 -0.00000000000E+00 -0.21686571378E+03  0.21686571378E+03  0.00000000000E+00 0. -1.
          6    2    1    2  502    0  0.93168614707E+01  0.85322543423E-02 -0.89072265830E+02  0.19440008401E+03  0.17254193735E+03 0.  0.
         24    2    3    3    0    0 -0.26589825943E+02  0.58413771309E+02 -0.43113195910E+02  0.11172730580E+03  0.80653925366E+02 0.  0.
         -6    2    1    2    0  503 -0.93168614707E+01 -0.85322543423E-02  0.24869983386E+02  0.17512906111E+03  0.17310363368E+03 0.  0.
        -24    2    5    5    0    0 -0.60015278524E+02 -0.24826220669E+02 -0.15330217668E+02  0.10567120832E+03  0.81934204119E+02 0.  0.
          4    1    4    4  501    0 -0.91692024154E+01  0.77010880761E+02 -0.31148187250E+02  0.83576070722E+02  0.00000000000E+00 0. -1.
         -3    1    4    4    0  501 -0.17420623527E+02 -0.18597109451E+02 -0.11965008660E+02  0.28151235075E+02  0.00000000000E+00 0.  1.
          5    1    3    3  502    0  0.35906687414E+02 -0.58405239055E+02 -0.45959069921E+02  0.82672778216E+02  0.47000000000E+01 0. -1.
         13    1    6    6    0    0 -0.88491220235E+01  0.14877435890E+01  0.30702333535E+02  0.31986772673E+02  0.00000000000E+00 0. -1.
        -14    1    6    6    0    0 -0.51166156500E+02 -0.26313964258E+02 -0.46032551203E+02  0.73684435644E+02  0.00000000000E+00 0.  1.
         -5    1    5    5    0  503  0.50698417053E+02  0.24817688415E+02  0.40200201054E+02  0.69457852793E+02  0.47000000000E+01 0.  1.
<mgrwt>
<rscale>  2 0.17321379E+03</rscale>
<asrwt>0</asrwt>
<pdfrwt beam="1">  1       21 0.23486682E-01 0.17335418E+03</pdfrwt>
<pdfrwt beam="2">  1       21 0.33363956E-01 0.17335418E+03</pdfrwt>
<totfact> 0.14850849E+05</totfact>
</mgrwt>
</event>
<event>
12    1  0.1473662E-001  0.3349172E+03  0.7546771E-02  0.1068993E+00
         21   -1    0    0  504  503  0.00000000000E+00  0.00000000000E+00  0.47201144566E+03  0.47201144566E+03  0.00000000000E+00 0. -1.
         21   -1    0    0  502  504 -0.00000000000E+00 -0.00000000000E+00 -0.40817263297E+03  0.40817263297E+03  0.00000000000E+00 0.  1.
          6    2    1    2  502    0  0.17480783289E+03 -0.22751399737E+03 -0.25260430272E+03  0.41941756281E+03  0.17257392850E+03 0.  0.
         24    2    3    3    0    0  0.74800931346E+02 -0.19532637518E+03 -0.20613711411E+03  0.30444490085E+03  0.80290819348E+02 0.  0.
         -6    2    1    2    0  503 -0.17480783289E+03  0.22751399737E+03  0.31644311540E+03  0.46076651582E+03  0.17276903475E+03 0.  0.
        -24    2    5    5    0    0 -0.18013417457E+03  0.13539409169E+03  0.20645581911E+03  0.31712201615E+03  0.84631477425E+02 0.  0.
          2    1    4    4  501    0  0.90243208921E+02 -0.16521034164E+03 -0.18798991556E+03  0.26604229380E+03  0.00000000000E+00 0. -1.
         -1    1    4    4    0  501 -0.15442277575E+02 -0.30116033544E+02 -0.18147198550E+02  0.38402607052E+02  0.00000000000E+00 0.  1.
          5    1    3    3  502    0  0.10000690155E+03 -0.32187622193E+02 -0.46467188616E+02  0.11497266196E+03  0.47000000000E+01 0. -1.
         13    1    6    6    0    0 -0.90872399688E+02  0.53501642552E+02  0.15029655859E+03  0.18360085595E+03  0.00000000000E+00 0. -1.
        -14    1    6    6    0    0 -0.89261774877E+02  0.81892449134E+02  0.56159260527E+02  0.13352116020E+03  0.00000000000E+00 0.  1.
         -5    1    5    5    0  503  0.53263416704E+01  0.92119905687E+02  0.10998729629E+03  0.14364449967E+03  0.47000000000E+01 0.  1.
<mgrwt>
<rscale>  2 0.33489205E+03</rscale>
<asrwt>0</asrwt>
<pdfrwt beam="1">  1       21 0.72617145E-01 0.33491721E+03</pdfrwt>
<pdfrwt beam="2">  1       21 0.62795790E-01 0.33491721E+03</pdfrwt>
<totfact> 0.36721569E+03</totfact>
</mgrwt>
</event>
<event>
12    1  0.1473662E-001  0.1822701E+03  0.7546771E-02  0.1166784E+00
         21   -1    0    0  504  503  0.00000000000E+00  0.00000000000E+00  0.12688735503E+04  0.12688735503E+04  0.00000000000E+00 0.  1.
         21   -1    0    0  502  504 -0.00000000000E+00 -0.00000000000E+00 -0.25597739513E+02  0.25597739513E+02  0.00000000000E+00 0.  1.
          6    2    1    2  502    0 -0.35376138439E+02  0.39970401979E+02  0.57271238920E+03  0.59957726238E+03  0.16924629573E+03 0.  0.
         24    2    3    3    0    0  0.28429733305E+02 -0.23310729978E+02  0.27111774243E+03  0.28484386426E+03  0.79243655142E+02 0.  0.
         -6    2    1    2    0  503  0.35376138439E+02 -0.39970401979E+02  0.67056342160E+03  0.69489402745E+03  0.17427938141E+03 0.  0.
        -24    2    5    5    0    0  0.31579255907E+02 -0.65174948853E+02  0.65414750144E+03  0.66421410022E+03  0.89590144117E+02 0.  0.
          4    1    4    4  501    0 -0.12967677872E+02 -0.17097598950E+02  0.17207742313E+02  0.27506271190E+02  0.00000000000E+00 0. -1.
         -3    1    4    4    0  501  0.41397411178E+02 -0.62131310274E+01  0.25391000011E+03  0.25733759307E+03  0.00000000000E+00 0.  1.
          5    1    3    3  502    0 -0.63805871744E+02  0.63281131957E+02  0.30159464678E+03  0.31473339813E+03  0.47000000000E+01 0. -1.
         11    1    6    6    0    0  0.39948969798E+02 -0.38067032412E+02  0.15991608096E+03  0.16916906365E+03  0.00000000000E+00 0. -1.
        -12    1    6    6    0    0 -0.83697138910E+01 -0.27107916441E+02  0.49423142048E+03  0.49504503657E+03  0.00000000000E+00 0.  1.
         -5    1    5    5    0  503  0.37968825320E+01  0.25204546874E+02  0.16415920161E+02  0.30679927229E+02  0.47000000000E+01 0.  1.
<mgrwt>
<rscale>  2 0.18105650E+03</rscale>
<asrwt>0</asrwt>
<pdfrwt beam="1">  1       21 0.19521127E+00 0.18227015E+03</pdfrwt>
<pdfrwt beam="2">  1       21 0.39381148E-02 0.18227015E+03</pdfrwt>
<totfact> 0.58374152E+04</totfact>
</mgrwt>
</event>
<event>
12    1  0.1473662E-001  0.2289965E+03  0.7546771E-02  0.1127394E+00
         21   -1    0    0  504  503  0.00000000000E+00  0.00000000000E+00  0.21429029163E+03  0.21429029163E+03  0.00000000000E+00 0.  1.
         21   -1    0    0  502  504 -0.00000000000E+00 -0.00000000000E+00 -0.47907251752E+03  0.47907251752E+03  0.00000000000E+00 0.  1.
          6    2    1    2  502    0  0.10690365726E+03  0.10448065425E+03 -0.37505133819E+03  0.43943473496E+03  0.17347847406E+03 0.  0.
         24    2    3    3    0    0  0.54226280199E+02  0.80997692405E+02 -0.35727817204E+03  0.37890101720E+03  0.80107259224E+02 0.  0.
         -6    2    1    2    0  503 -0.10690365726E+03 -0.10448065425E+03  0.11026911230E+03  0.25392807419E+03  0.17313460280E+03 0.  0.
        -24    2    5    5    0    0 -0.57362002004E+02  0.86761430039E+01  0.78426712393E+02  0.12627673341E+03  0.80183473692E+02 0.  0.
          4    1    4    4  501    0  0.25171914557E+02 -0.11375179279E+02 -0.10796623042E+03  0.11144382843E+03  0.00000000000E+00 0. -1.
         -3    1    4    4    0  501  0.29054365643E+02  0.92372871684E+02 -0.24931194162E+03  0.26745718876E+03  0.00000000000E+00 0.  1.
          5    1    3    3  502    0  0.52677377064E+02  0.23482961846E+02 -0.17773166159E+02  0.60533717767E+02  0.47000000000E+01 0. -1.
         11    1    6    6    0    0  0.14610506782E+02  0.16225139289E+02  0.36804392989E+02  0.42793520499E+02  0.00000000000E+00 0. -1.
        -12    1    6    6    0    0 -0.71972508786E+02 -0.75489962852E+01  0.41622319404E+02  0.83483212914E+02  0.00000000000E+00 0.  1.
         -5    1    5    5    0  503 -0.49541655260E+02 -0.11315679725E+03  0.31842399909E+02  0.12765134078E+03  0.47000000000E+01 0.  1.
<mgrwt>
<rscale>  2 0.22893134E+03</rscale>
<asrwt>0</asrwt>
<pdfrwt beam="1">  1       21 0.32967738E-01 0.22899646E+03</pdfrwt>
<pdfrwt beam="2">  1       21 0.73703462E-01 0.22899646E+03</pdfrwt>
<totfact> 0.14317455E+04</totfact>
</mgrwt>
</event>
<event>
12    1  0.1473662E-001  0.2528333E+03  0.7546771E-02  0.1111787E+00
         21   -1    0    0  504  503  0.00000000000E+00  0.00000000000E+00  0.16632500974E+04  0.16632500974E+04  0.00000000000E+00 0. -1.
         21   -1    0    0  502  504 -0.00000000000E+00 -0.00000000000E+00 -0.44301861537E+02  0.44301861537E+02  0.00000000000E+00 0.  1.
          6    2    1    2  502    0  0.15240881195E+03  0.10008453756E+03  0.49443347385E+03  0.55532795411E+03  0.17515511964E+03 0.  0.
         24    2    3    3    0    0  0.12972370569E+03  0.14021583989E+03  0.42312218720E+03  0.47028370047E+03  0.75137554265E+02 0.  0.
         -6    2    1    2    0  503 -0.15240881195E+03 -0.10008453756E+03  0.11245147620E+04  0.11522240048E+04  0.17274648099E+03 0.  0.
        -24    2    5    5    0    0 -0.60265362378E+02 -0.80332374404E+02  0.34250317783E+03  0.36454083817E+03  0.74137652951E+02 0.  0.
          4    1    4    4  501    0  0.13737782199E+03  0.12022376634E+03  0.39298761633E+03  0.43331938170E+03  0.00000000000E+00 0. -1.
         -3    1    4    4    0  501 -0.76541163072E+01  0.19992073542E+02  0.30134570872E+02  0.36964318776E+02  0.00000000000E+00 0.  1.
          5    1    3    3  502    0  0.22685106265E+02 -0.40131302328E+02  0.71311286654E+02  0.85044253639E+02  0.47000000000E+01 0. -1.
         11    1    6    6    0    0 -0.14174888236E+02 -0.19374144917E+02  0.21164224814E+03  0.21299935715E+03  0.00000000000E+00 0. -1.
        -12    1    6    6    0    0 -0.46090474142E+02 -0.60958229487E+02  0.13086092969E+03  0.15154148102E+03  0.00000000000E+00 0.  1.
         -5    1    5    5    0  503 -0.92143449574E+02 -0.19752163153E+02  0.78201158418E+03  0.78768316666E+03  0.47000000000E+01 0.  1.
<mgrwt>
<rscale>  2 0.25241661E+03</rscale>
<asrwt>0</asrwt>
<pdfrwt beam="1">  1       21 0.25588458E+00 0.25283330E+03</pdfrwt>
<pdfrwt beam="2">  1       21 0.68156723E-02 0.25283330E+03</pdfrwt>
<totfact> 0.92340549E+03</totfact>
</mgrwt>
</event>
<event>
12    1  0.1473662E-001  0.3105251E+03  0.7546771E-02  0.1080283E+00
         21   -1    0    0  504  503  0.00000000000E+00  0.00000000000E+00  0.73935421811E+03  0.73935421811E+03  0.00000000000E+00 0. -1.
         21   -1    0    0  502  504 -0.00000000000E+00 -0.00000000000E+00 -0.14434702267E+03  0.14434702267E+03  0.00000000000E+00 0.  1.
          6    2    1    2  502    0 -0.11097747077E+03 -0.23044554668E+03  0.15635592385E+03  0.34626212448E+03  0.17328916563E+03 0.  0.
         24    2    3    3    0    0 -0.13201747123E+03 -0.19892523756E+03  0.84687027711E+02  0.26505416810E+03  0.77986899645E+02 0.  0.
         -6    2    1    2    0  503  0.11097747077E+03  0.23044554668E+03  0.43865127158E+03  0.53743911630E+03  0.17608156254E+03 0.  0.
        -24    2    5    5    0    0  0.46646820537E+02  0.36888155870E+02  0.20017638819E+03  0.22359957751E+03  0.79934490468E+02 0.  0.
          2    1    4    4  501    0 -0.48607076303E+02 -0.19161840175E+02  0.26094892075E+02  0.58401775470E+02  0.00000000000E+00 0. -1.
         -1    1    4    4    0  501 -0.83410394927E+02 -0.17976339738E+03  0.58592135637E+02  0.20665239263E+03  0.00000000000E+00 0.  1.
          5    1    3    3  502    0  0.21040000458E+02 -0.31520309117E+02  0.71668896140E+02  0.81207956383E+02  0.47000000000E+01 0. -1.
         13    1    6    6    0    0  0.11656759005E+02  0.40545693112E+02  0.17581922483E+03  0.18080993634E+03  0.00000000000E+00 0. -1.
        -14    1    6    6    0    0  0.34990061532E+02 -0.36575372426E+01  0.24357163359E+02  0.42789641172E+02  0.00000000000E+00 0.  1.
         -5    1    5    5    0  503  0.64330650236E+02  0.19355739081E+03  0.23847488340E+03  0.31383953879E+03  0.47000000000E+01 0.  1.
<mgrwt>
<rscale>  2 0.31013068E+03</rscale>
<asrwt>0</asrwt>
<pdfrwt beam="1">  1       21 0.11374680E+00 0.31052514E+03</pdfrwt>
<pdfrwt beam="2">  1       21 0.22207235E-01 0.31052514E+03</pdfrwt>
<totfact> 0.10680674E+04</totfact>
</mgrwt>
</event>
<event>
12    1  0.1473662E-001  0.1931959E+03  0.7546771E-02  0.1155920E+00
         21   -1    0    0  504  503  0.00000000000E+00  0.00000000000E+00  0.11145860138E+03  0.11145860138E+03  0.00000000000E+00 0. -1.
         21   -1    0    0  502  504 -0.00000000000E+00 -0.00000000000E+00 -0.67791416254E+03  0.67791416254E+03  0.00000000000E+00 0. -1.
          6    2    1    2  502    0 -0.58416880866E+00  0.85635810797E+02 -0.56447219134E+03  0.59616669493E+03  0.17161596664E+03 0.  0.
         24    2    3    3    0    0  0.38708095455E+02 -0.29125181578E+01 -0.20996994396E+03  0.22863625811E+03  0.81733479925E+02 0.  0.
         -6    2    1    2    0  503  0.58416880866E+00 -0.85635810797E+02 -0.19833698212E+01  0.19320606899E+03  0.17317857256E+03 0.  0.
        -24    2    5    5    0    0 -0.64467523042E+02 -0.54699209108E+02 -0.19623397222E+02  0.11889552799E+03  0.81258869379E+02 0.  0.
          4    1    4    4  501    0  0.54636873081E+02  0.37267238871E+01 -0.20260062216E+03  0.20987159997E+03  0.00000000000E+00 0. -1.
         -3    1    4    4    0  501 -0.15928777626E+02 -0.66392420448E+01 -0.73693217965E+01  0.18764658146E+02  0.00000000000E+00 0.  1.
          5    1    3    3  502    0 -0.39292264264E+02  0.88548328955E+02 -0.35450224738E+03  0.36753043682E+03  0.47000000000E+01 0. -1.
         11    1    6    6    0    0  0.81227839818E+01 -0.22595555634E+02 -0.30460775482E+02  0.38786564645E+02  0.00000000000E+00 0. -1.
        -12    1    6    6    0    0 -0.72590307024E+02 -0.32103653474E+02  0.10837378260E+02  0.80108963342E+02  0.00000000000E+00 0.  1.
         -5    1    5    5    0  503  0.65051691851E+02 -0.30936601689E+02  0.17640027400E+02  0.74310540998E+02  0.47000000000E+01 0.  1.
<mgrwt>
<rscale>  2 0.19284507E+03</rscale>
<asrwt>0</asrwt>
<pdfrwt beam="1">  1       21 0.17147477E-01 0.19319589E+03</pdfrwt>
<pdfrwt beam="2">  1       21 0.10429449E+00 0.19319589E+03</pdfrwt>
<totfact> 0.22793284E+04</totfact>
</mgrwt>
</event>
<event>
12    1  0.1473662E-001  0.3374158E+03  0.7546771E-02  0.1067972E+00
         21   -1    0    0  504  503  0.00000000000E+00  0.00000000000E+00  0.33583010859E+03  0.33583010859E+03  0.00000000000E+00 0.  1.
         21   -1    0    0  502  504 -0.00000000000E+00 -0.00000000000E+00 -0.40582114234E+03  0.40582114234E+03  0.00000000000E+00 0.  1.
          6    2    1    2  502    0  0.14289556227E+03  0.25161156640E+03 -0.18616760304E+03  0.38479490890E+03  0.17228239444E+03 0.  0.
         24    2    3    3    0    0  0.20254444139E+01  0.12019334247E+03 -0.58394664816E+02  0.15357390331E+03  0.75660193626E+02 0.  0.
         -6    2    1    2    0  503 -0.14289556227E+03 -0.25161156640E+03  0.11617656928E+03  0.35685634203E+03  0.17355670985E+03 0.  0.
        -24    2    5    5    0    0 -0.10638692377E+03 -0.23192972675E+03  0.40852660179E+02  0.27073992792E+03  0.80756380717E+02 0.  0.
          2    1    4    4  501    0  0.86651573983E+00  0.15835872786E+01  0.14327258569E+02  0.14440531026E+02  0.00000000000E+00 0. -1.
         -1    1    4    4    0  501  0.11589286741E+01  0.11860975519E+03 -0.72721923385E+02  0.13913337228E+03  0.00000000000E+00 0.  1.
          5    1    3    3  502    0  0.14087011786E+03  0.13141822393E+03 -0.12777293822E+03  0.23122100559E+03  0.47000000000E+01 0. -1.
         11    1    6    6    0    0 -0.26718756396E+02 -0.32732682484E+02 -0.21385452011E+02  0.47356710228E+02  0.00000000000E+00 0. -1.
        -12    1    6    6    0    0 -0.79668167373E+02 -0.19919704426E+03  0.62238112189E+02  0.22338321769E+03  0.00000000000E+00 0.  1.
         -5    1    5    5    0  503 -0.36508638501E+02 -0.19681839652E+02  0.75323909102E+02  0.86116414113E+02  0.47000000000E+01 0.  1.
<mgrwt>
<rscale>  2 0.33725230E+03</rscale>
<asrwt>0</asrwt>
<pdfrwt beam="1">  1       21 0.51666171E-01 0.33741585E+03</pdfrwt>
<pdfrwt beam="2">  1       21 0.62434021E-01 0.33741585E+03</pdfrwt>
<totfact> 0.78165942E+03</totfact>
</mgrwt>
</event>
<event>
12    1  0.1473662E-001  0.2434244E+03  0.7546771E-02  0.1117650E+00
         21   -1    0    0  504  503  0.00000000000E+00  0.00000000000E+00  0.35880318120E+03  0.35880318120E+03  0.00000000000E+00 0. -1.
         21   -1    0    0  502  504 -0.00000000000E+00 -0.00000000000E+00 -0.17495090629E+03  0.17495090629E+03  0.00000000000E+00 0. -1.
          6    2    1    2  502    0 -0.16946674089E+03  0.29885164852E+02  0.27325117755E+02  0.24495330458E+03  0.17217247171E+03 0.  0.
         24    2    3    3    0    0 -0.17574419553E+03  0.66757180696E+02  0.17322070832E+02  0.20595198489E+03  0.82302020070E+02 0.  0.
         -6    2    1    2    0  503  0.16946674089E+03 -0.29885164852E+02  0.15652715716E+03  0.28880078291E+03  0.17115210176E+03 0.  0.
        -24    2    5    5    0    0  0.65683387327E+02  0.59825340789E+01  0.14444182398E+03  0.17823125012E+03  0.80949613461E+02 0.  0.
          4    1    4    4  501    0 -0.17444332472E+03  0.69747354866E+02  0.32297130773E+02  0.19062599955E+03  0.00000000000E+00 0. -1.
         -3    1    4    4    0  501 -0.13008708107E+01 -0.29901741700E+01 -0.14975059941E+02  0.15325985341E+02  0.00000000000E+00 0.  1.
          5    1    3    3  502    0  0.62774546392E+01 -0.36872015844E+02  0.10003046924E+02  0.39001319682E+02  0.47000000000E+01 0. -1.
         11    1    6    6    0    0  0.79681533647E+02 -0.69393444418E+01  0.89255365678E+02  0.11984916190E+03  0.00000000000E+00 0. -1.
        -12    1    6    6    0    0 -0.13998146320E+02  0.12921878521E+02  0.55186458304E+02  0.58382088221E+02  0.00000000000E+00 0.  1.
         -5    1    5    5    0  503  0.10378335356E+03 -0.35867698931E+02  0.12085333177E+02  0.11056953279E+03  0.47000000000E+01 0.  1.
<mgrwt>
<rscale>  2 0.24324409E+03</rscale>
<asrwt>0</asrwt>
<pdfrwt beam="1">  1       21 0.55200489E-01 0.24342444E+03</pdfrwt>
<pdfrwt beam="2">  1       21 0.26915524E-01 0.24342444E+03</pdfrwt>
<totfact> 0.39722676E+04</totfact>
</mgrwt>
</event>
<event>
12    1  0.1473662E-001  0.2812070E+03  0.7546771E-02  0.1095095E+00
         21   -1    0    0  504  503  0.00000000000E+00  0.00000000000E+00  0.45750919218E+02  0.45750919218E+02  0.00000000000E+00 0. -1.
         21   -1    0    0  502  504 -0.00000000000E+00 -0.00000000000E+00 -0.17310021854E+04  0.17310021854E+04  0.00000000000E+00 0.  1.
          6    2    1    2  502    0 -0.18454576225E+03  0.12293629594E+03 -0.89312821521E+03  0.93635216835E+03  0.17293612446E+03 0.  0.
         24    2    3    3    0    0 -0.17806742702E+02  0.49587347054E+02 -0.32186788865E+03  0.33673360655E+03  0.83753202731E+02 0.  0.
         -6    2    1    2    0  503  0.18454576225E+03 -0.12293629594E+03 -0.79212305098E+03  0.84040093627E+03  0.17217530188E+03 0.  0.
        -24    2    5    5    0    0  0.11100097156E+03 -0.63113871559E+02 -0.26522927252E+03  0.30502564503E+03  0.79934352160E+02 0.  0.
          2    1    4    4  501    0 -0.24699955520E+02  0.48998230212E+02 -0.94612523119E+02  0.10937295780E+03  0.00000000000E+00 0. -1.
         -1    1    4    4    0  501  0.68932128183E+01  0.58911684203E+00 -0.22725536553E+03  0.22736064876E+03  0.00000000000E+00 0.  1.
          5    1    3    3  502    0 -0.16673901955E+03  0.73348948882E+02 -0.57126032656E+03  0.59961856180E+03  0.47000000000E+01 0. -1.
         13    1    6    6    0    0  0.38381201843E+02 -0.62958459743E+01 -0.21506506425E+02  0.44444168909E+02  0.00000000000E+00 0. -1.
        -14    1    6    6    0    0  0.72619769713E+02 -0.56818025585E+02 -0.24372276610E+03  0.26058147612E+03  0.00000000000E+00 0.  1.
         -5    1    5    5    0  503  0.73544790699E+02 -0.59822424377E+02 -0.52689377845E+03  0.53537529124E+03  0.47000000000E+01 0.  1.
<mgrwt>
<rscale>  2 0.28109011E+03</rscale>
<asrwt>0</asrwt>
<pdfrwt beam="1">  1       21 0.70386030E-02 0.28120700E+03</pdfrwt>
<pdfrwt beam="2">  1       21 0.26630803E+00 0.28120700E+03</pdfrwt>
<totfact> 0.74163670E+03</totfact>
</mgrwt>
</event>
<event>
12    1  0.1473662E-001  0.1823472E+03  0.7546771E-02  0.1166167E+00
         21   -1    0    0  504  503  0.00000000000E+00  0.00000000000E+00  0.23749264843E+03  0.23749264843E+03  0.00000000000E+00 0.  1.
         21   -1    0    0  502  504 -0.00000000000E+00 -0.00000000000E+00 -0.14901534056E+03  0.14901534056E+03  0.00000000000E+00 0.  1.
          6    2    1    2  502    0 -0.30362572644E+02 -0.45990070844E+02 -0.85002786884E+01  0.17997674604E+03  0.17112101549E+03 0.  0.
         24    2    3    3    0    0 -0.61541681793E+02  0.21936353939E+01 -0.54961220986E+02  0.10598677676E+03  0.66485114142E+02 0.  0.
         -6    2    1    2    0  503  0.30362572644E+02  0.45990070844E+02  0.96977586554E+02  0.20653124295E+03  0.17382039462E+03 0.  0.
        -24    2    5    5    0    0  0.76933360284E+01 -0.25049443734E+02  0.10100223829E+03  0.13170614861E+03  0.80364142450E+02 0.  0.
          2    1    4    4  501    0 -0.74203347987E+02  0.87908872381E+01 -0.52920955487E+02  0.91564425846E+02  0.00000000000E+00 0. -1.
         -1    1    4    4    0  501  0.12661666194E+02 -0.65972518442E+01 -0.20402654990E+01  0.14422350918E+02  0.00000000000E+00 0.  1.
          5    1    3    3  502    0  0.31179109149E+02 -0.48183706238E+02  0.46460942297E+02  0.73989969275E+02  0.47000000000E+01 0. -1.
         13    1    6    6    0    0  0.31381386687E+02  0.21381202087E+01  0.87869591376E+02  0.93329674150E+02  0.00000000000E+00 0. -1.
        -14    1    6    6    0    0 -0.23688050659E+02 -0.27187563943E+02  0.13132646917E+02  0.38376474463E+02  0.00000000000E+00 0.  1.
         -5    1    5    5    0  503  0.22669236616E+02  0.71039514579E+02 -0.40246517391E+01  0.74825094333E+02  0.47000000000E+01 0.  1.
<mgrwt>
<rscale>  2 0.18170095E+03</rscale>
<asrwt>0</asrwt>
<pdfrwt beam="1">  1       21 0.36537330E-01 0.18234720E+03</pdfrwt>
<pdfrwt beam="2">  1       21 0.22925437E-01 0.18234720E+03</pdfrwt>
<totfact> 0.12946097E+05</totfact>
</mgrwt>
</event>
<event>
12    1  0.1473662E-001  0.1784477E+03  0.7546771E-02  0.1169324E+00
         21   -1    0    0  504  503  0.00000000000E+00  0.00000000000E+00  0.21420021479E+03  0.21420021479E+03  0.00000000000E+00 0. -1.
         21   -1    0    0  502  504 -0.00000000000E+00 -0.00000000000E+00 -0.33684610446E+03  0.33684610446E+03  0.00000000000E+00 0. -1.
          6    2    1    2  502    0  0.40852135690E+02  0.23847182870E+02 -0.26727503962E+03  0.32134834587E+03  0.17202100880E+03 0.  0.
         24    2    3    3    0    0 -0.22892224956E+02  0.17333644844E+02 -0.58044332163E+02  0.10247544066E+03  0.79420162649E+02 0.  0.
         -6    2    1    2    0  503 -0.40852135690E+02 -0.23847182870E+02  0.14462914995E+03  0.22969797338E+03  0.17206389174E+03 0.  0.
        -24    2    5    5    0    0 -0.16303221130E+02  0.36410161478E+02  0.18748789386E+02  0.87918031466E+02  0.76069496353E+02 0.  0.
          4    1    4    4  501    0  0.21061219740E+01  0.19438732841E+02 -0.71418262484E+02  0.74046392893E+02  0.00000000000E+00 0. -1.
         -3    1    4    4    0  501 -0.24998346930E+02 -0.21050879969E+01  0.13373930321E+02  0.28429047767E+02  0.00000000000E+00 0.  1.
          5    1    3    3  502    0  0.63744360646E+02  0.65135380266E+01 -0.20923070746E+03  0.21887290521E+03  0.47000000000E+01 0. -1.
         11    1    6    6    0    0 -0.32009611333E+02  0.10400671314E+01 -0.16094554935E+02  0.35843153543E+02  0.00000000000E+00 0. -1.
        -12    1    6    6    0    0  0.15706390203E+02  0.35370094346E+02  0.34843344321E+02  0.52074877923E+02  0.00000000000E+00 0.  1.
         -5    1    5    5    0  503 -0.24548914560E+02 -0.60257344348E+02  0.12588036057E+03  0.14177994192E+03  0.47000000000E+01 0.  1.
<mgrwt>
<rscale>  2 0.17843732E+03</rscale>
<asrwt>0</asrwt>
<pdfrwt beam="1">  1       21 0.32953879E-01 0.17844766E+03</pdfrwt>
<pdfrwt beam="2">  1       21 0.51822478E-01 0.17844766E+03</pdfrwt>
<totfact> 0.31582682E+04</totfact>
</mgrwt>
</event>
<event>
12    1  0.1473662E-001  0.1860360E+03  0.7546771E-02  0.1163212E+00
         21   -1    0    0  504  503  0.00000000000E+00  0.00000000000E+00  0.21566695869E+03  0.21566695869E+03  0.00000000000E+00 0. -1.
         21   -1    0    0  502  504 -0.00000000000E+00 -0.00000000000E+00 -0.15959535075E+03  0.15959535075E+03  0.00000000000E+00 0. -1.
          6    2    1    2  502    0  0.29238527394E+02 -0.63036966472E+02  0.17188630030E+01  0.18604398135E+03  0.17257131245E+03 0.  0.
         24    2    3    3    0    0  0.58896419793E+02  0.70886920003E+01  0.30738431723E+02  0.10442643467E+03  0.80255786425E+02 0.  0.
         -6    2    1    2    0  503 -0.29238527394E+02  0.63036966472E+02  0.54352744937E+02  0.18921832809E+03  0.16739415813E+03 0.  0.
        -24    2    5    5    0    0  0.11422556655E+02 -0.24139044766E+02  0.18643081638E+02  0.86503914571E+02  0.80138595323E+02 0.  0.
          4    1    4    4  501    0  0.42136499301E+02 -0.31056646465E+02 -0.50669253115E+00  0.52347460304E+02  0.00000000000E+00 0. -1.
         -3    1    4    4    0  501  0.16759920492E+02  0.38145338465E+02  0.31245124255E+02  0.52078974368E+02  0.00000000000E+00 0.  1.
          5    1    3    3  502    0 -0.29657892400E+02 -0.70125658472E+02 -0.29019568720E+02  0.81617546682E+02  0.47000000000E+01 0. -1.
         13    1    6    6    0    0 -0.66697092493E+01  0.28219708263E+02  0.46524131692E+01  0.29368042227E+02  0.00000000000E+00 0. -1.
        -14    1    6    6    0    0  0.18092265905E+02 -0.52358753029E+02  0.13990668469E+02  0.57135872344E+02  0.00000000000E+00 0.  1.
         -5    1    5    5    0  503 -0.40661084049E+02  0.87176011238E+02  0.35709663300E+02  0.10271441352E+03  0.47000000000E+01 0.  1.
<mgrwt>
<rscale>  2 0.18482626E+03</rscale>
<asrwt>0</asrwt>
<pdfrwt beam="1">  1       21 0.33179532E-01 0.18603604E+03</pdfrwt>
<pdfrwt beam="2">  1       21 0.24553131E-01 0.18603604E+03</pdfrwt>
<totfact> 0.13742001E+05</totfact>
</mgrwt>
</event>
<event>
12    1  0.1473662E-001  0.1767523E+03  0.7546771E-02  0.1171302E+00
         21   -1    0    0  504  503  0.00000000000E+00  0.00000000000E+00  0.10543982255E+04  0.10543982255E+04  0.00000000000E+00 0. -1.
         21   -1    0    0  502  504 -0.00000000000E+00 -0.00000000000E+00 -0.16493723245E+03  0.16493723245E+03  0.00000000000E+00 0. -1.
          6    2    1    2  502    0 -0.23193920395E+02  0.21099181621E+02 -0.10819113102E+03  0.20614685275E+03  0.17265013947E+03 0.  0.
         24    2    3    3    0    0 -0.46019834478E+02  0.51418484439E+02 -0.17996753157E+02  0.10818054081E+03  0.81347775492E+02 0.  0.
         -6    2    1    2    0  503  0.23193920395E+02 -0.21099181621E+02  0.99765212406E+03  0.10131886052E+04  0.17394900292E+03 0.  0.
        -24    2    5    5    0    0  0.31124063741E+02 -0.77267546477E+02  0.76411380651E+03  0.77281388074E+03  0.80202268603E+02 0.  0.
          4    1    4    4  501    0 -0.25427189909E+02 -0.19021530803E+02  0.28676324899E+01  0.31883913449E+02  0.00000000000E+00 0. -1.
         -3    1    4    4    0  501 -0.20592644569E+02  0.70440015242E+02 -0.20864385647E+02  0.76296627357E+02  0.00000000000E+00 0.  1.
          5    1    3    3  502    0  0.22825914083E+02 -0.30319302817E+02 -0.90194377867E+02  0.97966311944E+02  0.47000000000E+01 0. -1.
         13    1    6    6    0    0 -0.14565438613E+02 -0.58394327308E+02  0.53821515816E+03  0.54156957626E+03  0.00000000000E+00 0. -1.
        -14    1    6    6    0    0  0.45689502354E+02 -0.18873219169E+02  0.22589864835E+03  0.23124430448E+03  0.00000000000E+00 0.  1.
         -5    1    5    5    0  503 -0.79301433464E+01  0.56168364855E+02  0.23353831755E+03  0.24037472443E+03  0.47000000000E+01 0.  1.
<mgrwt>
<rscale>  2 0.17643194E+03</rscale>
<asrwt>0</asrwt>
<pdfrwt beam="1">  1       21 0.16221511E+00 0.17675234E+03</pdfrwt>
<pdfrwt beam="2">  1       21 0.25374960E-01 0.17675234E+03</pdfrwt>
<totfact> 0.36233776E+03</totfact>
</mgrwt>
</event>
<event>
12    1  0.1473662E-001  0.1759082E+03  0.7546771E-02  0.1172363E+00
         21   -1    0    0  504  503  0.00000000000E+00  0.00000000000E+00  0.19034749524E+03  0.19034749524E+03  0.00000000000E+00 0. -1.
         21   -1    0    0  502  504 -0.00000000000E+00 -0.00000000000E+00 -0.17371659124E+03  0.17371659124E+03  0.00000000000E+00 0. -1.
          6    2    1    2  502    0  0.74236657103E+01  0.23663308348E+02 -0.41784625673E+02  0.17871023145E+03  0.17197769887E+03 0.  0.
         24    2    3    3    0    0  0.92090262879E+01 -0.50404646775E+02 -0.81217650374E+01  0.97196259183E+02  0.82193157563E+02 0.  0.
         -6    2    1    2    0  503 -0.74236657103E+01 -0.23663308348E+02  0.58415529668E+02  0.18535385503E+03  0.17415112544E+03 0.  0.
        -24    2    5    5    0    0  0.78557651932E+01  0.48841269038E+02  0.58207381397E+02  0.11110758861E+03  0.80682181367E+02 0.  0.
          4    1    4    4  501    0  0.42811150181E+02 -0.38921730238E+02 -0.17538221096E+02  0.60458951891E+02  0.00000000000E+00 0. -1.
         -3    1    4    4    0  501 -0.33602123893E+02 -0.11482916537E+02  0.94164560590E+01  0.36737307292E+02  0.00000000000E+00 0.  1.
          5    1    3    3  502    0 -0.17853605776E+01  0.74067955123E+02 -0.33662860636E+02  0.81513972267E+02  0.47000000000E+01 0. -1.
         13    1    6    6    0    0  0.32438478014E+02  0.57001937807E+02  0.53810046041E+02  0.84835115515E+02  0.00000000000E+00 0. -1.
        -14    1    6    6    0    0 -0.24582712820E+02 -0.81606687692E+01  0.43973353560E+01  0.26272473097E+02  0.00000000000E+00 0.  1.
         -5    1    5    5    0  503 -0.15279430903E+02 -0.72504577386E+02  0.20814827174E+00  0.74246266414E+02  0.47000000000E+01 0.  1.
<mgrwt>
<rscale>  2 0.17536780E+03</rscale>
<asrwt>0</asrwt>
<pdfrwt beam="1">  1       21 0.29284230E-01 0.17590815E+03</pdfrwt>
<pdfrwt beam="2">  1       21 0.26725629E-01 0.17590815E+03</pdfrwt>
<totfact> 0.14967470E+05</totfact>
</mgrwt>
</event>
<event>
12    1  0.1473662E-001  0.1950546E+03  0.7546771E-02  0.1154311E+00
         21   -1    0    0  504  503  0.00000000000E+00  0.00000000000E+00  0.42397554083E+03  0.42397554083E+03  0.00000000000E+00 0.  1.
         21   -1    0    0  502  504 -0.00000000000E+00 -0.00000000000E+00 -0.24925927490E+03  0.24925927490E+03  0.00000000000E+00 0.  1.
          6    2    1    2  502    0 -0.62893444387E+02 -0.59754987355E+02 -0.18263857148E+03  0.26611223585E+03  0.17301049222E+03 0.  0.
         24    2    3    3    0    0 -0.42235068945E+02 -0.10712916712E+03 -0.13990681119E+03  0.19888742851E+03  0.81986791039E+02 0.  0.
         -6    2    1    2    0  503  0.62893444387E+02  0.59754987355E+02  0.35735483741E+03  0.40712257988E+03  0.17469994667E+03 0.  0.
        -24    2    5    5    0    0  0.97610280170E+02  0.81980420202E+01  0.18371798508E+03  0.22263620156E+03  0.78864475612E+02 0.  0.
          4    1    4    4  501    0  0.32594672195E+01 -0.38759851515E+02 -0.27107846050E+01  0.38991006261E+02  0.00000000000E+00 0. -1.
         -3    1    4    4    0  501 -0.45494536165E+02 -0.68369315609E+02 -0.13719602659E+03  0.15989642225E+03  0.00000000000E+00 0.  1.
          5    1    3    3  502    0 -0.20658375442E+02  0.47374179769E+02 -0.42731760287E+02  0.67224807340E+02  0.47000000000E+01 0. -1.
         11    1    6    6    0    0  0.71423811012E+02 -0.76142924493E+01  0.17741440944E+03  0.19140326775E+03  0.00000000000E+00 0. -1.
        -12    1    6    6    0    0  0.26186469159E+02  0.15812334470E+02  0.63035756438E+01  0.31232933808E+02  0.00000000000E+00 0.  1.
         -5    1    5    5    0  503 -0.34716835783E+02  0.51556945334E+02  0.17363685233E+03  0.18448637832E+03  0.47000000000E+01 0.  1.
<mgrwt>
<rscale>  2 0.19467562E+03</rscale>
<asrwt>0</asrwt>
<pdfrwt beam="1">  1       21 0.65227006E-01 0.19505465E+03</pdfrwt>
<pdfrwt beam="2">  1       21 0.38347581E-01 0.19505465E+03</pdfrwt>
<totfact> 0.14162847E+04</totfact>
</mgrwt>
</event>
<event>
12    1  0.1473662E-001  0.2111036E+03  0.7546771E-02  0.1140742E+00
         21   -1    0    0  504  503  0.00000000000E+00  0.00000000000E+00  0.78039270903E+03  0.78039270903E+03  0.00000000000E+00 0. -1.
         21   -1    0    0  502  504 -0.00000000000E+00 -0.00000000000E+00 -0.74333592831E+02  0.74333592831E+02  0.00000000000E+00 0. -1.
          6    2    1    2  502    0  0.78589891934E+02  0.90648171218E+02  0.14705416815E+03  0.25727353469E+03  0.17369882332E+03 0.  0.
         24    2    3    3    0    0  0.11031485496E+03  0.27541361083E+02  0.11641086113E+03  0.18013699971E+03  0.77265492152E+02 0.  0.
         -6    2    1    2    0  503 -0.78589891934E+02 -0.90648171218E+02  0.55900494805E+03  0.59745276717E+03  0.17340650218E+03 0.  0.
        -24    2    5    5    0    0 -0.91156872898E+02 -0.12034330120E+03  0.51346236975E+03  0.54145324759E+03  0.82072702896E+02 0.  0.
          4    1    4    4  501    0  0.10591517562E+03  0.44755796667E+02  0.11449560679E+03  0.16226629267E+03  0.00000000000E+00 0. -1.
         -3    1    4    4    0  501  0.43996793395E+01 -0.17214435585E+02  0.19152543441E+01  0.17870707037E+02  0.00000000000E+00 0.  1.
          5    1    3    3  502    0 -0.31724963027E+02  0.63106810136E+02  0.30643307020E+02  0.77136534986E+02  0.47000000000E+01 0. -1.
         13    1    6    6    0    0 -0.60646528734E+02 -0.11449488641E+03  0.47309455605E+03  0.49051558531E+03  0.00000000000E+00 0. -1.
        -14    1    6    6    0    0 -0.30510344164E+02 -0.58484147880E+01  0.40367813693E+02  0.50937662283E+02  0.00000000000E+00 0.  1.
         -5    1    5    5    0  503  0.12566980964E+02  0.29695129979E+02  0.45542578303E+02  0.55999519583E+02  0.47000000000E+01 0.  1.
<mgrwt>
<rscale>  2 0.21104349E+03</rscale>
<asrwt>0</asrwt>
<pdfrwt beam="1">  1       21 0.12006041E+00 0.21110363E+03</pdfrwt>
<pdfrwt beam="2">  1       21 0.11435938E-01 0.21110363E+03</pdfrwt>
<totfact> 0.33377038E+04</totfact>
</mgrwt>
</event>
<event>
12    1  0.1473662E-001  0.1862370E+03  0.7546771E-02  0.1161991E+00
         21   -1    0    0  504  503  0.00000000000E+00  0.00000000000E+00  0.49340950110E+03  0.49340950110E+03  0.00000000000E+00 0. -1.
         21   -1    0    0  502  504 -0.00000000000E+00 -0.00000000000E+00 -0.12913751337E+03  0.12913751337E+03  0.00000000000E+00 0. -1.
          6    2    1    2  502    0  0.47669916084E+02 -0.51188542719E+02  0.39241280006E+03  0.43419597800E+03  0.17217913304E+03 0.  0.
         24    2    3    3    0    0  0.44148739283E+02 -0.15147987199E+02  0.92448171595E+02  0.13201691079E+03  0.81873241091E+02 0.  0.
         -6    2    1    2    0  503 -0.47669916084E+02  0.51188542719E+02 -0.28140812332E+02  0.18835103647E+03  0.17260220108E+03 0.  0.
        -24    2    5    5    0    0  0.37159624277E+01 -0.31518863010E+02 -0.25593015336E+02  0.90833834182E+02  0.81169796699E+02 0.  0.
          4    1    4    4  501    0  0.10869948213E+02  0.33544659683E+02  0.35103979800E+02  0.49756299754E+02  0.00000000000E+00 0. -1.
         -3    1    4    4    0  501  0.33278791070E+02 -0.48692646882E+02  0.57344191794E+02  0.82260611036E+02  0.00000000000E+00 0.  1.
          5    1    3    3  502    0  0.35211768016E+01 -0.36040555520E+02  0.29996462847E+03  0.30217906721E+03  0.47000000000E+01 0. -1.
         13    1    6    6    0    0  0.21885940711E+01  0.27706318344E+02 -0.59972859067E+01  0.28432331217E+02  0.00000000000E+00 0. -1.
        -14    1    6    6    0    0  0.15273683566E+01 -0.59225181354E+02 -0.19595729429E+02  0.62401502966E+02  0.00000000000E+00 0.  1.
         -5    1    5    5    0  503 -0.51385878512E+02  0.82707405729E+02 -0.25477969962E+01  0.97517202290E+02  0.47000000000E+01 0.  1.
<mgrwt>
<rscale>  2 0.18613888E+03</rscale>
<asrwt>0</asrwt>
<pdfrwt beam="1">  1       21 0.75909153E-01 0.18623697E+03</pdfrwt>
<pdfrwt beam="2">  1       21 0.19867310E-01 0.18623697E+03</pdfrwt>
<totfact> 0.36292837E+04</totfact>
</mgrwt>
</event>
<event>
12    1  0.1473662E-001  0.2009836E+03  0.7546771E-02  0.1149681E+00
         21   -1    0    0  504  503  0.00000000000E+00  0.00000000000E+00  0.88342781124E+02  0.88342781124E+02  0.00000000000E+00 0.  1.
         21   -1    0    0  502  504 -0.00000000000E+00 -0.00000000000E+00 -0.13911759154E+04  0.13911759154E+04  0.00000000000E+00 0.  1.
          6    2    1    2  502    0  0.12872774284E+02 -0.10110859304E+03 -0.12621098102E+04  0.12780123563E+04  0.17322168964E+03 0.  0.
         24    2    3    3    0    0 -0.44370515858E+02 -0.71498888253E+02 -0.10460841780E+04  0.10525291138E+04  0.80278229102E+02 0.  0.
         -6    2    1    2    0  503 -0.12872774284E+02  0.10110859304E+03 -0.40723324071E+02  0.20150634029E+03  0.16899041438E+03 0.  0.
        -24    2    5    5    0    0  0.82188883814E+01  0.51666065670E+02 -0.88143448711E+02  0.12967194764E+03  0.79426783811E+02 0.  0.
          4    1    4    4  501    0 -0.29920962725E+02 -0.50761141779E+02 -0.98010081134E+03  0.98187043845E+03  0.00000000000E+00 0. -1.
         -3    1    4    4    0  501 -0.14449553133E+02 -0.20737746474E+02 -0.65983366695E+02  0.70658675299E+02  0.00000000000E+00 0.  1.
          5    1    3    3  502    0  0.57243290142E+02 -0.29609704787E+02 -0.21602563220E+03  0.22548324251E+03  0.47000000000E+01 0. -1.
         11    1    6    6    0    0  0.74088857723E+01 -0.19169704847E+02 -0.64465970860E+01  0.21538982944E+02  0.00000000000E+00 0. -1.
        -12    1    6    6    0    0  0.81000260908E+00  0.70835770516E+02 -0.81696851625E+02  0.10813296470E+03  0.00000000000E+00 0.  1.
         -5    1    5    5    0  503 -0.21091662665E+02  0.49442527370E+02  0.47420124640E+02  0.71834392652E+02  0.47000000000E+01 0.  1.
<mgrwt>
<rscale>  2 0.20006859E+03</rscale>
<asrwt>0</asrwt>
<pdfrwt beam="1">  1       21 0.13591198E-01 0.20098361E+03</pdfrwt>
<pdfrwt beam="2">  1       21 0.21402705E+00 0.20098361E+03</pdfrwt>
<totfact> 0.50973402E+03</totfact>
</mgrwt>
</event>
<event>
12    1  0.1473662E-001  0.1966652E+03  0.7546771E-02  0.1152590E+00
         21   -1    0    0  504  503  0.00000000000E+00  0.00000000000E+00  0.12335381331E+03  0.12335381331E+03  0.00000000000E+00 0. -1.
         21   -1    0    0  502  504 -0.00000000000E+00 -0.00000000000E+00 -0.49172760432E+03  0.49172760432E+03  0.00000000000E+00 0. -1.
          6    2    1    2  502    0 -0.92646401844E+02 -0.15194546740E+02 -0.36934700224E+03  0.41844285277E+03  0.17280909394E+03 0.  0.
         24    2    3    3    0    0 -0.10430136744E+02 -0.56627028806E+02 -0.24159371432E+03  0.26090188226E+03  0.79917840451E+02 0.  0.
         -6    2    1    2    0  503  0.92646401844E+02  0.15194546740E+02  0.97321123144E+00  0.19663856486E+03  0.17277600535E+03 0.  0.
        -24    2    5    5    0    0  0.32416334615E+02  0.72427531142E+02 -0.30448020420E+01  0.11332284046E+03  0.80846950056E+02 0.  0.
          4    1    4    4  501    0  0.10027373759E+02  0.17446648315E+02 -0.71040475802E+02  0.73835512893E+02  0.00000000000E+00 0. -1.
         -3    1    4    4    0  501 -0.20457510503E+02 -0.74073677121E+02 -0.17055323852E+03  0.18706636937E+03  0.00000000000E+00 0.  1.
          5    1    3    3  502    0 -0.82216265099E+02  0.41432482066E+02 -0.12775328792E+03  0.15754097051E+03  0.47000000000E+01 0. -1.
         11    1    6    6    0    0 -0.63651839231E+01 -0.15269721109E+02  0.44779496247E+01  0.17138610853E+02  0.00000000000E+00 0. -1.
        -12    1    6    6    0    0  0.38781518538E+02  0.87697252251E+02 -0.75227516667E+01  0.96184229607E+02  0.00000000000E+00 0.  1.
         -5    1    5    5    0  503  0.60230067229E+02 -0.57232984402E+02  0.40180132735E+01  0.83315724401E+02  0.47000000000E+01 0.  1.
<mgrwt>
<rscale>  2 0.19665796E+03</rscale>
<asrwt>0</asrwt>
<pdfrwt beam="1">  1       21 0.18977509E-01 0.19666523E+03</pdfrwt>
<pdfrwt beam="2">  1       21 0.75650402E-01 0.19666523E+03</pdfrwt>
<totfact> 0.39614191E+04</totfact>
</mgrwt>
</event>
<event>
12    1  0.1473662E-001  0.1824780E+03  0.7546771E-02  0.1165628E+00
         21   -1    0    0  504  503  0.00000000000E+00  0.00000000000E+00  0.18088532033E+02  0.18088532033E+02  0.00000000000E+00 0. -1.
         21   -1    0    0  502  504 -0.00000000000E+00 -0.00000000000E+00 -0.18588279011E+04  0.18588279011E+04  0.00000000000E+00 0. -1.
          6    2    1    2  502    0 -0.55944572847E+02 -0.10100221864E+02 -0.10346070478E+04  0.10505760152E+04  0.17339668596E+03 0.  0.
         24    2    3    3    0    0 -0.85320413307E+02 -0.53842033579E+02 -0.77807823575E+03  0.78864967538E+03  0.79900137796E+02 0.  0.
         -6    2    1    2    0  503  0.55944572847E+02  0.10100221864E+02 -0.80613232126E+03  0.82634041790E+03  0.17250320913E+03 0.  0.
        -24    2    5    5    0    0  0.74894815797E+02  0.61561705120E+02 -0.56803304123E+03  0.58196211870E+03  0.81359048095E+02 0.  0.
          4    1    4    4  501    0 -0.90012311801E+02 -0.55266384355E+02 -0.52479351454E+03  0.53531749683E+03  0.00000000000E+00 0. -1.
         -3    1    4    4    0  501  0.46918984941E+01  0.14243507760E+01 -0.25328472122E+03  0.25333217855E+03  0.00000000000E+00 0.  1.
          5    1    3    3  502    0  0.29375840460E+02  0.43741811714E+02 -0.25652881204E+03  0.26192633983E+03  0.47000000000E+01 0. -1.
         13    1    6    6    0    0  0.19842665522E+02  0.59038405615E+02 -0.40751579541E+03  0.41224796933E+03  0.00000000000E+00 0. -1.
        -14    1    6    6    0    0  0.55052150275E+02  0.25232995046E+01 -0.16051724582E+03  0.16971414937E+03  0.00000000000E+00 0.  1.
         -5    1    5    5    0  503 -0.18950242950E+02 -0.51461483255E+02 -0.23809928003E+03  0.24437829920E+03  0.47000000000E+01 0.  1.
<mgrwt>
<rscale>  2 0.18226543E+03</rscale>
<asrwt>0</asrwt>
<pdfrwt beam="1">  1       21 0.27828513E-02 0.18247800E+03</pdfrwt>
<pdfrwt beam="2">  1       21 0.28597350E+00 0.18247800E+03</pdfrwt>
<totfact> 0.29733547E+04</totfact>
</mgrwt>
</event>
<event>
12    1  0.1473662E-001  0.1767409E+03  0.7546771E-02  0.1171043E+00
         21   -1    0    0  504  503  0.00000000000E+00  0.00000000000E+00  0.17011060641E+03  0.17011060641E+03  0.00000000000E+00 0.  1.
         21   -1    0    0  502  504 -0.00000000000E+00 -0.00000000000E+00 -0.24065229650E+03  0.24065229650E+03  0.00000000000E+00 0.  1.
          6    2    1    2  502    0  0.35524436198E+02  0.67693629202E+01 -0.13543505172E+03  0.22266566908E+03  0.17300155234E+03 0.  0.
         24    2    3    3    0    0  0.74515723359E+01 -0.55670209175E+02 -0.39450841939E+02  0.10467480344E+03  0.79030041285E+02 0.  0.
         -6    2    1    2    0  503 -0.35524436198E+02 -0.67693629202E+01  0.64893361626E+02  0.18809723383E+03  0.17280512478E+03 0.  0.
        -24    2    5    5    0    0  0.46074246213E+02 -0.30639527593E+02  0.70286410452E+02  0.10277839237E+03  0.50612267572E+02 0.  0.
          2    1    4    4  501    0 -0.35461041337E+02 -0.30427768960E+02 -0.14108222191E+02  0.48809594446E+02  0.00000000000E+00 0. -1.
         -1    1    4    4    0  501  0.42912613673E+02 -0.25242440215E+02 -0.25342619749E+02  0.55865208994E+02  0.00000000000E+00 0.  1.
          5    1    3    3  502    0  0.28072863862E+02  0.62439572095E+02 -0.95984209779E+02  0.11799086565E+03  0.47000000000E+01 0. -1.
         13    1    6    6    0    0  0.42927502462E+02 -0.28861164761E+02  0.25185730315E+02  0.57533106213E+02  0.00000000000E+00 0. -1.
        -14    1    6    6    0    0  0.31467437511E+01 -0.17783628312E+01  0.45100680138E+02  0.45245286158E+02  0.00000000000E+00 0.  1.
         -5    1    5    5    0  503 -0.81598682411E+02  0.23870164672E+02 -0.53930488261E+01  0.85318841461E+02  0.47000000000E+01 0.  1.
<mgrwt>
<rscale>  2 0.17669282E+03</rscale>
<asrwt>0</asrwt>
<pdfrwt beam="1">  1       21 0.26170862E-01 0.17674090E+03</pdfrwt>
<pdfrwt beam="2">  1       21 0.37023430E-01 0.17674090E+03</pdfrwt>
<totfact> 0.98227214E+04</totfact>
</mgrwt>
</event>
<event>
12    1  0.1473662E-001  0.1735446E+03  0.7546771E-02  0.1174427E+00
         21   -1    0    0  504  503  0.00000000000E+00  0.00000000000E+00  0.69487540935E+03  0.69487540935E+03  0.00000000000E+00 0.  1.
         21   -1    0    0  502  504 -0.00000000000E+00 -0.00000000000E+00 -0.30363642118E+03  0.30363642118E+03  0.00000000000E+00 0.  1.
          6    2    1    2  502    0 -0.47689516868E+01 -0.11952794230E+02 -0.26689912294E+03  0.31787719578E+03  0.17217769187E+03 0.  0.
         24    2    3    3    0    0  0.19799612890E+02  0.13492177652E+02 -0.26929502112E+03  0.28211560622E+03  0.80593692985E+02 0.  0.
         -6    2    1    2    0  503  0.47689516868E+01  0.11952794230E+02  0.65813811112E+03  0.68063463475E+03  0.17306680945E+03 0.  0.
        -24    2    5    5    0    0  0.23294144530E+02  0.54702804749E+02  0.24314091516E+03  0.26300380637E+03  0.80737126036E+02 0.  0.
          4    1    4    4  501    0  0.46646701514E+02  0.88318528936E+01 -0.22620186227E+03  0.23113026388E+03  0.00000000000E+00 0. -1.
         -3    1    4    4    0  501 -0.26847088624E+02  0.46603247586E+01 -0.43093158845E+02  0.50985342341E+02  0.00000000000E+00 0.  1.
          5    1    3    3  502    0 -0.24568564577E+02 -0.25444971882E+02  0.23958981718E+01  0.35761589555E+02  0.47000000000E+01 0. -1.
         13    1    6    6    0    0  0.15935700858E+02 -0.17310904548E+02  0.98354127963E+02  0.10112936500E+03  0.00000000000E+00 0. -1.
        -14    1    6    6    0    0  0.73584436722E+01  0.72013709297E+02  0.14478678720E+03  0.16187444137E+03  0.00000000000E+00 0.  1.
         -5    1    5    5    0  503 -0.18525192843E+02 -0.42750010519E+02  0.41499719595E+03  0.41763082839E+03  0.47000000000E+01 0.  1.
<mgrwt>
<rscale>  2 0.17332252E+03</rscale>
<asrwt>0</asrwt>
<pdfrwt beam="1">  1       21 0.10690391E+00 0.17354461E+03</pdfrwt>
<pdfrwt beam="2">  1       21 0.46713296E-01 0.17354461E+03</pdfrwt>
<totfact> 0.31228147E+03</totfact>
</mgrwt>
</event>
<event>
12    1  0.1473662E-001  0.2189088E+03  0.7546771E-02  0.1134801E+00
         21   -1    0    0  504  503  0.00000000000E+00  0.00000000000E+00  0.24729528946E+03  0.24729528946E+03  0.00000000000E+00 0.  1.
         21   -1    0    0  502  504 -0.00000000000E+00 -0.00000000000E+00 -0.33389294889E+03  0.33389294889E+03  0.00000000000E+00 0.  1.
          6    2    1    2  502    0 -0.12953807666E+03 -0.35091949738E+02 -0.23183431807E+03  0.31848168949E+03  0.17225526774E+03 0.  0.
         24    2    3    3    0    0 -0.67831025214E+02  0.45706370968E+02 -0.12648368571E+03  0.17199969549E+03  0.83040063641E+02 0.  0.
         -6    2    1    2    0  503  0.12953807666E+03  0.35091949738E+02  0.14523665864E+03  0.26270654886E+03  0.17294359069E+03 0.  0.
        -24    2    5    5    0    0  0.60939280799E+02  0.67770758955E+02  0.30474715348E+02  0.12498910990E+03  0.79919319349E+02 0.  0.
          4    1    4    4  501    0  0.42081173348E+01  0.32873835370E+02 -0.10322061624E+02  0.34712278226E+02  0.00000000000E+00 0. -1.
         -3    1    4    4    0  501 -0.72039142549E+02  0.12832535598E+02 -0.11616162409E+03  0.13728741727E+03  0.00000000000E+00 0.  1.
          5    1    3    3  502    0 -0.61707051447E+02 -0.80798320706E+02 -0.10535063235E+03  0.14648199399E+03  0.47000000000E+01 0. -1.
         13    1    6    6    0    0  0.18019416603E+02  0.59063056947E+02  0.47598187735E+02  0.77966220546E+02  0.00000000000E+00 0. -1.
        -14    1    6    6    0    0  0.42919864196E+02  0.87077020085E+01 -0.17123472387E+02  0.47022889357E+02  0.00000000000E+00 0.  1.
         -5    1    5    5    0  503  0.68598795862E+02 -0.32678809217E+02  0.11476194329E+03  0.13771743896E+03  0.47000000000E+01 0.  1.
<mgrwt>
<rscale>  2 0.21877278E+03</rscale>
<asrwt>0</asrwt>
<pdfrwt beam="1">  1       21 0.38045429E-01 0.21890876E+03</pdfrwt>
<pdfrwt beam="2">  1       21 0.51368146E-01 0.21890876E+03</pdfrwt>
<totfact> 0.23642512E+04</totfact>
</mgrwt>
</event>
<event>
12    1  0.1473662E-001  0.1795024E+03  0.7546771E-02  0.1169261E+00
         21   -1    0    0  504  503  0.00000000000E+00  0.00000000000E+00  0.60620839509E+03  0.60620839509E+03  0.00000000000E+00 0. -1.
         21   -1    0    0  502  504 -0.00000000000E+00 -0.00000000000E+00 -0.15409315949E+03  0.15409315949E+03  0.00000000000E+00 0. -1.
          6    2    1    2  502    0 -0.23090582045E+02  0.22897606531E+02 -0.84244752558E+02  0.19470172603E+03  0.17249379242E+03 0.  0.
         24    2    3    3    0    0 -0.11657293770E+02  0.29517999256E+02  0.20235855454E+02  0.89284283778E+02  0.80962884741E+02 0.  0.
         -6    2    1    2    0  503  0.23090582045E+02 -0.22897606531E+02  0.53635998815E+03  0.56559982855E+03  0.17653230242E+03 0.  0.
        -24    2    5    5    0    0 -0.25060735606E+01  0.55002216828E+02  0.30140012948E+03  0.31669865048E+03  0.80152809696E+02 0.  0.
          2    1    4    4  501    0  0.34978458408E+02  0.13329006856E+02  0.11439255583E+02  0.39140919058E+02  0.00000000000E+00 0. -1.
         -1    1    4    4    0  501 -0.46635752178E+02  0.16188992399E+02  0.87965998708E+01  0.50143364720E+02  0.00000000000E+00 0.  1.
          5    1    3    3  502    0 -0.11433288275E+02 -0.66203927247E+01 -0.10448060801E+03  0.10541744225E+03  0.47000000000E+01 0. -1.
         11    1    6    6    0    0 -0.11457153601E+02  0.31882905545E+02  0.28492469577E+03  0.28693181819E+03  0.00000000000E+00 0. -1.
        -12    1    6    6    0    0  0.89510800407E+01  0.23119311283E+02  0.16475433715E+02  0.29766832284E+02  0.00000000000E+00 0.  1.
         -5    1    5    5    0  503  0.25596655605E+02 -0.77899823359E+02  0.23495985867E+03  0.24890117807E+03  0.47000000000E+01 0.  1.
<mgrwt>
<rscale>  2 0.17850157E+03</rscale>
<asrwt>0</asrwt>
<pdfrwt beam="1">  1       21 0.93262829E-01 0.17950245E+03</pdfrwt>
<pdfrwt beam="2">  1       21 0.23706640E-01 0.17950245E+03</pdfrwt>
<totfact> 0.16345906E+04</totfact>
</mgrwt>
</event>
<event>
12    1  0.1473662E-001  0.1961814E+03  0.7546771E-02  0.1153070E+00
         21   -1    0    0  504  503  0.00000000000E+00  0.00000000000E+00  0.54008524287E+02  0.54008524287E+02  0.00000000000E+00 0. -1.
         21   -1    0    0  502  504 -0.00000000000E+00 -0.00000000000E+00 -0.75021938102E+03  0.75021938102E+03  0.00000000000E+00 0. -1.
          6    2    1    2  502    0 -0.57355541548E+02 -0.71504581930E+02 -0.43976675511E+03  0.48154123248E+03  0.17344911732E+03 0.  0.
         24    2    3    3    0    0 -0.35340638205E+02 -0.53669715446E+02 -0.11284420533E+03  0.15335960292E+03  0.81584030699E+02 0.  0.
         -6    2    1    2    0  503  0.57355541548E+02  0.71504581930E+02 -0.25644410163E+03  0.32268667283E+03  0.17309115569E+03 0.  0.
        -24    2    5    5    0    0 -0.27744125138E+02  0.34238891682E+02 -0.77871132352E+02  0.12133851591E+03  0.81957818453E+02 0.  0.
          2    1    4    4  501    0 -0.28538716574E+02 -0.75584814280E+02 -0.90786207100E+02  0.12153048133E+03  0.00000000000E+00 0. -1.
         -1    1    4    4    0  501 -0.68019216312E+01  0.21915098834E+02 -0.22057998235E+02  0.31829121586E+02  0.00000000000E+00 0.  1.
          5    1    3    3  502    0 -0.22014903343E+02 -0.17834866484E+02 -0.32692254977E+03  0.32818162956E+03  0.47000000000E+01 0. -1.
         11    1    6    6    0    0  0.25163781195E+02 -0.66815142549E+01 -0.18956657274E+02  0.32205797177E+02  0.00000000000E+00 0. -1.
        -12    1    6    6    0    0 -0.52907906333E+02  0.40920405937E+02 -0.58914475078E+02  0.89132718731E+02  0.00000000000E+00 0.  1.
         -5    1    5    5    0  503  0.85099666686E+02  0.37265690248E+02 -0.17857296928E+03  0.20134815692E+03  0.47000000000E+01 0.  1.
<mgrwt>
<rscale>  2 0.19610229E+03</rscale>
<asrwt>0</asrwt>
<pdfrwt beam="1">  1       21 0.83090041E-02 0.19618145E+03</pdfrwt>
<pdfrwt beam="2">  1       21 0.11541836E+00 0.19618145E+03</pdfrwt>
<totfact> 0.65162421E+04</totfact>
</mgrwt>
</event>
<event>
12    1  0.1473662E-001  0.2130085E+03  0.7546771E-02  0.1139347E+00
         21   -1    0    0  504  503  0.00000000000E+00  0.00000000000E+00  0.12372129710E+03  0.12372129710E+03  0.00000000000E+00 0. -1.
         21   -1    0    0  502  504 -0.00000000000E+00 -0.00000000000E+00 -0.43414020879E+03  0.43414020879E+03  0.00000000000E+00 0. -1.
          6    2    1    2  502    0 -0.30950850113E+02  0.11534999591E+03 -0.26591253714E+03  0.34025308462E+03  0.17549674499E+03 0.  0.
         24    2    3    3    0    0  0.39769044816E+02  0.40058931755E+02 -0.78774107330E+02  0.12644726198E+03  0.81223488834E+02 0.  0.
         -6    2    1    2    0  503  0.30950850113E+02 -0.11534999591E+03 -0.44506374544E+02  0.21760842127E+03  0.17637752395E+03 0.  0.
        -24    2    5    5    0    0  0.53563989774E+02 -0.14169924707E+03 -0.48823396048E+02  0.18230454335E+03  0.88901321171E+02 0.  0.
          4    1    4    4  501    0  0.57930319607E+02  0.90721605318E+01 -0.66100560374E+02  0.88360116049E+02  0.00000000000E+00 0. -1.
         -3    1    4    4    0  501 -0.18161274791E+02  0.30986771223E+02 -0.12673546956E+02  0.38087145933E+02  0.00000000000E+00 0.  1.
          5    1    3    3  502    0 -0.70719894929E+02  0.75291064159E+02 -0.18713842981E+03  0.21380582263E+03  0.47000000000E+01 0. -1.
         13    1    6    6    0    0  0.25704496042E+02 -0.62844862516E+02 -0.68436780902E+02  0.96404309249E+02  0.00000000000E+00 0. -1.
        -14    1    6    6    0    0  0.27859493732E+02 -0.78854384550E+02  0.19613384854E+02  0.85900234104E+02  0.00000000000E+00 0.  1.
         -5    1    5    5    0  503 -0.22613139661E+02  0.26349251152E+02  0.43170215039E+01  0.35303877921E+02  0.47000000000E+01 0.  1.
<mgrwt>
<rscale>  2 0.21282605E+03</rscale>
<asrwt>0</asrwt>
<pdfrwt beam="1">  1       21 0.19034046E-01 0.21300847E+03</pdfrwt>
<pdfrwt beam="2">  1       21 0.66790801E-01 0.21300847E+03</pdfrwt>
<totfact> 0.51487146E+04</totfact>
</mgrwt>
</event>
<event>
12    1  0.1473662E-001  0.1831218E+03  0.7546771E-02  0.1166166E+00
         21   -1    0    0  504  503  0.00000000000E+00  0.00000000000E+00  0.14204824773E+03  0.14204824773E+03  0.00000000000E+00 0. -1.
         21   -1    0    0  502  504 -0.00000000000E+00 -0.00000000000E+00 -0.23771821313E+03  0.23771821313E+03  0.00000000000E+00 0. -1.
          6    2    1    2  502    0  0.14557684680E+02 -0.49905477071E+02 -0.85138084841E+02  0.20194579652E+03  0.17558795066E+03 0.  0.
         24    2    3    3    0    0 -0.50075908634E+01  0.10396812693E+02 -0.10672110663E+03  0.13481098449E+03  0.81556344069E+02 0.  0.
         -6    2    1    2    0  503 -0.14557684680E+02  0.49905477071E+02 -0.10531880563E+02  0.17782066433E+03  0.16972561778E+03 0.  0.
        -24    2    5    5    0    0 -0.25027162483E+02  0.10081647680E+03 -0.14164145480E+02  0.12550600857E+03  0.68998654428E+02 0.  0.
          4    1    4    4  501    0  0.32556677888E+02  0.14638021449E+02 -0.82560173373E+02  0.89946601795E+02  0.00000000000E+00 0. -1.
         -3    1    4    4    0  501 -0.37564268751E+02 -0.42412087564E+01 -0.24160933255E+02  0.44864382692E+02  0.00000000000E+00 0.  1.
          5    1    3    3  502    0  0.19565275543E+02 -0.60302289764E+02  0.21583021787E+02  0.67134812037E+02  0.47000000000E+01 0. -1.
         13    1    6    6    0    0 -0.17677375732E+02  0.20033862195E+01 -0.19348574294E+02  0.26284415465E+02  0.00000000000E+00 0. -1.
        -14    1    6    6    0    0 -0.73497867505E+01  0.98813090585E+02  0.51844288143E+01  0.99221593105E+02  0.00000000000E+00 0.  1.
         -5    1    5    5    0  503  0.10469477803E+02 -0.50910999734E+02  0.36322649167E+01  0.52314655764E+02  0.47000000000E+01 0.  1.
<mgrwt>
<rscale>  2 0.18170209E+03</rscale>
<asrwt>0</asrwt>
<pdfrwt beam="1">  1       21 0.21853577E-01 0.18312185E+03</pdfrwt>
<pdfrwt beam="2">  1       21 0.36572033E-01 0.18312185E+03</pdfrwt>
<totfact> 0.14138883E+05</totfact>
</mgrwt>
</event>
<event>
12    1  0.1473662E-001  0.2228405E+03  0.7546771E-02  0.1132467E+00
         21   -1    0    0  504  503  0.00000000000E+00  0.00000000000E+00  0.28835838357E+03  0.28835838357E+03  0.00000000000E+00 0. -1.
         21   -1    0    0  502  504 -0.00000000000E+00 -0.00000000000E+00 -0.29056774581E+03  0.29056774581E+03  0.00000000000E+00 0. -1.
          6    2    1    2  502    0  0.71726195276E+02  0.12354679993E+03 -0.18804860592E+03  0.28876389361E+03  0.16617415324E+03 0.  0.
         24    2    3    3    0    0  0.26362089191E+02  0.67282030737E+02 -0.21275854148E+02  0.10694291818E+03  0.75909777848E+02 0.  0.
         -6    2    1    2    0  503 -0.71726195276E+02 -0.12354679993E+03  0.18583924368E+03  0.29016223576E+03  0.17102467573E+03 0.  0.
        -24    2    5    5    0    0  0.11997493834E+02 -0.10939128323E+03  0.12648646022E+03  0.18645650942E+03  0.81589292079E+02 0.  0.
          2    1    4    4  501    0  0.28815636097E+02 -0.71530378742E+01 -0.78749406314E+00  0.29700622576E+02  0.00000000000E+00 0. -1.
         -1    1    4    4    0  501 -0.24535469057E+01  0.74435068611E+02 -0.20488360085E+02  0.77242295606E+02  0.00000000000E+00 0.  1.
          5    1    3    3  502    0  0.45364106085E+02  0.56264769188E+02 -0.16677275177E+03  0.18182097543E+03  0.47000000000E+01 0. -1.
         13    1    6    6    0    0  0.41750517288E+02 -0.28470032234E+02  0.52147781820E+02  0.72615697876E+02  0.00000000000E+00 0. -1.
        -14    1    6    6    0    0 -0.29753023454E+02 -0.80921250993E+02  0.74338678404E+02  0.11384081155E+03  0.00000000000E+00 0.  1.
         -5    1    5    5    0  503 -0.83723689110E+02 -0.14155516698E+02  0.59352783455E+02  0.10370572634E+03  0.47000000000E+01 0.  1.
<mgrwt>
<rscale>  2 0.22190956E+03</rscale>
<asrwt>0</asrwt>
<pdfrwt beam="1">  1       21 0.44362828E-01 0.22284052E+03</pdfrwt>
<pdfrwt beam="2">  1       21 0.44702730E-01 0.22284052E+03</pdfrwt>
<totfact> 0.23044026E+04</totfact>
</mgrwt>
</event>
<event>
12    1  0.1473662E-001  0.2340740E+03  0.7546771E-02  0.1123876E+00
         21   -1    0    0  504  503  0.00000000000E+00  0.00000000000E+00  0.13022068278E+04  0.13022068278E+04  0.00000000000E+00 0. -1.
         21   -1    0    0  502  504 -0.00000000000E+00 -0.00000000000E+00 -0.46179462865E+02  0.46179462865E+02  0.00000000000E+00 0.  1.
          6    2    1    2  502    0 -0.15601733526E+03  0.83016809422E+01  0.42571818352E+03  0.48582569283E+03  0.17429946995E+03 0.  0.
         24    2    3    3    0    0 -0.17717627672E+02 -0.37750058151E+02  0.15088970032E+03  0.17469813543E+03  0.77541960515E+02 0.  0.
         -6    2    1    2    0  503  0.15601733526E+03 -0.83016809422E+01  0.83030918146E+03  0.86256059789E+03  0.17374441398E+03 0.  0.
        -24    2    5    5    0    0  0.72995214326E+02 -0.44867439312E+02  0.27238238695E+03  0.29728710188E+03  0.82740968073E+02 0.  0.
          4    1    4    4  501    0  0.57429027860E-01 -0.28984782596E+02  0.15210513439E+03  0.15484215456E+03  0.00000000000E+00 0. -1.
         -3    1    4    4    0  501 -0.17775056700E+02 -0.87652755547E+01 -0.12154340784E+01  0.19855980868E+02  0.00000000000E+00 0.  1.
          5    1    3    3  502    0 -0.13829970759E+03  0.46051739093E+02  0.27482848320E+03  0.31112755740E+03  0.47000000000E+01 0. -1.
         13    1    6    6    0    0  0.88854079543E+02 -0.25939083593E+02  0.23405501587E+03  0.25169353183E+03  0.00000000000E+00 0. -1.
        -14    1    6    6    0    0 -0.15858865217E+02 -0.18928355719E+02  0.38327371080E+02  0.45593570052E+02  0.00000000000E+00 0.  1.
         -5    1    5    5    0  503  0.83022120939E+02  0.36565758370E+02  0.55792679451E+03  0.56527349601E+03  0.47000000000E+01 0.  1.
<mgrwt>
<rscale>  2 0.23397067E+03</rscale>
<asrwt>0</asrwt>
<pdfrwt beam="1">  1       21 0.20033948E+00 0.23407399E+03</pdfrwt>
<pdfrwt beam="2">  1       21 0.71045337E-02 0.23407399E+03</pdfrwt>
<totfact> 0.19119801E+04</totfact>
</mgrwt>
</event>
<event>
12    1  0.1473662E-001  0.2208556E+03  0.7546771E-02  0.1133899E+00
         21   -1    0    0  504  503  0.00000000000E+00  0.00000000000E+00  0.75315250320E+02  0.75315250320E+02  0.00000000000E+00 0. -1.
         21   -1    0    0  502  504 -0.00000000000E+00 -0.00000000000E+00 -0.68659266800E+03  0.68659266800E+03  0.00000000000E+00 0.  1.
          6    2    1    2  502    0 -0.10539652286E+03 -0.81086820248E+02 -0.40529495511E+03  0.45990465023E+03  0.17194413983E+03 0.  0.
         24    2    3    3    0    0 -0.12895176149E+03 -0.78078822688E+02 -0.25233213714E+03  0.30503822070E+03  0.81559483268E+02 0.  0.
         -6    2    1    2    0  503  0.10539652286E+03  0.81086820248E+02 -0.20598246257E+03  0.30200326809E+03  0.17633405683E+03 0.  0.
        -24    2    5    5    0    0  0.50006628097E+02  0.34628602950E+02 -0.23368696633E+02  0.10554389848E+03  0.83027799728E+02 0.  0.
          2    1    4    4  501    0 -0.25414143406E+02 -0.32533602732E+02 -0.18407004179E+02  0.45201015416E+02  0.00000000000E+00 0. -1.
         -1    1    4    4    0  501 -0.10353761808E+03 -0.45545219956E+02 -0.23392513296E+03  0.25983720528E+03  0.00000000000E+00 0.  1.
          5    1    3    3  502    0  0.23555238627E+02 -0.30079975601E+01 -0.15296281797E+03  0.15486642953E+03  0.47000000000E+01 0. -1.
         13    1    6    6    0    0 -0.22975416534E+01  0.44583496028E+02 -0.27007946051E+02  0.52176584457E+02  0.00000000000E+00 0. -1.
        -14    1    6    6    0    0  0.52304169751E+02 -0.99548930777E+01  0.36392494183E+01  0.53367314021E+02  0.00000000000E+00 0.  1.
         -5    1    5    5    0  503  0.55389894762E+02  0.46458217298E+02 -0.18261376594E+03  0.19645936961E+03  0.47000000000E+01 0.  1.
<mgrwt>
<rscale>  2 0.21997817E+03</rscale>
<asrwt>0</asrwt>
<pdfrwt beam="1">  1       21 0.11586961E-01 0.22085561E+03</pdfrwt>
<pdfrwt beam="2">  1       21 0.10562964E+00 0.22085561E+03</pdfrwt>
<totfact> 0.44342165E+04</totfact>
</mgrwt>
</event>
<event>
12    1  0.1473662E-001  0.2275754E+03  0.7546771E-02  0.1130623E+00
         21   -1    0    0  504  503  0.00000000000E+00  0.00000000000E+00  0.56501493154E+02  0.56501493154E+02  0.00000000000E+00 0. -1.
         21   -1    0    0  502  504 -0.00000000000E+00 -0.00000000000E+00 -0.95609460066E+03  0.95609460066E+03  0.00000000000E+00 0.  1.
          6    2    1    2  502    0 -0.13681465165E+03 -0.59372561010E+02 -0.61509173957E+03  0.65584176619E+03  0.17189306060E+03 0.  0.
         24    2    3    3    0    0 -0.57166731757E+02 -0.67503662702E+02 -0.17318019459E+03  0.20671170758E+03  0.70096865517E+02 0.  0.
         -6    2    1    2    0  503  0.13681465165E+03  0.59372561010E+02 -0.28450136793E+03  0.35675432762E+03  0.15520719060E+03 0.  0.
        -24    2    5    5    0    0  0.13357772265E+03  0.23418757625E+02 -0.15171243072E+03  0.21906574591E+03  0.81127635236E+02 0.  0.
          4    1    4    4  501    0 -0.14733135220E+02 -0.43273910094E+02 -0.28183893122E+02  0.53703150743E+02  0.00000000000E+00 0. -1.
         -3    1    4    4    0  501 -0.42433596538E+02 -0.24229752609E+02 -0.14499630147E+03  0.15300855684E+03  0.00000000000E+00 0.  1.
          5    1    3    3  502    0 -0.79647919892E+02  0.81311016924E+01 -0.44191154498E+03  0.44913005860E+03  0.47000000000E+01 0. -1.
         13    1    6    6    0    0  0.86600136538E+02  0.30588657299E+02 -0.14418463089E+03  0.17095162294E+03  0.00000000000E+00 0. -1.
        -14    1    6    6    0    0  0.46977586116E+02 -0.71698996742E+01 -0.75277998345E+01  0.48114122968E+02  0.00000000000E+00 0.  1.
         -5    1    5    5    0  503  0.32369289955E+01  0.35953803385E+02 -0.13278893721E+03  0.13768858171E+03  0.47000000000E+01 0.  1.
<mgrwt>
<rscale>  2 0.22442947E+03</rscale>
<asrwt>0</asrwt>
<pdfrwt beam="1">  1       21 0.86925379E-02 0.22757543E+03</pdfrwt>
<pdfrwt beam="2">  1       21 0.14709147E+00 0.22757543E+03</pdfrwt>
<totfact> 0.32003159E+04</totfact>
</mgrwt>
</event>
<event>
12    1  0.1473662E-001  0.2820588E+03  0.7546771E-02  0.1094613E+00
         21   -1    0    0  504  503  0.00000000000E+00  0.00000000000E+00  0.41913570778E+03  0.41913570778E+03  0.00000000000E+00 0. -1.
         21   -1    0    0  502  504 -0.00000000000E+00 -0.00000000000E+00 -0.30063749113E+03  0.30063749113E+03  0.00000000000E+00 0.  1.
          6    2    1    2  502    0  0.43726285439E+02 -0.21834956671E+03  0.27794612042E+03  0.39576579527E+03  0.17259199728E+03 0.  0.
         24    2    3    3    0    0  0.51967140531E+02 -0.12593478910E+03  0.25474178527E+03  0.30001124454E+03  0.80951929520E+02 0.  0.
         -6    2    1    2    0  503 -0.43726285439E+02  0.21834956671E+03 -0.15944790377E+03  0.32400740364E+03  0.17311453515E+03 0.  0.
        -24    2    5    5    0    0 -0.60421815175E+02  0.80727223251E+02 -0.36645455177E+02  0.13874763599E+03  0.87979183810E+02 0.  0.
          4    1    4    4  501    0  0.57826315953E+02 -0.38479008809E+02  0.93383334239E+02  0.11638283400E+03  0.00000000000E+00 0. -1.
         -3    1    4    4    0  501 -0.58591754223E+01 -0.87455780288E+02  0.16135845103E+03  0.18362841055E+03  0.00000000000E+00 0.  1.
          5    1    3    3  502    0 -0.82408550918E+01 -0.92414777613E+02  0.23204335158E+02  0.95754550723E+02  0.47000000000E+01 0. -1.
         11    1    6    6    0    0 -0.26977626651E+02  0.45156566282E+02  0.26523118955E+02  0.58909962291E+02  0.00000000000E+00 0. -1.
        -12    1    6    6    0    0 -0.33444188524E+02  0.35570656969E+02 -0.63168574132E+02  0.79837673695E+02  0.00000000000E+00 0.  1.
         -5    1    5    5    0  503  0.16695529736E+02  0.13762234346E+03 -0.12280244859E+03  0.18525976766E+03  0.47000000000E+01 0.  1.
<mgrwt>
<rscale>  2 0.28197866E+03</rscale>
<asrwt>0</asrwt>
<pdfrwt beam="1">  1       21 0.64482417E-01 0.28205879E+03</pdfrwt>
<pdfrwt beam="2">  1       21 0.46251921E-01 0.28205879E+03</pdfrwt>
<totfact> 0.94220364E+03</totfact>
</mgrwt>
</event>
<event>
12    1  0.1473662E-001  0.1889605E+03  0.7546771E-02  0.1159586E+00
         21   -1    0    0  504  503  0.00000000000E+00  0.00000000000E+00  0.39519544689E+02  0.39519544689E+02  0.00000000000E+00 0. -1.
         21   -1    0    0  502  504 -0.00000000000E+00 -0.00000000000E+00 -0.96810462543E+03  0.96810462543E+03  0.00000000000E+00 0. -1.
          6    2    1    2  502    0 -0.18149343458E+02  0.72959109026E+02 -0.59919321044E+03  0.62828222795E+03  0.17335981154E+03 0.  0.
         24    2    3    3    0    0 -0.54363032639E+02  0.65186447722E+02 -0.23120345091E+03  0.25840333065E+03  0.78183331293E+02 0.  0.
         -6    2    1    2    0  503  0.18149343458E+02 -0.72959109026E+02 -0.32939187030E+03  0.37934194217E+03  0.17247862075E+03 0.  0.
        -24    2    5    5    0    0 -0.40830022211E+02 -0.78523971273E+02 -0.26988959604E+03  0.29524590239E+03  0.80601762039E+02 0.  0.
          2    1    4    4  501    0 -0.58574009840E+02  0.78961348987E+02 -0.21671482063E+03  0.23797294540E+03  0.00000000000E+00 0. -1.
         -1    1    4    4    0  501  0.42109772005E+01 -0.13774901265E+02 -0.14488630281E+02  0.20430385245E+02  0.00000000000E+00 0.  1.
          5    1    3    3  502    0  0.36213689181E+02  0.77726613042E+01 -0.36798975953E+03  0.36987889730E+03  0.47000000000E+01 0. -1.
         13    1    6    6    0    0  0.14876985153E+02 -0.54099735599E+02 -0.98184365576E+02  0.11308525864E+03  0.00000000000E+00 0. -1.
        -14    1    6    6    0    0 -0.55707007364E+02 -0.24424235674E+02 -0.17170523047E+03  0.18216064374E+03  0.00000000000E+00 0.  1.
         -5    1    5    5    0  503  0.58979365669E+02  0.55648622468E+01 -0.59502274254E+02  0.84096039788E+02  0.47000000000E+01 0.  1.
<mgrwt>
<rscale>  2 0.18875810E+03</rscale>
<asrwt>0</asrwt>
<pdfrwt beam="1">  1       21 0.60799298E-02 0.18896046E+03</pdfrwt>
<pdfrwt beam="2">  1       21 0.14893918E+00 0.18896046E+03</pdfrwt>
<totfact> 0.58818664E+04</totfact>
</mgrwt>
</event>
<event>
12    1  0.1473662E-001  0.1875022E+03  0.7546771E-02  0.1160801E+00
         21   -1    0    0  504  503  0.00000000000E+00  0.00000000000E+00  0.27854474000E+03  0.27854474000E+03  0.00000000000E+00 0. -1.
         21   -1    0    0  502  504 -0.00000000000E+00 -0.00000000000E+00 -0.23228879754E+03  0.23228879754E+03  0.00000000000E+00 0.  1.
          6    2    1    2  502    0 -0.37572084106E+02  0.60000776745E+02 -0.14964107361E+03  0.23966435561E+03  0.17330550402E+03 0.  0.
         24    2    3    3    0    0 -0.28649462060E+02  0.11886299898E+02 -0.16676924509E+03  0.18760592378E+03  0.80136918623E+02 0.  0.
         -6    2    1    2    0  503  0.37572084106E+02 -0.60000776745E+02  0.19589701608E+03  0.27116918193E+03  0.17362410434E+03 0.  0.
        -24    2    5    5    0    0 -0.68591600532E+01  0.17196986280E+02  0.48954909255E+02  0.99274729341E+02  0.84357005233E+02 0.  0.
          2    1    4    4  501    0  0.16667842567E+02 -0.13717428607E+02 -0.12844836579E+02  0.25119208789E+02  0.00000000000E+00 0. -1.
         -1    1    4    4    0  501 -0.45317304627E+02  0.25603728505E+02 -0.15392440851E+03  0.16248671499E+03  0.00000000000E+00 0.  1.
          5    1    3    3  502    0 -0.89226220455E+01  0.48114476848E+02  0.17128171478E+02  0.52058431831E+02  0.47000000000E+01 0. -1.
         13    1    6    6    0    0  0.26949603729E+02 -0.21845403350E+02  0.18456335845E+02  0.39295535644E+02  0.00000000000E+00 0. -1.
        -14    1    6    6    0    0 -0.33808763783E+02  0.39042389630E+02  0.30498573410E+02  0.59979193697E+02  0.00000000000E+00 0.  1.
         -5    1    5    5    0  503  0.44431244159E+02 -0.77197763026E+02  0.14694210683E+03  0.17189445259E+03  0.47000000000E+01 0.  1.
<mgrwt>
<rscale>  2 0.18742844E+03</rscale>
<asrwt>0</asrwt>
<pdfrwt beam="1">  1       21 0.42853037E-01 0.18750222E+03</pdfrwt>
<pdfrwt beam="2">  1       21 0.35736738E-01 0.18750222E+03</pdfrwt>
<totfact> 0.39644588E+04</totfact>
</mgrwt>
</event>
<event>
12    1  0.1473662E-001  0.2994443E+03  0.7546771E-02  0.1085653E+00
         21   -1    0    0  504  503  0.00000000000E+00  0.00000000000E+00  0.14407682270E+04  0.14407682270E+04  0.00000000000E+00 0. -1.
         21   -1    0    0  502  504 -0.00000000000E+00 -0.00000000000E+00 -0.93400428456E+02  0.93400428456E+02  0.00000000000E+00 0. -1.
          6    2    1    2  502    0  0.17627737184E+03 -0.16640739072E+03  0.22820407672E+03  0.37563754677E+03  0.17395785238E+03 0.  0.
         24    2    3    3    0    0  0.98030028494E+02 -0.16443829459E+03  0.10775912060E+03  0.23191697923E+03  0.74321046614E+02 0.  0.
         -6    2    1    2    0  503 -0.17627737184E+03  0.16640739072E+03  0.11191637218E+04  0.11585311087E+04  0.17578897016E+03 0.  0.
        -24    2    5    5    0    0 -0.19043355077E+03  0.11075588876E+03  0.98644975141E+03  0.10138501666E+04  0.79229060395E+02 0.  0.
          2    1    4    4  501    0  0.62422386932E+02 -0.68177068994E+02  0.87536245090E+02  0.12730774262E+03  0.00000000000E+00 0. -1.
         -1    1    4    4    0  501  0.35607641561E+02 -0.96261225591E+02  0.20222875512E+02  0.10460923661E+03  0.00000000000E+00 0.  1.
          5    1    3    3  502    0  0.78247343346E+02 -0.19690961332E+01  0.12044495611E+03  0.14372056754E+03  0.47000000000E+01 0. -1.
         11    1    6    6    0    0 -0.57597235312E+02  0.70312558245E+02  0.29869114806E+03  0.31221418817E+03  0.00000000000E+00 0. -1.
        -12    1    6    6    0    0 -0.13283631546E+03  0.40443330518E+02  0.68775860335E+03  0.70163597838E+03  0.00000000000E+00 0.  1.
         -5    1    5    5    0  503  0.14156178931E+02  0.55651501956E+02  0.13271397040E+03  0.14468094211E+03  0.47000000000E+01 0.  1.
<mgrwt>
<rscale>  2 0.29917613E+03</rscale>
<asrwt>0</asrwt>
<pdfrwt beam="1">  1       21 0.22165664E+00 0.29944431E+03</pdfrwt>
<pdfrwt beam="2">  1       21 0.14369298E-01 0.29944431E+03</pdfrwt>
<totfact> 0.38240313E+03</totfact>
</mgrwt>
</event>
<event>
12    1  0.1473662E-001  0.2151964E+03  0.7546771E-02  0.1137815E+00
         21   -1    0    0  504  503  0.00000000000E+00  0.00000000000E+00  0.31639677790E+03  0.31639677790E+03  0.00000000000E+00 0. -1.
         21   -1    0    0  502  504 -0.00000000000E+00 -0.00000000000E+00 -0.52793491268E+03  0.52793491268E+03  0.00000000000E+00 0.  1.
          6    2    1    2  502    0  0.13573333702E+02  0.12578157775E+03 -0.46527555200E+03  0.51263126935E+03  0.17408112573E+03 0.  0.
         24    2    3    3    0    0  0.51134270288E+01  0.30170526935E+02 -0.86534363663E+02  0.12188836052E+03  0.80200801139E+02 0.  0.
         -6    2    1    2    0  503 -0.13573333702E+02 -0.12578157775E+03  0.25373741723E+03  0.33170042123E+03  0.17215473231E+03 0.  0.
        -24    2    5    5    0    0  0.37668527337E+02 -0.13385790396E+03  0.18365074799E+03  0.24437810694E+03  0.81585571722E+02 0.  0.
          2    1    4    4  501    0  0.36790672651E+02  0.20950933770E+02 -0.18353472836E+02  0.46144828368E+02  0.00000000000E+00 0. -1.
         -1    1    4    4    0  501 -0.31677245622E+02  0.92195931649E+01 -0.68180890828E+02  0.75743532149E+02  0.00000000000E+00 0.  1.
          5    1    3    3  502    0  0.84599066728E+01  0.95611050812E+02 -0.37874118834E+03  0.39074290883E+03  0.47000000000E+01 0. -1.
         13    1    6    6    0    0  0.37134490388E+02 -0.60035387010E+02  0.35867423076E+02  0.79181374754E+02  0.00000000000E+00 0. -1.
        -14    1    6    6    0    0  0.53403694874E+00 -0.73822516945E+02  0.14778332491E+03  0.16519673219E+03  0.00000000000E+00 0.  1.
         -5    1    5    5    0  503 -0.51241861038E+02  0.80763262079E+01  0.70086669237E+02  0.87322314287E+02  0.47000000000E+01 0.  1.
<mgrwt>
<rscale>  2 0.21480648E+03</rscale>
<asrwt>0</asrwt>
<pdfrwt beam="1">  1       21 0.48676428E-01 0.21519637E+03</pdfrwt>
<pdfrwt beam="2">  1       21 0.81220755E-01 0.21519637E+03</pdfrwt>
<totfact> 0.52643374E+03</totfact>
</mgrwt>
</event>
<event>
12    1  0.1473662E-001  0.1837495E+03  0.7546771E-02  0.1164888E+00
         21   -1    0    0  504  503  0.00000000000E+00  0.00000000000E+00  0.16522067818E+03  0.16522067818E+03  0.00000000000E+00 0.  1.
         21   -1    0    0  502  504 -0.00000000000E+00 -0.00000000000E+00 -0.63991733296E+03  0.63991733296E+03  0.00000000000E+00 0.  1.
          6    2    1    2  502    0 -0.29051090173E+02 -0.42945184028E+02 -0.57122654090E+03  0.60005303795E+03  0.17628282009E+03 0.  0.
         24    2    3    3    0    0 -0.42776311826E+02 -0.44507751603E+02 -0.15399766419E+03  0.18256908750E+03  0.76193427066E+02 0.  0.
         -6    2    1    2    0  503  0.29051090173E+02  0.42945184028E+02  0.96529886110E+02  0.20508497319E+03  0.17335966268E+03 0.  0.
        -24    2    5    5    0    0 -0.19052958602E+02 -0.35668065243E+02  0.60780089296E+02  0.10611942140E+03  0.77018739493E+02 0.  0.
          4    1    4    4  501    0 -0.14226336287E+01 -0.54874812637E+02 -0.96025528803E+02  0.11060818745E+03  0.00000000000E+00 0. -1.
         -3    1    4    4    0  501 -0.41353678197E+02  0.10367061035E+02 -0.57972135388E+02  0.71960900053E+02  0.00000000000E+00 0.  1.
          5    1    3    3  502    0  0.13725221653E+02  0.15625675747E+01 -0.41722887671E+03  0.41748395045E+03  0.47000000000E+01 0. -1.
         13    1    6    6    0    0 -0.76693844534E+00  0.98228385856E+01 -0.13745850217E+02  0.16912266277E+02  0.00000000000E+00 0. -1.
        -14    1    6    6    0    0 -0.18286020157E+02 -0.45490903829E+02  0.74525939513E+02  0.89207155120E+02  0.00000000000E+00 0.  1.
         -5    1    5    5    0  503  0.48104048775E+02  0.78613249271E+02  0.35749796814E+02  0.98965551793E+02  0.47000000000E+01 0.  1.
<mgrwt>
<rscale>  2 0.18304486E+03</rscale>
<asrwt>0</asrwt>
<pdfrwt beam="1">  1       21 0.25418566E-01 0.18374952E+03</pdfrwt>
<pdfrwt beam="2">  1       21 0.98448821E-01 0.18374952E+03</pdfrwt>
<totfact> 0.12575582E+04</totfact>
</mgrwt>
</event>
<event>
12    1  0.1473662E-001  0.1743176E+03  0.7546771E-02  0.1173673E+00
         21   -1    0    0  504  503  0.00000000000E+00  0.00000000000E+00  0.16792431758E+03  0.16792431758E+03  0.00000000000E+00 0.  1.
         21   -1    0    0  502  504 -0.00000000000E+00 -0.00000000000E+00 -0.19401792676E+03  0.19401792676E+03  0.00000000000E+00 0.  1.
          6    2    1    2  502    0 -0.18245044930E+02  0.60795836599E+01 -0.61879643084E+02  0.18497487984E+03  0.17325349331E+03 0.  0.
         24    2    3    3    0    0  0.15476020136E+02 -0.58100660536E+02 -0.34961828322E+02  0.10749667177E+03  0.81963473869E+02 0.  0.
         -6    2    1    2    0  503  0.18245044930E+02 -0.60795836599E+01  0.35786033904E+02  0.17696736450E+03  0.17224100811E+03 0.  0.
        -24    2    5    5    0    0  0.22945775611E+02  0.62883256990E+02  0.17788516148E+02  0.10538544706E+03  0.79428260194E+02 0.  0.
          2    1    4    4  501    0 -0.58975242857E+01 -0.59098585438E+02  0.75830889965E+01  0.59874258511E+02  0.00000000000E+00 0. -1.
         -1    1    4    4    0  501  0.21373544422E+02  0.99792490261E+00 -0.42544917319E+02  0.47622413262E+02  0.00000000000E+00 0.  1.
          5    1    3    3  502    0 -0.33721065066E+02  0.64180244195E+02 -0.26917814762E+02  0.77478208070E+02  0.47000000000E+01 0. -1.
         11    1    6    6    0    0  0.44254179042E+01 -0.11084579413E+02 -0.17645744991E+02  0.21303157998E+02  0.00000000000E+00 0. -1.
        -12    1    6    6    0    0  0.18520357707E+02  0.73967836403E+02  0.35434261139E+02  0.84082289063E+02  0.00000000000E+00 0.  1.
         -5    1    5    5    0  503 -0.47007306817E+01 -0.68962840650E+02  0.17997517756E+02  0.71581917443E+02  0.47000000000E+01 0.  1.
<mgrwt>
<rscale>  2 0.17406546E+03</rscale>
<asrwt>0</asrwt>
<pdfrwt beam="1">  1       21 0.25834510E-01 0.17431757E+03</pdfrwt>
<pdfrwt beam="2">  1       21 0.29848912E-01 0.17431757E+03</pdfrwt>
<totfact> 0.15398384E+05</totfact>
</mgrwt>
</event>
<event>
12    1  0.1473662E-001  0.1859525E+03  0.7546771E-02  0.1162837E+00
         21   -1    0    0  504  503  0.00000000000E+00  0.00000000000E+00  0.10531134782E+03  0.10531134782E+03  0.00000000000E+00 0.  1.
         21   -1    0    0  502  504 -0.00000000000E+00 -0.00000000000E+00 -0.54465387893E+03  0.54465387893E+03  0.00000000000E+00 0.  1.
          6    2    1    2  502    0  0.11399298939E+02 -0.57534121823E+02 -0.11470355289E+02  0.18343234760E+03  0.17342357944E+03 0.  0.
         24    2    3    3    0    0 -0.36967111360E+02  0.19244670166E+01 -0.45035606994E+02  0.99626920844E+02  0.80790139026E+02 0.  0.
         -6    2    1    2    0  503 -0.11399298939E+02  0.57534121823E+02 -0.42787217582E+03  0.46653287915E+03  0.17646022015E+03 0.  0.
        -24    2    5    5    0    0 -0.54608190826E+02  0.58381795644E+02 -0.15296840685E+03  0.18821310069E+03  0.75062302179E+02 0.  0.
          4    1    4    4  501    0  0.13007100057E+02  0.27512774719E+02 -0.26925698104E+02  0.40634106893E+02  0.00000000000E+00 0. -1.
         -3    1    4    4    0  501 -0.49974211416E+02 -0.25588307703E+02 -0.18109908890E+02  0.58992813950E+02  0.00000000000E+00 0.  1.
          5    1    3    3  502    0  0.48366410298E+02 -0.59458588840E+02  0.33565251704E+02  0.83805426757E+02  0.47000000000E+01 0. -1.
         11    1    6    6    0    0 -0.56942609695E+02  0.10611914161E+02 -0.10806849383E+03  0.12261269461E+03  0.00000000000E+00 0. -1.
        -12    1    6    6    0    0  0.23344188681E+01  0.47769881484E+02 -0.44899913023E+02  0.65600406080E+02  0.00000000000E+00 0.  1.
         -5    1    5    5    0  503  0.43208891888E+02 -0.84767382115E+00 -0.27490376897E+03  0.27831977846E+03  0.47000000000E+01 0.  1.
<mgrwt>
<rscale>  2 0.18522849E+03</rscale>
<asrwt>0</asrwt>
<pdfrwt beam="1">  1       21 0.16201745E-01 0.18595249E+03</pdfrwt>
<pdfrwt beam="2">  1       21 0.83792907E-01 0.18595249E+03</pdfrwt>
<totfact> 0.42332173E+04</totfact>
</mgrwt>
</event>
<event>
12    1  0.1473662E-001  0.2031008E+03  0.7546771E-02  0.1148144E+00
         21   -1    0    0  504  503  0.00000000000E+00  0.00000000000E+00  0.18242267852E+03  0.18242267852E+03  0.00000000000E+00 0.  1.
         21   -1    0    0  502  504 -0.00000000000E+00 -0.00000000000E+00 -0.24312689080E+03  0.24312689080E+03  0.00000000000E+00 0. -1.
          6    2    1    2  502    0  0.17241396656E+02 -0.10195424912E+03 -0.95063187325E+02  0.22424752985E+03  0.17480849633E+03 0.  0.
         24    2    3    3    0    0  0.21223995021E+02 -0.12683800808E+02  0.12809017293E+02  0.84091985688E+02  0.79347680277E+02 0.  0.
         -6    2    1    2    0  503 -0.17241396656E+02  0.10195424912E+03  0.34358975037E+02  0.20130203947E+03  0.16926321885E+03 0.  0.
        -24    2    5    5    0    0  0.41169936615E+02  0.61387121466E+02 -0.21575933166E+02  0.11070193099E+03  0.79536496466E+02 0.  0.
          4    1    4    4  501    0  0.36979236883E+02  0.33623830100E+01 -0.21621541904E+02  0.42968135336E+02  0.00000000000E+00 0. -1.
         -3    1    4    4    0  501 -0.15755241861E+02 -0.16046183818E+02  0.34430559197E+02  0.41123850353E+02  0.00000000000E+00 0.  1.
          5    1    3    3  502    0 -0.39825983654E+01 -0.89270448308E+02 -0.10787220462E+03  0.14015554416E+03  0.47000000000E+01 0. -1.
         11    1    6    6    0    0  0.53059180118E+02  0.73432083155E+02 -0.23701481543E+02  0.93644581576E+02  0.00000000000E+00 0. -1.
        -12    1    6    6    0    0 -0.11889243503E+02 -0.12044961688E+02  0.21255483769E+01  0.17057349414E+02  0.00000000000E+00 0.  1.
         -5    1    5    5    0  503 -0.58411333271E+02  0.40567127649E+02  0.55934908203E+02  0.90600108476E+02  0.47000000000E+01 0.  1.
<mgrwt>
<rscale>  2 0.20190207E+03</rscale>
<asrwt>0</asrwt>
<pdfrwt beam="1">  1       21 0.28065028E-01 0.20310082E+03</pdfrwt>
<pdfrwt beam="2">  1       21 0.37404137E-01 0.20310082E+03</pdfrwt>
<totfact> 0.83240115E+04</totfact>
</mgrwt>
</event>
<event>
12    1  0.1473662E-001  0.1758610E+03  0.7546771E-02  0.1174058E+00
         21   -1    0    0  504  503  0.00000000000E+00  0.00000000000E+00  0.69308585940E+02  0.69308585940E+02  0.00000000000E+00 0.  1.
         21   -1    0    0  502  504 -0.00000000000E+00 -0.00000000000E+00 -0.61946874457E+03  0.61946874457E+03  0.00000000000E+00 0.  1.
          6    2    1    2  502    0 -0.12481836876E+02  0.15436624725E+02 -0.46339400353E+03  0.49267669332E+03  0.16613920668E+03 0.  0.
         24    2    3    3    0    0  0.13601570990E+02 -0.12084808228E+02 -0.11006722436E+03  0.13729003583E+03  0.80016965313E+02 0.  0.
         -6    2    1    2    0  503  0.12481836876E+02 -0.15436624725E+02 -0.86766155102E+02  0.19610063719E+03  0.17473696976E+03 0.  0.
        -24    2    5    5    0    0 -0.29581800631E+02  0.45389911005E+02 -0.66308234311E+02  0.11922519526E+03  0.82961064954E+02 0.  0.
          2    1    4    4  501    0  0.26392309409E+02 -0.41544547010E+02 -0.75300283867E+02  0.89959080323E+02  0.00000000000E+00 0. -1.
         -1    1    4    4    0  501 -0.12790738419E+02  0.29459738782E+02 -0.34766940493E+02  0.47330955512E+02  0.00000000000E+00 0.  1.
          5    1    3    3  502    0 -0.26083407866E+02  0.27521432953E+02 -0.35332677917E+03  0.35538665749E+03  0.47000000000E+01 0. -1.
         13    1    6    6    0    0 -0.32725815938E+02  0.48664468532E+02 -0.83167957506E+02  0.10176501699E+03  0.00000000000E+00 0. -1.
        -14    1    6    6    0    0  0.31440153075E+01 -0.32745575276E+01  0.16859723195E+02  0.17460178277E+02  0.00000000000E+00 0.  1.
         -5    1    5    5    0  503  0.42063637507E+02 -0.60826535730E+02 -0.20457920791E+02  0.76875441932E+02  0.47000000000E+01 0.  1.
<mgrwt>
<rscale>  2 0.17368599E+03</rscale>
<asrwt>0</asrwt>
<pdfrwt beam="1">  1       21 0.10662859E-01 0.17586101E+03</pdfrwt>
<pdfrwt beam="2">  1       21 0.95302883E-01 0.17586101E+03</pdfrwt>
<totfact> 0.67114123E+04</totfact>
</mgrwt>
</event>
<event>
12    1  0.1473662E-001  0.2445669E+03  0.7546771E-02  0.1118137E+00
         21   -1    0    0  504  503  0.00000000000E+00  0.00000000000E+00  0.20900231106E+03  0.20900231106E+03  0.00000000000E+00 0. -1.
         21   -1    0    0  502  504 -0.00000000000E+00 -0.00000000000E+00 -0.32826550094E+03  0.32826550094E+03  0.00000000000E+00 0.  1.
          6    2    1    2  502    0  0.14721654810E+03  0.90119639726E+02  0.47653833333E+02  0.24116940641E+03  0.16154730967E+03 0.  0.
         24    2    3    3    0    0  0.15550207519E+03  0.11396214676E+03  0.52584961125E+02  0.21502516953E+03  0.79387524915E+02 0.  0.
         -6    2    1    2    0  503 -0.14721654810E+03 -0.90119639726E+02 -0.16691702321E+03  0.29609840559E+03  0.17325908824E+03 0.  0.
        -24    2    5    5    0    0 -0.17103913751E+03 -0.99600070465E+02 -0.16174006301E+03  0.26952237785E+03  0.85486277160E+02 0.  0.
          2    1    4    4  501    0  0.11031665752E+03  0.49483644632E+02  0.61743059498E+02  0.13575935109E+03  0.00000000000E+00 0. -1.
         -1    1    4    4    0  501  0.45185417666E+02  0.64478502129E+02 -0.91580983729E+01  0.79265818436E+02  0.00000000000E+00 0.  1.
          5    1    3    3  502    0 -0.82855270944E+01 -0.23842507034E+02 -0.49311277924E+01  0.26144236884E+02  0.47000000000E+01 0. -1.
         11    1    6    6    0    0 -0.15453696994E+03 -0.51309099310E+02 -0.13704926174E+03  0.21283044635E+03  0.00000000000E+00 0. -1.
        -12    1    6    6    0    0 -0.16502167566E+02 -0.48290971155E+02 -0.24690801269E+02  0.56691931496E+02  0.00000000000E+00 0.  1.
         -5    1    5    5    0  503  0.23822589415E+02  0.94804307390E+01 -0.51769602040E+01  0.26576027739E+02  0.47000000000E+01 0.  1.
<mgrwt>
<rscale>  2 0.24250281E+03</rscale>
<asrwt>0</asrwt>
<pdfrwt beam="1">  1       21 0.32154202E-01 0.24456691E+03</pdfrwt>
<pdfrwt beam="2">  1       21 0.50502385E-01 0.24456691E+03</pdfrwt>
<totfact> 0.33842788E+04</totfact>
</mgrwt>
</event>
<event>
12    1  0.1473662E-001  0.1814235E+03  0.7546771E-02  0.1166534E+00
         21   -1    0    0  504  503  0.00000000000E+00  0.00000000000E+00  0.94802719935E+03  0.94802719935E+03  0.00000000000E+00 0. -1.
         21   -1    0    0  502  504 -0.00000000000E+00 -0.00000000000E+00 -0.14222039124E+03  0.14222039124E+03  0.00000000000E+00 0. -1.
          6    2    1    2  502    0 -0.53715968354E+02 -0.16400483360E+02 -0.71098150929E+02  0.19485748742E+03  0.17251119450E+03 0.  0.
         24    2    3    3    0    0 -0.88641289964E+02  0.25988936370E+02 -0.30006478087E+02  0.12610243981E+03  0.80428437127E+02 0.  0.
         -6    2    1    2    0  503  0.53715968354E+02  0.16400483360E+02  0.87690495904E+03  0.89539010317E+03  0.17206611683E+03 0.  0.
        -24    2    5    5    0    0  0.47268898470E+02 -0.39388718798E+02  0.33218933202E+03  0.34776687128E+03  0.82499845586E+02 0.  0.
          4    1    4    4  501    0 -0.95785248277E+02  0.82453397194E+01 -0.73045086969E+01  0.96416571511E+02  0.00000000000E+00 0. -1.
         -3    1    4    4    0  501  0.71439583131E+01  0.17743596651E+02 -0.22701969390E+02  0.29685868299E+02  0.00000000000E+00 0.  1.
          5    1    3    3  502    0  0.34925321610E+02 -0.42389419730E+02 -0.41091672843E+02  0.68755047608E+02  0.47000000000E+01 0. -1.
         11    1    6    6    0    0  0.43938979245E+02  0.15994618751E+00  0.70405206276E+02  0.82991279967E+02  0.00000000000E+00 0. -1.
        -12    1    6    6    0    0  0.33299192251E+01 -0.39548664985E+02  0.26178412574E+03  0.26477559131E+03  0.00000000000E+00 0.  1.
         -5    1    5    5    0  503  0.64470698840E+01  0.55789202157E+02  0.54471562702E+03  0.54762323190E+03  0.47000000000E+01 0.  1.
<mgrwt>
<rscale>  2 0.18131764E+03</rscale>
<asrwt>0</asrwt>
<pdfrwt beam="1">  1       21 0.14585033E+00 0.18142352E+03</pdfrwt>
<pdfrwt beam="2">  1       21 0.21880061E-01 0.18142352E+03</pdfrwt>
<totfact> 0.63325262E+03</totfact>
</mgrwt>
</event>
<event>
12    1  0.1473662E-001  0.2844531E+03  0.7546771E-02  0.1093546E+00
         21   -1    0    0  504  503  0.00000000000E+00  0.00000000000E+00  0.78822638142E+03  0.78822638142E+03  0.00000000000E+00 0. -1.
         21   -1    0    0  502  504 -0.00000000000E+00 -0.00000000000E+00 -0.10303316210E+03  0.10303316210E+03  0.00000000000E+00 0. -1.
          6    2    1    2  502    0  0.89267031605E+02 -0.20670652463E+03  0.29558298423E+03  0.40885962234E+03  0.17058927269E+03 0.  0.
         24    2    3    3    0    0  0.56500980874E+02 -0.55254032640E+02  0.65870389772E+02  0.13172889964E+03  0.82269227476E+02 0.  0.
         -6    2    1    2    0  503 -0.89267031605E+02  0.20670652463E+03  0.38961023510E+03  0.48239992118E+03  0.17383140799E+03 0.  0.
        -24    2    5    5    0    0 -0.84015779423E+02  0.20229247120E+03  0.40348207840E+03  0.46622656179E+03  0.81169724899E+02 0.  0.
          4    1    4    4  501    0  0.71899883920E+02 -0.48956282717E+02  0.73068484999E+02  0.11360155996E+03  0.00000000000E+00 0. -1.
         -3    1    4    4    0  501 -0.15398903046E+02 -0.62977499233E+01 -0.71980952263E+01  0.18127339683E+02  0.00000000000E+00 0.  1.
          5    1    3    3  502    0  0.32766050732E+02 -0.15145249199E+03  0.22971259445E+03  0.27713072270E+03  0.47000000000E+01 0. -1.
         13    1    6    6    0    0 -0.12420151775E+02  0.12200899534E+03  0.25406005444E+03  0.28211162042E+03  0.00000000000E+00 0. -1.
        -14    1    6    6    0    0 -0.71595627648E+02  0.80283475861E+02  0.14942202396E+03  0.18411494138E+03  0.00000000000E+00 0.  1.
         -5    1    5    5    0  503 -0.52512521828E+01  0.44140534335E+01 -0.13871843300E+02  0.16173359384E+02  0.47000000000E+01 0.  1.
<mgrwt>
<rscale>  2 0.28395938E+03</rscale>
<asrwt>0</asrwt>
<pdfrwt beam="1">  1       21 0.12126559E+00 0.28445307E+03</pdfrwt>
<pdfrwt beam="2">  1       21 0.15851256E-01 0.28445307E+03</pdfrwt>
<totfact> 0.17342868E+04</totfact>
</mgrwt>
</event>
<event>
12    1  0.1473662E-001  0.1773787E+03  0.7546771E-02  0.1170720E+00
         21   -1    0    0  504  503  0.00000000000E+00  0.00000000000E+00  0.55250127954E+02  0.55250127954E+02  0.00000000000E+00 0. -1.
         21   -1    0    0  502  504 -0.00000000000E+00 -0.00000000000E+00 -0.68905498422E+03  0.68905498422E+03  0.00000000000E+00 0. -1.
          6    2    1    2  502    0  0.11337827859E+02 -0.33708321139E+02 -0.47595107155E+03  0.50792974604E+03  0.17377688900E+03 0.  0.
         24    2    3    3    0    0 -0.42469136353E+02 -0.19736979189E+01 -0.13812944706E+03  0.16434887393E+03  0.78251422929E+02 0.  0.
         -6    2    1    2    0  503 -0.11337827859E+02  0.33708321139E+02 -0.15785378472E+03  0.23637536614E+03  0.17230989267E+03 0.  0.
        -24    2    5    5    0    0  0.59258773399E+02  0.54221301732E+01 -0.86039329426E+02  0.13166913568E+03  0.79956196515E+02 0.  0.
          2    1    4    4  501    0 -0.93256949355E+01  0.79243379448E+01  0.77097051456E+01  0.14463860872E+02  0.00000000000E+00 0. -1.
         -1    1    4    4    0  501 -0.33143441418E+02 -0.98980358638E+01 -0.14583915220E+03  0.14988501306E+03  0.00000000000E+00 0.  1.
          5    1    3    3  502    0  0.53806964212E+02 -0.31734623220E+02 -0.33782162449E+03  0.34358087211E+03  0.47000000000E+01 0. -1.
         13    1    6    6    0    0  0.31459952296E+02 -0.13071027379E+02  0.52465418018E+01  0.34468921598E+02  0.00000000000E+00 0. -1.
        -14    1    6    6    0    0  0.27798821102E+02  0.18493157552E+02 -0.91285871228E+02  0.97200214078E+02  0.00000000000E+00 0.  1.
         -5    1    5    5    0  503 -0.70596601258E+02  0.28286190966E+02 -0.71814455296E+02  0.10470623046E+03  0.47000000000E+01 0.  1.
<mgrwt>
<rscale>  2 0.17701837E+03</rscale>
<asrwt>0</asrwt>
<pdfrwt beam="1">  1       21 0.85000200E-02 0.17737870E+03</pdfrwt>
<pdfrwt beam="2">  1       21 0.10600846E+00 0.17737870E+03</pdfrwt>
<totfact> 0.77620503E+04</totfact>
</mgrwt>
</event>
<event>
12    1  0.1473662E-001  0.1972493E+03  0.7546771E-02  0.1152843E+00
         21   -1    0    0  504  503  0.00000000000E+00  0.00000000000E+00  0.20466271034E+03  0.20466271034E+03  0.00000000000E+00 0.  1.
         21   -1    0    0  502  504 -0.00000000000E+00 -0.00000000000E+00 -0.22572091073E+03  0.22572091073E+03  0.00000000000E+00 0.  1.
          6    2    1    2  502    0 -0.78946676541E+02 -0.36141758631E+02 -0.10003936103E+03  0.22116767545E+03  0.17711144078E+03 0.  0.
         24    2    3    3    0    0  0.13498543700E+02 -0.79472071693E+01 -0.19886378079E+00  0.82130750971E+02  0.80622899504E+02 0.  0.
         -6    2    1    2    0  503  0.78946676541E+02  0.36141758631E+02  0.78981160634E+02  0.20921594563E+03  0.17318915588E+03 0.  0.
        -24    2    5    5    0    0  0.30452945795E+02  0.90526011220E+02  0.36195924556E+02  0.12458760949E+03  0.71341340528E+02 0.  0.
          2    1    4    4  501    0  0.38269604549E+02 -0.27466832326E+02  0.11506189579E+02  0.48491049783E+02  0.00000000000E+00 0. -1.
         -1    1    4    4    0  501 -0.24771060849E+02  0.19519625157E+02 -0.11705053360E+02  0.33639701188E+02  0.00000000000E+00 0.  1.
          5    1    3    3  502    0 -0.92445220241E+02 -0.28194551461E+02 -0.99840497245E+02  0.13903692448E+03  0.47000000000E+01 0. -1.
         13    1    6    6    0    0  0.26432111812E+01 -0.72604873293E+00 -0.15735678495E+02  0.15972641917E+02  0.00000000000E+00 0. -1.
        -14    1    6    6    0    0  0.27809734614E+02  0.91252059952E+02  0.51931603051E+02  0.10861496757E+03  0.00000000000E+00 0.  1.
         -5    1    5    5    0  503  0.48493730746E+02 -0.54384252589E+02  0.42785236078E+02  0.84628336139E+02  0.47000000000E+01 0.  1.
<mgrwt>
<rscale>  2 0.19636478E+03</rscale>
<asrwt>0</asrwt>
<pdfrwt beam="1">  1       21 0.31486571E-01 0.19724925E+03</pdfrwt>
<pdfrwt beam="2">  1       21 0.34726294E-01 0.19724925E+03</pdfrwt>
<totfact> 0.77339243E+04</totfact>
</mgrwt>
</event>
<event>
12    1  0.1473662E-001  0.1928269E+03  0.7546771E-02  0.1159112E+00
         21   -1    0    0  504  503  0.00000000000E+00  0.00000000000E+00  0.55575770762E+02  0.55575770762E+02  0.00000000000E+00 0.  1.
         21   -1    0    0  502  504 -0.00000000000E+00 -0.00000000000E+00 -0.69916196981E+03  0.69916196981E+03  0.00000000000E+00 0.  1.
          6    2    1    2  502    0 -0.51383548657E+02 -0.14230934237E+02 -0.45769710896E+03  0.49665767157E+03  0.18530895989E+03 0.  0.
         24    2    3    3    0    0  0.17146336759E+02 -0.38393878882E+02 -0.37598890912E+03  0.38721127825E+03  0.82442873698E+02 0.  0.
         -6    2    1    2    0  503  0.51383548657E+02  0.14230934237E+02 -0.18588909009E+03  0.25808006900E+03  0.17090283684E+03 0.  0.
        -24    2    5    5    0    0  0.95465044762E+02  0.18897096955E+02 -0.16762291368E+03  0.20990648108E+03  0.80576761921E+02 0.  0.
          2    1    4    4  501    0 -0.17045651882E+02 -0.20402370882E+01 -0.26456364598E+03  0.26512004751E+03  0.00000000000E+00 0. -1.
         -1    1    4    4    0  501  0.34191988641E+02 -0.36353641794E+02 -0.11142526314E+03  0.12209123074E+03  0.00000000000E+00 0.  1.
          5    1    3    3  502    0 -0.68529885416E+02  0.24162944645E+02 -0.81708199838E+02  0.10944639332E+03  0.47000000000E+01 0. -1.
         11    1    6    6    0    0  0.36262339068E+02  0.20147136265E+02 -0.13719679663E+03  0.14333117365E+03  0.00000000000E+00 0. -1.
        -12    1    6    6    0    0  0.59202705694E+02 -0.12500393097E+01 -0.30426117048E+02  0.66575307423E+02  0.00000000000E+00 0.  1.
         -5    1    5    5    0  503 -0.44081496105E+02 -0.46661627180E+01 -0.18266176408E+02  0.48173587929E+02  0.47000000000E+01 0.  1.
<mgrwt>
<rscale>  2 0.18928017E+03</rscale>
<asrwt>0</asrwt>
<pdfrwt beam="1">  1       21 0.85501185E-02 0.19282686E+03</pdfrwt>
<pdfrwt beam="2">  1       21 0.10756338E+00 0.19282686E+03</pdfrwt>
<totfact> 0.73668592E+04</totfact>
</mgrwt>
</event>
<event>
12    1  0.1473662E-001  0.1736394E+03  0.7546771E-02  0.1174897E+00
         21   -1    0    0  504  503  0.00000000000E+00  0.00000000000E+00  0.39028455884E+03  0.39028455884E+03  0.00000000000E+00 0.  1.
         21   -1    0    0  502  504 -0.00000000000E+00 -0.00000000000E+00 -0.53332502649E+03  0.53332502649E+03  0.00000000000E+00 0.  1.
          6    2    1    2  502    0 -0.17377398716E+01 -0.10718816592E+02 -0.49930117361E+03  0.52863248268E+03  0.17329952972E+03 0.  0.
         24    2    3    3    0    0 -0.57835685567E+02 -0.35039645434E+02 -0.23638418314E+03  0.25865856523E+03  0.80336965636E+02 0.  0.
         -6    2    1    2    0  503  0.17377398716E+01  0.10718816592E+02  0.35626070596E+03  0.39497710265E+03  0.17019785027E+03 0.  0.
        -24    2    5    5    0    0 -0.46999068947E+02  0.38716012636E+02  0.14750498303E+03  0.17873612278E+03  0.80504903271E+02 0.  0.
          2    1    4    4  501    0  0.38404938246E+01 -0.34003747249E+02 -0.39119982012E+02  0.51974774770E+02  0.00000000000E+00 0. -1.
         -1    1    4    4    0  501 -0.61676179392E+02 -0.10358981846E+01 -0.19726420113E+03  0.20668379046E+03  0.00000000000E+00 0.  1.
          5    1    3    3  502    0  0.56097945696E+02  0.24320828841E+02 -0.26291699047E+03  0.26997391745E+03  0.47000000000E+01 0. -1.
         11    1    6    6    0    0  0.14466337177E+02  0.30984146004E+02  0.28267959096E+02  0.44366312968E+02  0.00000000000E+00 0. -1.
        -12    1    6    6    0    0 -0.61465406124E+02  0.77318666320E+01  0.11923702393E+03  0.13436980981E+03  0.00000000000E+00 0.  1.
         -5    1    5    5    0  503  0.48736808819E+02 -0.27997196044E+02  0.20875572293E+03  0.21624097987E+03  0.47000000000E+01 0.  1.
<mgrwt>
<rscale>  2 0.17286029E+03</rscale>
<asrwt>0</asrwt>
<pdfrwt beam="1">  1       21 0.60043778E-01 0.17363940E+03</pdfrwt>
<pdfrwt beam="2">  1       21 0.82050004E-01 0.17363940E+03</pdfrwt>
<totfact> 0.34155924E+03</totfact>
</mgrwt>
</event>
<event>
12    1  0.1473662E-001  0.3597004E+03  0.7546771E-02  0.1058720E+00
         21   -1    0    0  504  503  0.00000000000E+00  0.00000000000E+00  0.47297218569E+03  0.47297218569E+03  0.00000000000E+00 0.  1.
         21   -1    0    0  502  504 -0.00000000000E+00 -0.00000000000E+00 -0.29282084419E+03  0.29282084419E+03  0.00000000000E+00 0.  1.
          6    2    1    2  502    0  0.26874249068E+03 -0.16432053043E+03 -0.85006886633E+01  0.35962314308E+03  0.17329968354E+03 0.  0.
         24    2    3    3    0    0  0.16126378225E+03 -0.14643690578E+03 -0.58865900754E+02  0.23949720339E+03  0.80274163474E+02 0.  0.
         -6    2    1    2    0  503 -0.26874249068E+03  0.16432053043E+03  0.18865203017E+03  0.40616988680E+03  0.17366814744E+03 0.  0.
        -24    2    5    5    0    0 -0.10066704860E+03  0.63498188929E+02  0.14769626716E+03  0.20588518119E+03  0.80054018200E+02 0.  0.
          4    1    4    4  501    0  0.10590536324E+03 -0.10825867648E+03 -0.76932045470E+02  0.16986590775E+03  0.00000000000E+00 0. -1.
         -3    1    4    4    0  501  0.55358419011E+02 -0.38178229305E+02  0.18066144716E+02  0.69631295644E+02  0.00000000000E+00 0.  1.
          5    1    3    3  502    0  0.10747870843E+03 -0.17883624644E+02  0.50365212091E+02  0.12012593969E+03  0.47000000000E+01 0. -1.
         11    1    6    6    0    0 -0.80501779200E+02  0.43644107067E+01  0.90200285993E+02  0.12097799853E+03  0.00000000000E+00 0. -1.
        -12    1    6    6    0    0 -0.20165269396E+02  0.59133778223E+02  0.57495981166E+02  0.84907182658E+02  0.00000000000E+00 0.  1.
         -5    1    5    5    0  503 -0.16807544208E+03  0.10082234150E+03  0.40955763008E+02  0.20028470561E+03  0.47000000000E+01 0.  1.
<mgrwt>
<rscale>  2 0.35965597E+03</rscale>
<asrwt>0</asrwt>
<pdfrwt beam="1">  1       21 0.72764951E-01 0.35970041E+03</pdfrwt>
<pdfrwt beam="2">  1       21 0.45049361E-01 0.35970041E+03</pdfrwt>
<totfact> 0.73535848E+03</totfact>
</mgrwt>
</event>
<event>
12    1  0.1473662E-001  0.2043947E+03  0.7546771E-02  0.1146156E+00
         21   -1    0    0  504  503  0.00000000000E+00  0.00000000000E+00  0.37453256104E+03  0.37453256104E+03  0.00000000000E+00 0.  1.
         21   -1    0    0  502  504 -0.00000000000E+00 -0.00000000000E+00 -0.12061150648E+03  0.12061150648E+03  0.00000000000E+00 0.  1.
          6    2    1    2  502    0  0.75088988367E+02  0.76632532321E+02  0.19566101737E+03  0.28294951752E+03  0.17397210859E+03 0.  0.
         24    2    3    3    0    0  0.53635853916E+02  0.64302911401E+02  0.36877284777E+02  0.12218067643E+03  0.80972305892E+02 0.  0.
         -6    2    1    2    0  503 -0.75088988367E+02 -0.76632532321E+02  0.58260037187E+02  0.21219454999E+03  0.17355516106E+03 0.  0.
        -24    2    5    5    0    0 -0.71760142814E+02 -0.91222383539E+01  0.86376008477E+02  0.13883707699E+03  0.81130670998E+02 0.  0.
          4    1    4    4  501    0  0.36083072582E+02  0.33559867766E+02 -0.21615215610E+02  0.53809575331E+02  0.00000000000E+00 0. -1.
         -3    1    4    4    0  501  0.17552781334E+02  0.30743043635E+02  0.58492500387E+02  0.68371101103E+02  0.00000000000E+00 0.  1.
          5    1    3    3  502    0  0.21453134451E+02  0.12329620920E+02  0.15878373259E+03  0.16076884109E+03  0.47000000000E+01 0. -1.
         11    1    6    6    0    0 -0.43366119929E+02 -0.45273208123E+02  0.51592432722E+02  0.81191519543E+02  0.00000000000E+00 0. -1.
        -12    1    6    6    0    0 -0.28394022885E+02  0.36150969769E+02  0.34783575755E+02  0.57645557445E+02  0.00000000000E+00 0.  1.
         -5    1    5    5    0  503 -0.33288455531E+01 -0.67510293967E+02 -0.28115971290E+02  0.73357473006E+02  0.47000000000E+01 0.  1.
<mgrwt>
<rscale>  2 0.20430596E+03</rscale>
<asrwt>0</asrwt>
<pdfrwt beam="1">  1       21 0.57620394E-01 0.20439471E+03</pdfrwt>
<pdfrwt beam="2">  1       21 0.18555616E-01 0.20439471E+03</pdfrwt>
<totfact> 0.74601255E+04</totfact>
</mgrwt>
</event>
<event>
12    1  0.1473662E-001  0.2184156E+03  0.7546771E-02  0.1136864E+00
         21   -1    0    0  504  503  0.00000000000E+00  0.00000000000E+00  0.13147023094E+04  0.13147023094E+04  0.00000000000E+00 0. -1.
         21   -1    0    0  502  504 -0.00000000000E+00 -0.00000000000E+00 -0.12015647890E+03  0.12015647890E+03  0.00000000000E+00 0. -1.
          6    2    1    2  502    0  0.45836103457E+02 -0.12542875484E+03 -0.11286483717E+02  0.20940501764E+03  0.16090293900E+03 0.  0.
         24    2    3    3    0    0  0.16213483260E+02 -0.13020749096E+03  0.31280732201E+02  0.15711358606E+03  0.80556359008E+02 0.  0.
         -6    2    1    2    0  503 -0.45836103457E+02  0.12542875484E+03  0.12058323142E+04  0.12254537706E+04  0.17283533513E+03 0.  0.
        -24    2    5    5    0    0 -0.68781634050E+02  0.11606053534E+02  0.65839534650E+03  0.66581868567E+03  0.70459039494E+02 0.  0.
          4    1    4    4  501    0  0.44201700810E+02 -0.52970769061E+02 -0.59971224772E+00  0.68993132877E+02  0.00000000000E+00 0. -1.
         -3    1    4    4    0  501 -0.27988217550E+02 -0.77236721895E+02  0.31880444449E+02  0.88120453182E+02  0.00000000000E+00 0.  1.
          5    1    3    3  502    0  0.29622620198E+02  0.47787361175E+01 -0.42567215918E+02  0.52291431585E+02  0.47000000000E+01 0. -1.
         13    1    6    6    0    0 -0.71047633745E+02  0.28059953411E+02  0.60745241348E+03  0.61223652447E+03  0.00000000000E+00 0. -1.
        -14    1    6    6    0    0  0.22659996951E+01 -0.16453899877E+02  0.50942933015E+02  0.53582161210E+02  0.00000000000E+00 0.  1.
         -5    1    5    5    0  503  0.22945530592E+02  0.11382270130E+03  0.54743696768E+03  0.55963508494E+03  0.47000000000E+01 0.  1.
<mgrwt>
<rscale>  2 0.21604866E+03</rscale>
<asrwt>0</asrwt>
<pdfrwt beam="1">  1       21 0.20226188E+00 0.21841560E+03</pdfrwt>
<pdfrwt beam="2">  1       21 0.18485613E-01 0.21841560E+03</pdfrwt>
<totfact> 0.33878829E+03</totfact>
</mgrwt>
</event>
<event>
12    1  0.1473662E-001  0.1815608E+03  0.7546771E-02  0.1166604E+00
         21   -1    0    0  504  503  0.00000000000E+00  0.00000000000E+00  0.71838479667E+03  0.71838479667E+03  0.00000000000E+00 0.  1.
         21   -1    0    0  502  504 -0.00000000000E+00 -0.00000000000E+00 -0.77565617632E+02  0.77565617632E+02  0.00000000000E+00 0.  1.
          6    2    1    2  502    0  0.13614958263E+02 -0.55825559807E+02  0.65456294770E+02  0.19299962876E+03  0.17222795928E+03 0.  0.
         24    2    3    3    0    0  0.71308076815E+01 -0.84735436339E+02 -0.82398702167E+01  0.11343179667E+03  0.74618593151E+02 0.  0.
         -6    2    1    2    0  503 -0.13614958263E+02  0.55825559807E+02  0.57536288427E+03  0.60295078555E+03  0.17089570206E+03 0.  0.
        -24    2    5    5    0    0  0.19826219768E+02 -0.56523325705E+01  0.45990184256E+03  0.46785383594E+03  0.83381527721E+02 0.  0.
          2    1    4    4  501    0  0.22737341274E+01 -0.41828140116E+02  0.33300385045E+02  0.53513351760E+02  0.00000000000E+00 0. -1.
         -1    1    4    4    0  501  0.48570735542E+01 -0.42907296223E+02 -0.41540255262E+02  0.59918444906E+02  0.00000000000E+00 0.  1.
          5    1    3    3  502    0  0.64841505811E+01  0.28909876532E+02  0.73696164986E+02  0.79567832090E+02  0.47000000000E+01 0. -1.
         13    1    6    6    0    0  0.46428561614E+02 -0.21341801089E+02  0.21379561033E+03  0.21981730324E+03  0.00000000000E+00 0. -1.
        -14    1    6    6    0    0 -0.26602341847E+02  0.15689468518E+02  0.24610623223E+03  0.24803653271E+03  0.00000000000E+00 0.  1.
         -5    1    5    5    0  503 -0.33441178030E+02  0.61477892377E+02  0.11546104171E+03  0.13509694960E+03  0.47000000000E+01 0.  1.
<mgrwt>
<rscale>  2 0.18124417E+03</rscale>
<asrwt>0</asrwt>
<pdfrwt beam="1">  1       21 0.11052073E+00 0.18156082E+03</pdfrwt>
<pdfrwt beam="2">  1       21 0.11933172E-01 0.18156082E+03</pdfrwt>
<totfact> 0.38500851E+04</totfact>
</mgrwt>
</event>
<event>
12    1  0.1473662E-001  0.3794311E+03  0.7546771E-02  0.1051422E+00
         21   -1    0    0  504  503  0.00000000000E+00  0.00000000000E+00  0.44756153212E+03  0.44756153212E+03  0.00000000000E+00 0.  1.
         21   -1    0    0  502  504 -0.00000000000E+00 -0.00000000000E+00 -0.34098196774E+03  0.34098196774E+03  0.00000000000E+00 0. -1.
          6    2    1    2  502    0  0.13952158140E+03 -0.30357179591E+03 -0.46291788171E+02  0.38224454392E+03  0.17984953364E+03 0.  0.
         24    2    3    3    0    0  0.14378935136E+03 -0.19644365121E+03 -0.81243458451E+02  0.26938018948E+03  0.81851702951E+02 0.  0.
         -6    2    1    2    0  503 -0.13952158140E+03  0.30357179591E+03  0.15287135254E+03  0.40629895594E+03  0.17345628909E+03 0.  0.
        -24    2    5    5    0    0 -0.98785881747E+02  0.83858573930E+02  0.71555889759E+02  0.16845953190E+03  0.80420505320E+02 0.  0.
          4    1    4    4  501    0  0.10554404434E+03 -0.16508743211E+03 -0.95407404659E+02  0.21793572080E+03  0.00000000000E+00 0. -1.
         -3    1    4    4    0  501  0.38245307022E+02 -0.31356219103E+02  0.14163946208E+02  0.51444468680E+02  0.00000000000E+00 0.  1.
          5    1    3    3  502    0 -0.42677699602E+01 -0.10712814470E+03  0.34951670280E+02  0.11286435444E+03  0.47000000000E+01 0. -1.
         11    1    6    6    0    0 -0.75514228698E+01  0.49734118722E+02  0.45006364915E+02  0.67498736546E+02  0.00000000000E+00 0. -1.
        -12    1    6    6    0    0 -0.91234458877E+02  0.34124455208E+02  0.26549524844E+02  0.10096079536E+03  0.00000000000E+00 0.  1.
         -5    1    5    5    0  503 -0.40735699652E+02  0.21971322198E+03  0.81315462784E+02  0.23783942404E+03  0.47000000000E+01 0.  1.
<mgrwt>
<rscale>  2 0.37868181E+03</rscale>
<asrwt>0</asrwt>
<pdfrwt beam="1">  1       21 0.68855620E-01 0.37943110E+03</pdfrwt>
<pdfrwt beam="2">  1       21 0.52458764E-01 0.37943110E+03</pdfrwt>
<totfact> 0.59918108E+03</totfact>
</mgrwt>
</event>
<event>
12    1  0.1473662E-001  0.2120519E+03  0.7546771E-02  0.1140529E+00
         21   -1    0    0  504  503  0.00000000000E+00  0.00000000000E+00  0.10994283801E+03  0.10994283801E+03  0.00000000000E+00 0.  1.
         21   -1    0    0  502  504 -0.00000000000E+00 -0.00000000000E+00 -0.40620290322E+03  0.40620290322E+03  0.00000000000E+00 0.  1.
          6    2    1    2  502    0  0.15239193384E+02 -0.11565332952E+03 -0.17076713270E+03  0.27226354878E+03  0.17708218640E+03 0.  0.
         24    2    3    3    0    0  0.29629792934E+02  0.23559121472E+01 -0.10834731206E+03  0.13790732643E+03  0.79973843868E+02 0.  0.
         -6    2    1    2    0  503 -0.15239193384E+02  0.11565332952E+03 -0.12549293251E+03  0.24388219245E+03  0.17355725868E+03 0.  0.
        -24    2    5    5    0    0 -0.67642923675E+02  0.80544758361E+02 -0.41549117871E+02  0.13877550031E+03  0.80431878429E+02 0.  0.
          2    1    4    4  501    0  0.23699454725E+01  0.32304015163E+02 -0.14097748471E+02  0.35325805711E+02  0.00000000000E+00 0. -1.
         -1    1    4    4    0  501  0.27259847462E+02 -0.29948103015E+02 -0.94249563586E+02  0.10258152072E+03  0.00000000000E+00 0.  1.
          5    1    3    3  502    0 -0.14390599550E+02 -0.11800924167E+03 -0.62419820642E+02  0.13435622235E+03  0.47000000000E+01 0. -1.
         13    1    6    6    0    0  0.77419325102E+01 -0.11159334210E+02 -0.60584604070E+01  0.14871893003E+02  0.00000000000E+00 0. -1.
        -14    1    6    6    0    0 -0.75384856185E+02  0.91704092571E+02 -0.35490657464E+02  0.12390360731E+03  0.00000000000E+00 0.  1.
         -5    1    5    5    0  503  0.52403730291E+02  0.35108571161E+02 -0.83943814634E+02  0.10510669214E+03  0.47000000000E+01 0.  1.
<mgrwt>
<rscale>  2 0.21131444E+03</rscale>
<asrwt>0</asrwt>
<pdfrwt beam="1">  1       21 0.16914283E-01 0.21205194E+03</pdfrwt>
<pdfrwt beam="2">  1       21 0.62492754E-01 0.21205194E+03</pdfrwt>
<totfact> 0.74107141E+04</totfact>
</mgrwt>
</event>
<event>
12    1  0.1473662E-001  0.2483874E+03  0.7546771E-02  0.1114444E+00
         21   -1    0    0  504  503  0.00000000000E+00  0.00000000000E+00  0.67609013257E+02  0.67609013257E+02  0.00000000000E+00 0. -1.
         21   -1    0    0  502  504 -0.00000000000E+00 -0.00000000000E+00 -0.10992817282E+04  0.10992817282E+04  0.00000000000E+00 0. -1.
          6    2    1    2  502    0 -0.14109520922E+03  0.10707667845E+03 -0.75739207600E+03  0.79685535410E+03  0.17309657835E+03 0.  0.
         24    2    3    3    0    0 -0.67682843420E+02  0.31436380892E+02 -0.19324046658E+03  0.22292159618E+03  0.82358647285E+02 0.  0.
         -6    2    1    2    0  503  0.14109520922E+03 -0.10707667845E+03 -0.27428063895E+03  0.37003538737E+03  0.17413513680E+03 0.  0.
        -24    2    5    5    0    0  0.77704240201E+02  0.13678949491E+02 -0.12465167082E+03  0.16752303037E+03  0.79377982228E+02 0.  0.
          2    1    4    4  501    0 -0.56289662576E+02 -0.16621833653E+02 -0.78611467867E+02  0.98104915000E+02  0.00000000000E+00 0. -1.
         -1    1    4    4    0  501 -0.11393180843E+02  0.48058214545E+02 -0.11462899872E+03  0.12481668118E+03  0.00000000000E+00 0.  1.
          5    1    3    3  502    0 -0.73412365797E+02  0.75640297556E+02 -0.56415160942E+03  0.57393375791E+03  0.47000000000E+01 0. -1.
         11    1    6    6    0    0  0.12772019133E+02  0.90095605429E+01  0.95840936855E+01  0.18334434970E+02  0.00000000000E+00 0. -1.
        -12    1    6    6    0    0  0.64932221068E+02  0.46693889484E+01 -0.13423576450E+03  0.14918859540E+03  0.00000000000E+00 0.  1.
         -5    1    5    5    0  503  0.63390969016E+02 -0.12075562794E+03 -0.14962896813E+03  0.20251235700E+03  0.47000000000E+01 0.  1.
<mgrwt>
<rscale>  2 0.24820549E+03</rscale>
<asrwt>0</asrwt>
<pdfrwt beam="1">  1       21 0.10401388E-01 0.24838744E+03</pdfrwt>
<pdfrwt beam="2">  1       21 0.16912025E+00 0.24838744E+03</pdfrwt>
<totfact> 0.15787494E+04</totfact>
</mgrwt>
</event>
<event>
12    1  0.1473662E-001  0.2100466E+03  0.7546771E-02  0.1141743E+00
         21   -1    0    0  504  503  0.00000000000E+00  0.00000000000E+00  0.10600367073E+03  0.10600367073E+03  0.00000000000E+00 0.  1.
         21   -1    0    0  502  504 -0.00000000000E+00 -0.00000000000E+00 -0.45853312090E+03  0.45853312090E+03  0.00000000000E+00 0. -1.
          6    2    1    2  502    0 -0.10973218056E+03 -0.38209381537E+02 -0.26456592316E+03  0.33780869839E+03  0.17498137251E+03 0.  0.
         24    2    3    3    0    0 -0.27642728157E+02 -0.35768687733E+02 -0.38732814215E+02  0.97460371423E+02  0.77167179934E+02 0.  0.
         -6    2    1    2    0  503  0.10973218056E+03  0.38209381537E+02 -0.87963527018E+02  0.22672809324E+03  0.17368632039E+03 0.  0.
        -24    2    5    5    0    0  0.12102641824E+03  0.71570281988E+02 -0.41025887284E+02  0.16785754451E+03  0.81995930670E+02 0.  0.
          2    1    4    4  501    0 -0.13738672227E+02  0.13965986199E+02  0.13669360015E+02  0.23888308611E+02  0.00000000000E+00 0. -1.
         -1    1    4    4    0  501 -0.13904055931E+02 -0.49734673932E+02 -0.52402174230E+02  0.73572062812E+02  0.00000000000E+00 0.  1.
          5    1    3    3  502    0 -0.82089452400E+02 -0.24406938042E+01 -0.22583310894E+03  0.24034832697E+03  0.47000000000E+01 0. -1.
         11    1    6    6    0    0 -0.36296331048E+01 -0.10066741386E+02  0.51251001805E+01  0.11865081983E+02  0.00000000000E+00 0. -1.
        -12    1    6    6    0    0  0.12465605134E+03  0.81637023374E+02 -0.46150987465E+02  0.15599246253E+03  0.00000000000E+00 0.  1.
         -5    1    5    5    0  503 -0.11294237678E+02 -0.33360900451E+02 -0.46937639734E+02  0.58870548727E+02  0.47000000000E+01 0.  1.
<mgrwt>
<rscale>  2 0.20977671E+03</rscale>
<asrwt>0</asrwt>
<pdfrwt beam="1">  1       21 0.16308257E-01 0.21004664E+03</pdfrwt>
<pdfrwt beam="2">  1       21 0.70543557E-01 0.21004664E+03</pdfrwt>
<totfact> 0.60835679E+04</totfact>
</mgrwt>
</event>
<event>
12    1  0.1473662E-001  0.2202254E+03  0.7546771E-02  0.1134212E+00
         21   -1    0    0  504  503  0.00000000000E+00  0.00000000000E+00  0.69474084417E+03  0.69474084417E+03  0.00000000000E+00 0.  1.
         21   -1    0    0  502  504 -0.00000000000E+00 -0.00000000000E+00 -0.82631291249E+02  0.82631291249E+02  0.00000000000E+00 0. -1.
          6    2    1    2  502    0  0.78596415518E+02 -0.10817363815E+03  0.46254035540E+03  0.51115760446E+03  0.17163794365E+03 0.  0.
         24    2    3    3    0    0 -0.18550995848E+01 -0.93294498647E+02  0.19180611785E+03  0.22829199599E+03  0.81365494623E+02 0.  0.
         -6    2    1    2    0  503 -0.78596415518E+02  0.10817363815E+03  0.14956919752E+03  0.26621453096E+03  0.17498656841E+03 0.  0.
        -24    2    5    5    0    0 -0.10389354036E+03  0.97820914171E+02  0.64320096159E+02  0.17656731850E+03  0.81707675369E+02 0.  0.
          4    1    4    4  501    0  0.35268306482E+01 -0.85462389197E+02  0.83381763161E+02  0.11945198588E+03  0.00000000000E+00 0. -1.
         -3    1    4    4    0  501 -0.53819302330E+01 -0.78321094497E+01  0.10842435469E+03  0.10884001012E+03  0.00000000000E+00 0.  1.
          5    1    3    3  502    0  0.80451515103E+02 -0.14879139507E+02  0.27073423755E+03  0.28286560847E+03  0.47000000000E+01 0. -1.
         13    1    6    6    0    0 -0.87446036966E+02  0.58102900265E+02  0.78728026089E+02  0.13122826865E+03  0.00000000000E+00 0. -1.
        -14    1    6    6    0    0 -0.16447503390E+02  0.39718013906E+02 -0.14407929930E+02  0.45339049850E+02  0.00000000000E+00 0.  1.
         -5    1    5    5    0  503  0.25297124838E+02  0.10352723983E+02  0.85249101362E+02  0.89647212460E+02  0.47000000000E+01 0.  1.
<mgrwt>
<rscale>  2 0.21955959E+03</rscale>
<asrwt>0</asrwt>
<pdfrwt beam="1">  1       21 0.10688320E+00 0.22022541E+03</pdfrwt>
<pdfrwt beam="2">  1       21 0.12712507E-01 0.22022541E+03</pdfrwt>
<totfact> 0.36497166E+04</totfact>
</mgrwt>
</event>
<event>
12    1  0.1473662E-001  0.1896421E+03  0.7546771E-02  0.1159380E+00
         21   -1    0    0  504  503  0.00000000000E+00  0.00000000000E+00  0.18251459054E+03  0.18251459054E+03  0.00000000000E+00 0.  1.
         21   -1    0    0  502  504 -0.00000000000E+00 -0.00000000000E+00 -0.19450222953E+03  0.19450222953E+03  0.00000000000E+00 0. -1.
          6    2    1    2  502    0  0.73322764715E+02 -0.20706921007E+01 -0.57894415222E+00  0.18964302294E+03  0.17488174685E+03 0.  0.
         24    2    3    3    0    0 -0.22032598254E+02  0.39579360764E+01 -0.31157155451E+02  0.89213412711E+02  0.80542932824E+02 0.  0.
         -6    2    1    2    0  503 -0.73322764715E+02  0.20706921007E+01 -0.11408694842E+02  0.18737379713E+03  0.17204146576E+03 0.  0.
        -24    2    5    5    0    0 -0.31524908975E+02  0.15602509637E+02  0.56241795759E+02  0.10657249944E+03  0.83410430121E+02 0.  0.
          2    1    4    4  501    0 -0.61241650905E+01  0.40856711290E+02 -0.25720090626E+02  0.48665175611E+02  0.00000000000E+00 0. -1.
         -1    1    4    4    0  501 -0.15908433163E+02 -0.36898775214E+02 -0.54370648249E+01  0.40548237099E+02  0.00000000000E+00 0.  1.
          5    1    3    3  502    0  0.95355362968E+02 -0.60286281771E+01  0.30578211299E+02  0.10042961023E+03  0.47000000000E+01 0. -1.
         13    1    6    6    0    0 -0.40819639764E+02  0.81198482622E+01 -0.70094742038E+01  0.42205540571E+02  0.00000000000E+00 0. -1.
        -14    1    6    6    0    0  0.92947307889E+01  0.74826613744E+01  0.63251269963E+02  0.64366958865E+02  0.00000000000E+00 0.  1.
         -5    1    5    5    0  503 -0.41797855740E+02 -0.13531817536E+02 -0.67650490601E+02  0.80801297693E+02  0.47000000000E+01 0.  1.
<mgrwt>
<rscale>  2 0.18898473E+03</rscale>
<asrwt>0</asrwt>
<pdfrwt beam="1">  1       21 0.28079168E-01 0.18964214E+03</pdfrwt>
<pdfrwt beam="2">  1       21 0.29923420E-01 0.18964214E+03</pdfrwt>
<totfact> 0.12990350E+05</totfact>
</mgrwt>
</event>
<event>
12    1  0.1473662E-001  0.2995083E+03  0.7546771E-02  0.1085616E+00
         21   -1    0    0  504  503  0.00000000000E+00  0.00000000000E+00  0.15253950639E+03  0.15253950639E+03  0.00000000000E+00 0. -1.
         21   -1    0    0  502  504 -0.00000000000E+00 -0.00000000000E+00 -0.59099337915E+03  0.59099337915E+03  0.00000000000E+00 0.  1.
          6    2    1    2  502    0 -0.23733638457E+03 -0.53398984701E+02 -0.18562641559E+03  0.35236681446E+03  0.17471460946E+03 0.  0.
         24    2    3    3    0    0 -0.24667257889E+03 -0.29636240462E+02 -0.19373679582E+03  0.32516937330E+03  0.80470537194E+02 0.  0.
         -6    2    1    2    0  503  0.23733638457E+03  0.53398984701E+02 -0.25282745717E+03  0.39116607107E+03  0.17294265249E+03 0.  0.
        -24    2    5    5    0    0  0.15363127561E+03 -0.56837405044E+01 -0.76322021706E+02  0.18702501094E+03  0.74286135777E+02 0.  0.
          2    1    4    4  501    0 -0.23698545800E+03 -0.16742848967E+02 -0.15622822700E+03  0.28434079765E+03  0.00000000000E+00 0. -1.
         -1    1    4    4    0  501 -0.96871208869E+01 -0.12893391495E+02 -0.37508568814E+02  0.40828575653E+02  0.00000000000E+00 0.  1.
          5    1    3    3  502    0  0.93361943181E+01 -0.23762744239E+02  0.81103802263E+01  0.27197441158E+02  0.47000000000E+01 0. -1.
         11    1    6    6    0    0  0.74779731437E+02  0.34286097516E+02 -0.39558155622E+02  0.91281939029E+02  0.00000000000E+00 0. -1.
        -12    1    6    6    0    0  0.78851544169E+02 -0.39969838020E+02 -0.36763866085E+02  0.95743071910E+02  0.00000000000E+00 0.  1.
         -5    1    5    5    0  503  0.83705108965E+02  0.59082725205E+02 -0.17650543546E+03  0.20414106013E+03  0.47000000000E+01 0.  1.
<mgrwt>
<rscale>  2 0.29925040E+03</rscale>
<asrwt>0</asrwt>
<pdfrwt beam="1">  1       21 0.23467617E-01 0.29950827E+03</pdfrwt>
<pdfrwt beam="2">  1       21 0.90922057E-01 0.29950827E+03</pdfrwt>
<totfact> 0.16576415E+04</totfact>
</mgrwt>
</event>
<event>
12    1  0.1473662E-001  0.2085492E+03  0.7546771E-02  0.1142781E+00
         21   -1    0    0  504  503  0.00000000000E+00  0.00000000000E+00  0.18074071239E+03  0.18074071239E+03  0.00000000000E+00 0. -1.
         21   -1    0    0  502  504 -0.00000000000E+00 -0.00000000000E+00 -0.42605432193E+03  0.42605432193E+03  0.00000000000E+00 0. -1.
          6    2    1    2  502    0  0.98279994532E+02 -0.61502260366E+02 -0.32304792739E+03  0.38451625705E+03  0.17335311704E+03 0.  0.
         24    2    3    3    0    0  0.10340966924E+03 -0.10263401852E+03 -0.26541089915E+03  0.31336675167E+03  0.80798974082E+02 0.  0.
         -6    2    1    2    0  503 -0.98279994532E+02  0.61502260366E+02  0.77734317841E+02  0.22227877728E+03  0.17298481235E+03 0.  0.
        -24    2    5    5    0    0  0.66516951870E+01 -0.85411300941E+01  0.25447574177E+02  0.85630580738E+02  0.81042096308E+02 0.  0.
          2    1    4    4  501    0  0.36184731678E+02 -0.25982283606E+02 -0.16253267753E+03  0.16852680835E+03  0.00000000000E+00 0. -1.
         -1    1    4    4    0  501  0.67224937561E+02 -0.76651734917E+02 -0.10287822162E+03  0.14483994331E+03  0.00000000000E+00 0.  1.
          5    1    3    3  502    0 -0.51296747079E+01  0.41131758157E+02 -0.57637028238E+02  0.71149505380E+02  0.47000000000E+01 0. -1.
         11    1    6    6    0    0 -0.13916413079E+02 -0.40111989163E+02  0.49741643233E+01  0.42747871740E+02  0.00000000000E+00 0. -1.
        -12    1    6    6    0    0  0.20568108266E+02  0.31570859069E+02  0.20473409854E+02  0.42882708998E+02  0.00000000000E+00 0.  1.
         -5    1    5    5    0  503 -0.10493168972E+03  0.70043390460E+02  0.52286743664E+02  0.13664819654E+03  0.47000000000E+01 0.  1.
<mgrwt>
<rscale>  2 0.20847269E+03</rscale>
<asrwt>0</asrwt>
<pdfrwt beam="1">  1       21 0.27806264E-01 0.20854925E+03</pdfrwt>
<pdfrwt beam="2">  1       21 0.65546818E-01 0.20854925E+03</pdfrwt>
<totfact> 0.26189252E+04</totfact>
</mgrwt>
</event>
<event>
12    1  0.1473662E-001  0.2363187E+03  0.7546771E-02  0.1122404E+00
         21   -1    0    0  504  503  0.00000000000E+00  0.00000000000E+00  0.50402720393E+03  0.50402720393E+03  0.00000000000E+00 0.  1.
         21   -1    0    0  502  504 -0.00000000000E+00 -0.00000000000E+00 -0.17739710411E+03  0.17739710411E+03  0.00000000000E+00 0.  1.
          6    2    1    2  502    0  0.15157155208E+03 -0.53098340656E+02 -0.46187007383E+02  0.24001845507E+03  0.17228537356E+03 0.  0.
         24    2    3    3    0    0  0.12787902999E+03 -0.34982336777E+02 -0.94647412493E+02  0.18292181714E+03  0.83219278389E+02 0.  0.
         -6    2    1    2    0  503 -0.15157155208E+03  0.53098340656E+02  0.37281710720E+03  0.44140585297E+03  0.17335847955E+03 0.  0.
        -24    2    5    5    0    0 -0.84272007165E+02  0.66396571297E+02  0.12204859916E+03  0.18138084204E+03  0.80578368256E+02 0.  0.
          2    1    4    4  501    0  0.92477115709E+02 -0.11853846158E+02 -0.10393706524E+03  0.13962608685E+03  0.00000000000E+00 0. -1.
         -1    1    4    4    0  501  0.35401914284E+02 -0.23128490619E+02  0.92896527440E+01  0.43295730291E+02  0.00000000000E+00 0.  1.
          5    1    3    3  502    0  0.23692522092E+02 -0.18116003878E+02  0.48460405110E+02  0.57096637930E+02  0.47000000000E+01 0. -1.
         11    1    6    6    0    0  0.12517838724E+02  0.26004423872E+02  0.20546624891E+02  0.35427251398E+02  0.00000000000E+00 0. -1.
        -12    1    6    6    0    0 -0.96789845889E+02  0.40392147424E+02  0.10150197427E+03  0.14595359065E+03  0.00000000000E+00 0.  1.
         -5    1    5    5    0  503 -0.67299544920E+02 -0.13298230641E+02  0.25076850804E+03  0.26002501093E+03  0.47000000000E+01 0.  1.
<mgrwt>
<rscale>  2 0.23612194E+03</rscale>
<asrwt>0</asrwt>
<pdfrwt beam="1">  1       21 0.77542646E-01 0.23631871E+03</pdfrwt>
<pdfrwt beam="2">  1       21 0.27291862E-01 0.23631871E+03</pdfrwt>
<totfact> 0.18417855E+04</totfact>
</mgrwt>
</event>
<event>
12    1  0.1473662E-001  0.2605101E+03  0.7546771E-02  0.1107417E+00
         21   -1    0    0  504  503  0.00000000000E+00  0.00000000000E+00  0.25737280638E+02  0.25737280638E+02  0.00000000000E+00 0. -1.
         21   -1    0    0  502  504 -0.00000000000E+00 -0.00000000000E+00 -0.26405816696E+04  0.26405816696E+04  0.00000000000E+00 0.  1.
          6    2    1    2  502    0  0.77623090255E+02  0.17622741343E+03 -0.11288713200E+04  0.11576833145E+04  0.16970195725E+03 0.  0.
         24    2    3    3    0    0  0.90545655872E+02  0.17226515622E+03 -0.79763320861E+03  0.82613623099E+03  0.91698074301E+02 0.  0.
         -6    2    1    2    0  503 -0.77623090255E+02 -0.17622741343E+03 -0.14859730690E+04  0.15086356357E+04  0.17545390901E+03 0.  0.
        -24    2    5    5    0    0  0.27930031247E+02 -0.99430834606E+02 -0.82011123198E+03  0.83008331499E+03  0.76087446261E+02 0.  0.
          2    1    4    4  501    0  0.47386550479E+02  0.13904296482E+03 -0.42788313979E+03  0.45239630033E+03  0.00000000000E+00 0. -1.
         -1    1    4    4    0  501  0.43159105393E+02  0.33222191400E+02 -0.36975006882E+03  0.37373993066E+03  0.00000000000E+00 0.  1.
          5    1    3    3  502    0 -0.12922565617E+02  0.39622572181E+01 -0.33123811138E+03  0.33154708355E+03  0.47000000000E+01 0. -1.
         11    1    6    6    0    0  0.23148609912E+02 -0.22255443136E+02 -0.84108836009E+02  0.90030323696E+02  0.00000000000E+00 0. -1.
        -12    1    6    6    0    0  0.47814213348E+01 -0.77175391470E+02 -0.73600239597E+03  0.74005299129E+03  0.00000000000E+00 0.  1.
         -5    1    5    5    0  503 -0.10555312150E+03 -0.76796578829E+02 -0.66586183697E+03  0.67855232069E+03  0.47000000000E+01 0.  1.
<mgrwt>
<rscale>  2 0.25954508E+03</rscale>
<asrwt>0</asrwt>
<pdfrwt beam="1">  1       21 0.39595852E-02 0.26051011E+03</pdfrwt>
<pdfrwt beam="2">  1       21 0.40624297E+00 0.26051011E+03</pdfrwt>
<totfact> 0.29221574E+03</totfact>
</mgrwt>
</event>
<event>
12    1  0.1473662E-001  0.1875574E+03  0.7546771E-02  0.1160848E+00
         21   -1    0    0  504  503  0.00000000000E+00  0.00000000000E+00  0.81398494179E+03  0.81398494179E+03  0.00000000000E+00 0. -1.
         21   -1    0    0  502  504 -0.00000000000E+00 -0.00000000000E+00 -0.44106600272E+02  0.44106600272E+02  0.00000000000E+00 0. -1.
          6    2    1    2  502    0 -0.44308390238E+02 -0.54180951235E+02  0.45058964397E+03  0.48779025171E+03  0.17323248395E+03 0.  0.
         24    2    3    3    0    0  0.77921588080E+01  0.29705922118E+02  0.17764138831E+03  0.19748986419E+03  0.80638849623E+02 0.  0.
         -6    2    1    2    0  503  0.44308390238E+02  0.54180951235E+02  0.31928869755E+03  0.37030129035E+03  0.17400851797E+03 0.  0.
        -24    2    5    5    0    0  0.91721400527E+02  0.32901356357E+02  0.25999262026E+03  0.29131439596E+03  0.88162351035E+02 0.  0.
          2    1    4    4  501    0  0.82860214782E+01  0.20752331240E+02  0.18471925454E+03  0.18606590338E+03  0.00000000000E+00 0. -1.
         -1    1    4    4    0  501 -0.49386267020E+00  0.89535908781E+01 -0.70778662345E+01  0.11423960801E+02  0.00000000000E+00 0.  1.
          5    1    3    3  502    0 -0.52100549046E+02 -0.83886873353E+02  0.27294825566E+03  0.29030038753E+03  0.47000000000E+01 0. -1.
         13    1    6    6    0    0  0.58038207428E+02 -0.71900102194E+01  0.21324965587E+03  0.22112337167E+03  0.00000000000E+00 0. -1.
        -14    1    6    6    0    0  0.33683193099E+02  0.40091366576E+02  0.46742964381E+02  0.70191024286E+02  0.00000000000E+00 0.  1.
         -5    1    5    5    0  503 -0.47413010290E+02  0.21279594878E+02  0.59296077297E+02  0.78986894392E+02  0.47000000000E+01 0.  1.
<mgrwt>
<rscale>  2 0.18737719E+03</rscale>
<asrwt>0</asrwt>
<pdfrwt beam="1">  1       21 0.12522844E+00 0.18755739E+03</pdfrwt>
<pdfrwt beam="2">  1       21 0.67856314E-02 0.18755739E+03</pdfrwt>
<totfact> 0.75971367E+04</totfact>
</mgrwt>
</event>
<event>
12    1  0.1473662E-001  0.1796849E+03  0.7546771E-02  0.1168620E+00
         21   -1    0    0  504  503  0.00000000000E+00  0.00000000000E+00  0.76502184719E+02  0.76502184719E+02  0.00000000000E+00 0. -1.
         21   -1    0    0  502  504 -0.00000000000E+00 -0.00000000000E+00 -0.53548233752E+03  0.53548233752E+03  0.00000000000E+00 0. -1.
          6    2    1    2  502    0 -0.40418068774E+02  0.30704250830E+02 -0.37229777343E+03  0.41248393756E+03  0.17017930349E+03 0.  0.
         24    2    3    3    0    0 -0.47954325358E+02 -0.40753108340E+02 -0.19526166431E+03  0.22136401898E+03  0.83153341428E+02 0.  0.
         -6    2    1    2    0  503  0.40418068774E+02 -0.30704250830E+02 -0.86682379372E+02  0.19950058469E+03  0.17236669369E+03 0.  0.
        -24    2    5    5    0    0 -0.29392065551E+02 -0.47436475913E+02 -0.70396659789E+02  0.12573923388E+03  0.87980409538E+02 0.  0.
          2    1    4    4  501    0 -0.19548491272E+02  0.15955941759E+02 -0.13007491705E+02  0.28388913838E+02  0.00000000000E+00 0. -1.
         -1    1    4    4    0  501 -0.28405834086E+02 -0.56709050099E+02 -0.18225417260E+03  0.19297510514E+03  0.00000000000E+00 0.  1.
          5    1    3    3  502    0  0.75362565837E+01  0.71457359170E+02 -0.17703610912E+03  0.19111991858E+03  0.47000000000E+01 0. -1.
         11    1    6    6    0    0 -0.38020776313E+02 -0.28302692417E+02  0.48255429576E+01  0.47643548297E+02  0.00000000000E+00 0. -1.
        -12    1    6    6    0    0  0.86287107622E+01 -0.19133783496E+02 -0.75222202746E+02  0.78095685580E+02  0.00000000000E+00 0.  1.
         -5    1    5    5    0  503  0.69810134326E+02  0.16732225083E+02 -0.16285719583E+02  0.73761350809E+02  0.47000000000E+01 0.  1.
<mgrwt>
<rscale>  2 0.17915824E+03</rscale>
<asrwt>0</asrwt>
<pdfrwt beam="1">  1       21 0.11769567E-01 0.17968486E+03</pdfrwt>
<pdfrwt beam="2">  1       21 0.82381900E-01 0.17968486E+03</pdfrwt>
<totfact> 0.78613727E+04</totfact>
</mgrwt>
</event>
<event>
12    1  0.1473662E-001  0.1753472E+03  0.7546771E-02  0.1172571E+00
         21   -1    0    0  504  503  0.00000000000E+00  0.00000000000E+00  0.15457680315E+02  0.15457680315E+02  0.00000000000E+00 0. -1.
         21   -1    0    0  502  504 -0.00000000000E+00 -0.00000000000E+00 -0.20575560596E+04  0.20575560596E+04  0.00000000000E+00 0. -1.
          6    2    1    2  502    0 -0.20722658327E+02 -0.15589282571E+02 -0.12193572204E+04  0.12317945895E+04  0.17266564643E+03 0.  0.
         24    2    3    3    0    0 -0.55132480848E+02  0.39427819500E+02 -0.86891217646E+03  0.87536123495E+03  0.81576821826E+02 0.  0.
         -6    2    1    2    0  503  0.20722658327E+02  0.15589282571E+02 -0.82274115889E+03  0.84121915043E+03  0.17341911723E+03 0.  0.
        -24    2    5    5    0    0  0.47450003165E+02 -0.47976635410E+02 -0.46396671112E+03  0.47584787178E+03  0.81319294776E+02 0.  0.
          4    1    4    4  501    0  0.18708894442E+02  0.30489341538E+01 -0.29091172094E+03  0.29152864029E+03  0.00000000000E+00 0. -1.
         -3    1    4    4    0  501 -0.73841375290E+02  0.36378885346E+02 -0.57800045552E+03  0.58383259466E+03  0.00000000000E+00 0.  1.
          5    1    3    3  502    0  0.34409822520E+02 -0.55017102071E+02 -0.35044504395E+03  0.35643335455E+03  0.47000000000E+01 0. -1.
         13    1    6    6    0    0 -0.22664435057E+02 -0.63503518184E+01 -0.84331450377E+02  0.87554537902E+02  0.00000000000E+00 0. -1.
        -14    1    6    6    0    0  0.70114438222E+02 -0.41626283592E+02 -0.37963526075E+03  0.38829333388E+03  0.00000000000E+00 0.  1.
         -5    1    5    5    0  503 -0.26727344838E+02  0.63565917981E+02 -0.35877444776E+03  0.36537127865E+03  0.47000000000E+01 0.  1.
<mgrwt>
<rscale>  2 0.17516063E+03</rscale>
<asrwt>0</asrwt>
<pdfrwt beam="1">  1       21 0.23781043E-02 0.17534721E+03</pdfrwt>
<pdfrwt beam="2">  1       21 0.31654713E+00 0.17534721E+03</pdfrwt>
<totfact> 0.25888138E+04</totfact>
</mgrwt>
</event>
<event>
12    1  0.1473662E-001  0.1797343E+03  0.7546771E-02  0.1168181E+00
         21   -1    0    0  504  503  0.00000000000E+00  0.00000000000E+00  0.92611681119E+02  0.92611681119E+02  0.00000000000E+00 0.  1.
         21   -1    0    0  502  504 -0.00000000000E+00 -0.00000000000E+00 -0.87672011565E+03  0.87672011565E+03  0.00000000000E+00 0.  1.
          6    2    1    2  502    0 -0.16519490354E+01  0.42027468062E+02 -0.76870234365E+03  0.78943505721E+03  0.17474375361E+03 0.  0.
         24    2    3    3    0    0 -0.55922885712E+02  0.50195060481E+02 -0.63746183457E+03  0.64710373474E+03  0.82089827283E+02 0.  0.
         -6    2    1    2    0  503  0.16519490354E+01 -0.42027468062E+02 -0.15406090887E+02  0.17989673956E+03  0.17423103128E+03 0.  0.
        -24    2    5    5    0    0  0.60761849893E+01 -0.75551747911E+02 -0.57208547755E+02  0.12592464859E+03  0.82699531739E+02 0.  0.
          4    1    4    4  501    0 -0.25028473122E+01  0.34841673504E+02 -0.85646073731E+02  0.92495710186E+02  0.00000000000E+00 0. -1.
         -3    1    4    4    0  501 -0.53420038400E+02  0.15353386977E+02 -0.55181576084E+03  0.55460802456E+03  0.00000000000E+00 0.  1.
          5    1    3    3  502    0  0.54270936677E+02 -0.81675924192E+01 -0.13124050907E+03  0.14233132247E+03  0.47000000000E+01 0. -1.
         13    1    6    6    0    0  0.48977068404E+01  0.17860242923E+02 -0.12612940477E+02  0.22406741777E+02  0.00000000000E+00 0. -1.
        -14    1    6    6    0    0  0.11784781489E+01 -0.93411990835E+02 -0.44595607278E+02  0.10351790681E+03  0.00000000000E+00 0.  1.
         -5    1    5    5    0  503 -0.44242359540E+01  0.33524279849E+02  0.41802456868E+02  0.53972090967E+02  0.47000000000E+01 0.  1.
<mgrwt>
<rscale>  2 0.17960955E+03</rscale>
<asrwt>0</asrwt>
<pdfrwt beam="1">  1       21 0.14247951E-01 0.17973429E+03</pdfrwt>
<pdfrwt beam="2">  1       21 0.13488002E+00 0.17973429E+03</pdfrwt>
<totfact> 0.17107394E+04</totfact>
</mgrwt>
</event>
<event>
12    1  0.1473662E-001  0.1954879E+03  0.7546771E-02  0.1154749E+00
         21   -1    0    0  504  503  0.00000000000E+00  0.00000000000E+00  0.47493248986E+02  0.47493248986E+02  0.00000000000E+00 0.  1.
         21   -1    0    0  502  504 -0.00000000000E+00 -0.00000000000E+00 -0.80508628713E+03  0.80508628713E+03  0.00000000000E+00 0.  1.
          6    2    1    2  502    0 -0.14325514263E+02 -0.78534852831E+02 -0.45373500232E+03  0.49405563564E+03  0.17844488030E+03 0.  0.
         24    2    3    3    0    0 -0.49113294029E+02 -0.10276172965E+03 -0.40774011055E+03  0.43132804003E+03  0.82582029721E+02 0.  0.
         -6    2    1    2    0  503  0.14325514263E+02  0.78534852831E+02 -0.30385803583E+03  0.35852390048E+03  0.17273314046E+03 0.  0.
        -24    2    5    5    0    0 -0.39840838676E+02  0.52201072316E+01 -0.95084007893E+02  0.13066927478E+03  0.80118342902E+02 0.  0.
          4    1    4    4  501    0 -0.28736371269E+02 -0.47702713833E+02 -0.74816114465E+02  0.93267244649E+02  0.00000000000E+00 0. -1.
         -3    1    4    4    0  501 -0.20376922760E+02 -0.55059015821E+02 -0.33292399609E+03  0.33806079538E+03  0.00000000000E+00 0.  1.
          5    1    3    3  502    0  0.34787779766E+02  0.24226876823E+02 -0.45994891773E+02  0.62727595609E+02  0.47000000000E+01 0. -1.
         13    1    6    6    0    0 -0.61402058859E+02 -0.92182009351E+01 -0.77585577043E+02  0.99371574536E+02  0.00000000000E+00 0. -1.
        -14    1    6    6    0    0  0.21561220184E+02  0.14438308167E+02 -0.17498430850E+02  0.31297700247E+02  0.00000000000E+00 0.  1.
         -5    1    5    5    0  503  0.54166352939E+02  0.73314745600E+02 -0.20877402793E+03  0.22785462570E+03  0.47000000000E+01 0.  1.
<mgrwt>
<rscale>  2 0.19417486E+03</rscale>
<asrwt>0</asrwt>
<pdfrwt beam="1">  1       21 0.73066539E-02 0.19548790E+03</pdfrwt>
<pdfrwt beam="2">  1       21 0.12385942E+00 0.19548790E+03</pdfrwt>
<totfact> 0.68459191E+04</totfact>
</mgrwt>
</event>
<event>
12    1  0.1473662E-001  0.2305951E+03  0.7546771E-02  0.1126338E+00
         21   -1    0    0  504  503  0.00000000000E+00  0.00000000000E+00  0.18689334648E+03  0.18689334648E+03  0.00000000000E+00 0. -1.
         21   -1    0    0  502  504 -0.00000000000E+00 -0.00000000000E+00 -0.35964216009E+03  0.35964216009E+03  0.00000000000E+00 0. -1.
          6    2    1    2  502    0  0.10263959855E+03  0.11188822467E+03 -0.21204512432E+03  0.31326862144E+03  0.17355181480E+03 0.  0.
         24    2    3    3    0    0  0.60412860491E+02  0.10586942988E+03 -0.65696221449E+02  0.16075824583E+03  0.81664987557E+02 0.  0.
         -6    2    1    2    0  503 -0.10263959855E+03 -0.11188822467E+03  0.39296310708E+02  0.23326688514E+03  0.17267129945E+03 0.  0.
        -24    2    5    5    0    0 -0.88484470691E+02 -0.14754160651E+03  0.47534120314E+02  0.19375128331E+03  0.75379307403E+02 0.  0.
          2    1    4    4  501    0  0.71627444350E+02  0.94852772847E+02 -0.31256731268E+02  0.12290045789E+03  0.00000000000E+00 0. -1.
         -1    1    4    4    0  501 -0.11214583859E+02  0.11016657037E+02 -0.34439490182E+02  0.37857787936E+02  0.00000000000E+00 0.  1.
          5    1    3    3  502    0  0.42226738059E+02  0.60187947887E+01 -0.14634890287E+03  0.15251037561E+03  0.47000000000E+01 0. -1.
         11    1    6    6    0    0 -0.14755933439E+02 -0.91480329796E+02  0.78772959604E+01  0.92996989752E+02  0.00000000000E+00 0. -1.
        -12    1    6    6    0    0 -0.73728537252E+02 -0.56061276710E+02  0.39656824354E+02  0.10075429355E+03  0.00000000000E+00 0.  1.
         -5    1    5    5    0  503 -0.14155127859E+02  0.35653381833E+02 -0.82378096065E+01  0.39515601830E+02  0.47000000000E+01 0.  1.
<mgrwt>
<rscale>  2 0.23042942E+03</rscale>
<asrwt>0</asrwt>
<pdfrwt beam="1">  1       21 0.28752823E-01 0.23059509E+03</pdfrwt>
<pdfrwt beam="2">  1       21 0.55329563E-01 0.23059509E+03</pdfrwt>
<totfact> 0.34967989E+04</totfact>
</mgrwt>
</event>
<event>
12    1  0.1473662E-001  0.2562316E+03  0.7546771E-02  0.1109681E+00
         21   -1    0    0  504  503  0.00000000000E+00  0.00000000000E+00  0.26699678391E+03  0.26699678391E+03  0.00000000000E+00 0.  1.
         21   -1    0    0  502  504 -0.00000000000E+00 -0.00000000000E+00 -0.49089109703E+03  0.49089109703E+03  0.00000000000E+00 0. -1.
          6    2    1    2  502    0 -0.93497958097E+02  0.16209312848E+03 -0.38033097590E+03  0.45767619936E+03  0.17262619083E+03 0.  0.
         24    2    3    3    0    0 -0.51587618297E+02  0.13294843744E+03 -0.15136937583E+03  0.22304586478E+03  0.80623820769E+02 0.  0.
         -6    2    1    2    0  503  0.93497958097E+02 -0.16209312848E+03  0.15643666278E+03  0.30021168158E+03  0.17503877807E+03 0.  0.
        -24    2    5    5    0    0  0.55989870970E+02 -0.20065153404E+02  0.26230470001E+02  0.10385856869E+03  0.81000547542E+02 0.  0.
          2    1    4    4  501    0 -0.14197698697E+02  0.76426900907E+02 -0.13091956218E+03  0.15225825952E+03  0.00000000000E+00 0. -1.
         -1    1    4    4    0  501 -0.37389919599E+02  0.56521536536E+02 -0.20449813651E+02  0.70787605259E+02  0.00000000000E+00 0.  1.
          5    1    3    3  502    0 -0.41910339800E+02  0.29144691038E+02 -0.22896160007E+03  0.23463033458E+03  0.47000000000E+01 0. -1.
         11    1    6    6    0    0  0.24945389123E+02  0.46392369722E+01  0.51086776927E+02  0.57040807629E+02  0.00000000000E+00 0. -1.
        -12    1    6    6    0    0  0.31044481848E+02 -0.24704390376E+02 -0.24856306926E+02  0.46817761064E+02  0.00000000000E+00 0.  1.
         -5    1    5    5    0  503  0.37508087126E+02 -0.14202797508E+03  0.13020619278E+03  0.19635311289E+03  0.47000000000E+01 0.  1.
<mgrwt>
<rscale>  2 0.25582009E+03</rscale>
<asrwt>0</asrwt>
<pdfrwt beam="1">  1       21 0.41076429E-01 0.25623158E+03</pdfrwt>
<pdfrwt beam="2">  1       21 0.75521706E-01 0.25623158E+03</pdfrwt>
<totfact> 0.85831142E+03</totfact>
</mgrwt>
</event>
<event>
12    1  0.1473662E-001  0.1756008E+03  0.7546771E-02  0.1172414E+00
         21   -1    0    0  504  503  0.00000000000E+00  0.00000000000E+00  0.57321461650E+02  0.57321461650E+02  0.00000000000E+00 0.  1.
         21   -1    0    0  502  504 -0.00000000000E+00 -0.00000000000E+00 -0.55587152540E+03  0.55587152540E+03  0.00000000000E+00 0.  1.
          6    2    1    2  502    0  0.11305520855E+02 -0.18671141770E+02 -0.30865043790E+03  0.35454746007E+03  0.17309645373E+03 0.  0.
         24    2    3    3    0    0  0.53504176705E+02 -0.52995078892E+02 -0.26229637811E+03  0.28292589856E+03  0.74675958604E+02 0.  0.
         -6    2    1    2    0  503 -0.11305520855E+02  0.18671141770E+02 -0.18989962586E+03  0.25864552698E+03  0.17423895773E+03 0.  0.
        -24    2    5    5    0    0  0.46643030474E+02  0.45194906547E+02 -0.74957510679E+02  0.12713383723E+03  0.79537615581E+02 0.  0.
          4    1    4    4  501    0  0.45034918294E+02 -0.64018572518E+02 -0.14472232225E+03  0.16453289048E+03  0.00000000000E+00 0. -1.
         -3    1    4    4    0  501  0.84692584112E+01  0.11023493626E+02 -0.11757405586E+03  0.11839300807E+03  0.00000000000E+00 0.  1.
          5    1    3    3  502    0 -0.42198655850E+02  0.34323937123E+02 -0.46354059788E+02  0.71621561516E+02  0.47000000000E+01 0. -1.
         11    1    6    6    0    0  0.65288403638E+02  0.46761391185E+02 -0.72629395582E+02  0.10827849490E+03  0.00000000000E+00 0. -1.
        -12    1    6    6    0    0 -0.18645373164E+02 -0.15664846377E+01 -0.23281150971E+01  0.18855342331E+02  0.00000000000E+00 0.  1.
         -5    1    5    5    0  503 -0.57948551329E+02 -0.26523764778E+02 -0.11494211518E+03  0.13151168975E+03  0.47000000000E+01 0.  1.
<mgrwt>
<rscale>  2 0.17531671E+03</rscale>
<asrwt>0</asrwt>
<pdfrwt beam="1">  1       21 0.88186865E-02 0.17560080E+03</pdfrwt>
<pdfrwt beam="2">  1       21 0.85518696E-01 0.17560080E+03</pdfrwt>
<totfact> 0.12039502E+05</totfact>
</mgrwt>
</event>
<event>
12    1  0.1473662E-001  0.2522066E+03  0.7546771E-02  0.1112175E+00
         21   -1    0    0  504  503  0.00000000000E+00  0.00000000000E+00  0.58400658219E+02  0.58400658219E+02  0.00000000000E+00 0.  1.
         21   -1    0    0  502  504 -0.00000000000E+00 -0.00000000000E+00 -0.10855344324E+04  0.10855344324E+04  0.00000000000E+00 0.  1.
          6    2    1    2  502    0 -0.10593433096E+03 -0.14791915775E+03 -0.54740161929E+03  0.60270779718E+03  0.17465965840E+03 0.  0.
         24    2    3    3    0    0 -0.76737018089E+02 -0.17572756218E+03 -0.49422472628E+03  0.53580740565E+03  0.77863661817E+02 0.  0.
         -6    2    1    2    0  503  0.10593433096E+03  0.14791915775E+03 -0.47973215488E+03  0.54122729343E+03  0.17228430870E+03 0.  0.
        -24    2    5    5    0    0 -0.20817346023E+01  0.99645055871E+02 -0.19809896309E+03  0.23571591222E+03  0.79908205579E+02 0.  0.
          4    1    4    4  501    0  0.15407073282E+01 -0.30577059527E+02 -0.28812004722E+02  0.42041193661E+02  0.00000000000E+00 0. -1.
         -3    1    4    4    0  501 -0.78277725417E+02 -0.14515050265E+03 -0.46541272156E+03  0.49376621199E+03  0.00000000000E+00 0.  1.
          5    1    3    3  502    0 -0.29197312868E+02  0.27808404432E+02 -0.53176893014E+02  0.66900391527E+02  0.47000000000E+01 0. -1.
         13    1    6    6    0    0  0.11173941729E+02  0.67544476885E+02 -0.18718410590E+03  0.19931132139E+03  0.00000000000E+00 0. -1.
        -14    1    6    6    0    0 -0.13255676331E+02  0.32100578986E+02 -0.10914857186E+02  0.36404590832E+02  0.00000000000E+00 0.  1.
         -5    1    5    5    0  503  0.10801606556E+03  0.48274101878E+02 -0.28163319179E+03  0.30551138121E+03  0.47000000000E+01 0.  1.
<mgrwt>
<rscale>  2 0.25179579E+03</rscale>
<asrwt>0</asrwt>
<pdfrwt beam="1">  1       21 0.89847181E-02 0.25220657E+03</pdfrwt>
<pdfrwt beam="2">  1       21 0.16700527E+00 0.25220657E+03</pdfrwt>
<totfact> 0.21148021E+04</totfact>
</mgrwt>
</event>
<event>
12    1  0.1473662E-001  0.1856236E+03  0.7546771E-02  0.1164603E+00
         21   -1    0    0  504  503  0.00000000000E+00  0.00000000000E+00  0.12565472177E+03  0.12565472177E+03  0.00000000000E+00 0.  1.
         21   -1    0    0  502  504 -0.00000000000E+00 -0.00000000000E+00 -0.35466637911E+03  0.35466637911E+03  0.00000000000E+00 0.  1.
          6    2    1    2  502    0 -0.49063044313E+02 -0.24951066289E+01 -0.23987367223E+03  0.30330762160E+03  0.17900482345E+03 0.  0.
         24    2    3    3    0    0  0.31208600869E+01 -0.41486682139E+02 -0.52798137939E+02  0.10515907034E+03  0.80869661443E+02 0.  0.
         -6    2    1    2    0  503  0.49063044313E+02  0.24951066289E+01  0.10862014882E+02  0.17701347928E+03  0.16971264127E+03 0.  0.
        -24    2    5    5    0    0 -0.58738762115E+00  0.56411832070E+02 -0.13044967035E+02  0.99774807246E+02  0.81253930209E+02 0.  0.
          2    1    4    4  501    0 -0.37713725321E+02 -0.10937756268E+02 -0.29379321167E+02  0.49041860711E+02  0.00000000000E+00 0. -1.
         -1    1    4    4    0  501  0.40834585408E+02 -0.30548925871E+02 -0.23418816772E+02  0.56117209627E+02  0.00000000000E+00 0.  1.
          5    1    3    3  502    0 -0.52183904400E+02  0.38991575510E+02 -0.18707553429E+03  0.19814855126E+03  0.47000000000E+01 0. -1.
         13    1    6    6    0    0  0.19146767394E+02 -0.15250342531E+02 -0.12013304318E+01  0.24507444660E+02  0.00000000000E+00 0. -1.
        -14    1    6    6    0    0 -0.19734155015E+02  0.71662174601E+02 -0.11843636604E+02  0.75267362586E+02  0.00000000000E+00 0.  1.
         -5    1    5    5    0  503  0.49650431934E+02 -0.53916725441E+02  0.23906981917E+02  0.77238672036E+02  0.47000000000E+01 0.  1.
<mgrwt>
<rscale>  2 0.18334613E+03</rscale>
<asrwt>0</asrwt>
<pdfrwt beam="1">  1       21 0.19331496E-01 0.18562364E+03</pdfrwt>
<pdfrwt beam="2">  1       21 0.54564058E-01 0.18562364E+03</pdfrwt>
<totfact> 0.78240237E+04</totfact>
</mgrwt>
</event>
<event>
12    1  0.1473662E-001  0.1809742E+03  0.7546771E-02  0.1167674E+00
         21   -1    0    0  504  503  0.00000000000E+00  0.00000000000E+00  0.51221152033E+03  0.51221152033E+03  0.00000000000E+00 0.  1.
         21   -1    0    0  502  504 -0.00000000000E+00 -0.00000000000E+00 -0.66622383917E+02  0.66622383917E+02  0.00000000000E+00 0.  1.
          6    2    1    2  502    0 -0.22533887532E+02 -0.18174805118E+02  0.15513454491E+03  0.23836611054E+03  0.17864371245E+03 0.  0.
         24    2    3    3    0    0 -0.50165565931E+01 -0.67261876817E+02  0.41073936870E+02  0.11287384066E+03  0.80648060749E+02 0.  0.
         -6    2    1    2    0  503  0.22533887532E+02  0.18174805118E+02  0.29045459150E+03  0.34046779371E+03  0.17526080338E+03 0.  0.
        -24    2    5    5    0    0 -0.17730150266E+02 -0.24073919861E+02  0.26092695749E+03  0.27489250361E+03  0.81173268679E+02 0.  0.
          2    1    4    4  501    0  0.34056012176E+02 -0.34776377581E+02  0.18969382831E+01  0.48711464543E+02  0.00000000000E+00 0. -1.
         -1    1    4    4    0  501 -0.39072568769E+02 -0.32485499236E+02  0.39176998587E+02  0.64162376118E+02  0.00000000000E+00 0.  1.
          5    1    3    3  502    0 -0.17517330939E+02  0.49087071700E+02  0.11406060804E+03  0.12549226988E+03  0.47000000000E+01 0. -1.
         11    1    6    6    0    0  0.83382429282E+01  0.18650946143E+02  0.16894231897E+03  0.17017312134E+03  0.00000000000E+00 0. -1.
        -12    1    6    6    0    0 -0.26068393194E+02 -0.42724866004E+02  0.91984638519E+02  0.10471938227E+03  0.00000000000E+00 0.  1.
         -5    1    5    5    0  503  0.40264037798E+02  0.42248724979E+02  0.29527634010E+02  0.65575290105E+02  0.47000000000E+01 0.  1.
<mgrwt>
<rscale>  2 0.18013377E+03</rscale>
<asrwt>0</asrwt>
<pdfrwt beam="1">  1       21 0.78801770E-01 0.18097424E+03</pdfrwt>
<pdfrwt beam="2">  1       21 0.10249598E-01 0.18097424E+03</pdfrwt>
<totfact> 0.11103564E+05</totfact>
</mgrwt>
</event>
<event>
12    1  0.1473662E-001  0.1855094E+03  0.7546771E-02  0.1162587E+00
         21   -1    0    0  504  503  0.00000000000E+00  0.00000000000E+00  0.28727905157E+03  0.28727905157E+03  0.00000000000E+00 0.  1.
         21   -1    0    0  502  504 -0.00000000000E+00 -0.00000000000E+00 -0.14555248679E+03  0.14555248679E+03  0.00000000000E+00 0.  1.
          6    2    1    2  502    0 -0.46301953491E+02 -0.46544374634E+02 -0.20230922077E+02  0.18660929631E+03  0.17350357217E+03 0.  0.
         24    2    3    3    0    0 -0.30984675493E+01 -0.91418959303E+02 -0.96425964683E+01  0.12324943373E+03  0.82039116450E+02 0.  0.
         -6    2    1    2    0  503  0.46301953491E+02  0.46544374634E+02  0.16195748686E+03  0.24622224205E+03  0.17345003668E+03 0.  0.
        -24    2    5    5    0    0  0.91854856988E+02  0.11687458539E+02  0.10536039907E+03  0.16550426411E+03  0.87846094431E+02 0.  0.
          4    1    4    4  501    0 -0.12314726670E+02 -0.42773990058E+02 -0.44311681632E+02  0.62807577946E+02  0.00000000000E+00 0. -1.
         -3    1    4    4    0  501  0.92162591207E+01 -0.48644969245E+02  0.34669085163E+02  0.60441855788E+02  0.00000000000E+00 0.  1.
          5    1    3    3  502    0 -0.43203485941E+02  0.44874584669E+02 -0.10588325609E+02  0.63359862578E+02  0.47000000000E+01 0. -1.
         13    1    6    6    0    0  0.13188563016E+01 -0.26048078661E+02  0.39590247887E+02  0.47409171176E+02  0.00000000000E+00 0. -1.
        -14    1    6    6    0    0  0.90536000686E+02  0.37735537201E+02  0.65770151180E+02  0.11809509293E+03  0.00000000000E+00 0.  1.
         -5    1    5    5    0  503 -0.45552903497E+02  0.34856916094E+02  0.56597087790E+02  0.80717977942E+02  0.47000000000E+01 0.  1.
<mgrwt>
<rscale>  2 0.18549689E+03</rscale>
<asrwt>0</asrwt>
<pdfrwt beam="1">  1       21 0.44196777E-01 0.18550940E+03</pdfrwt>
<pdfrwt beam="2">  1       21 0.22392690E-01 0.18550940E+03</pdfrwt>
<totfact> 0.92051102E+04</totfact>
</mgrwt>
</event>
<event>
12    1  0.1473662E-001  0.1876235E+03  0.7546771E-02  0.1160666E+00
         21   -1    0    0  504  503  0.00000000000E+00  0.00000000000E+00  0.80252912811E+03  0.80252912811E+03  0.00000000000E+00 0.  1.
         21   -1    0    0  502  504 -0.00000000000E+00 -0.00000000000E+00 -0.45555253264E+02  0.45555253264E+02  0.00000000000E+00 0. -1.
          6    2    1    2  502    0  0.19078662331E+02  0.70114109378E+02  0.29555180895E+03  0.34997506393E+03  0.17277641595E+03 0.  0.
         24    2    3    3    0    0  0.72959647260E+02  0.18378886067E+02  0.19717370514E+03  0.22636262451E+03  0.81863753875E+02 0.  0.
         -6    2    1    2    0  503 -0.19078662331E+02 -0.70114109378E+02  0.46142206589E+03  0.49810931744E+03  0.17298146010E+03 0.  0.
        -24    2    5    5    0    0  0.28746906035E+02  0.16872227855E+02  0.21492953824E+03  0.23233767854E+03  0.81700879941E+02 0.  0.
          2    1    4    4  501    0  0.28636801734E+02  0.53915727443E+01  0.60810987008E+01  0.29767687710E+02  0.00000000000E+00 0. -1.
         -1    1    4    4    0  501  0.44322845526E+02  0.12987313323E+02  0.19109260644E+03  0.19659493680E+03  0.00000000000E+00 0.  1.
          5    1    3    3  502    0 -0.53880984929E+02  0.51735223311E+02  0.98378103818E+02  0.12361243942E+03  0.47000000000E+01 0. -1.
         11    1    6    6    0    0 -0.16372033381E+02  0.33368067035E+02  0.12463398300E+03  0.13005806816E+03  0.00000000000E+00 0. -1.
        -12    1    6    6    0    0  0.45118939415E+02 -0.16495839180E+02  0.90295555238E+02  0.10227961038E+03  0.00000000000E+00 0.  1.
         -5    1    5    5    0  503 -0.47825568366E+02 -0.86986337233E+02  0.24649252765E+03  0.26577163890E+03  0.47000000000E+01 0.  1.
<mgrwt>
<rscale>  2 0.18757620E+03</rscale>
<asrwt>0</asrwt>
<pdfrwt beam="1">  1       21 0.12346601E+00 0.18762348E+03</pdfrwt>
<pdfrwt beam="2">  1       21 0.70085011E-02 0.18762348E+03</pdfrwt>
<totfact> 0.74439848E+04</totfact>
</mgrwt>
</event>
<event>
12    1  0.1473662E-001  0.2197995E+03  0.7546771E-02  0.1135825E+00
         21   -1    0    0  504  503  0.00000000000E+00  0.00000000000E+00  0.20515551369E+03  0.20515551369E+03  0.00000000000E+00 0. -1.
         21   -1    0    0  502  504 -0.00000000000E+00 -0.00000000000E+00 -0.28602715480E+03  0.28602715480E+03  0.00000000000E+00 0. -1.
          6    2    1    2  502    0 -0.62716290713E+02  0.12026369666E+03 -0.15265292927E+03  0.25995903894E+03  0.16086980841E+03 0.  0.
         24    2    3    3    0    0 -0.73591196126E+02  0.84426353778E+02 -0.16943074967E+03  0.21865330120E+03  0.80987738787E+02 0.  0.
         -6    2    1    2    0  503  0.62716290713E+02 -0.12026369666E+03  0.71781288159E+02  0.23122362955E+03  0.17295989037E+03 0.  0.
        -24    2    5    5    0    0 -0.20638419391E+02 -0.90476616360E+02  0.72450320027E+02  0.14257930963E+03  0.80422933300E+02 0.  0.
          2    1    4    4  501    0 -0.21548220606E+02  0.59586391302E+02 -0.14051953456E+03  0.15414474831E+03  0.00000000000E+00 0. -1.
         -1    1    4    4    0  501 -0.52042975520E+02  0.24839962477E+02 -0.28911215109E+02  0.64508552890E+02  0.00000000000E+00 0.  1.
          5    1    3    3  502    0  0.10874905413E+02  0.35837342886E+02  0.16777820400E+02  0.41305737740E+02  0.47000000000E+01 0. -1.
         13    1    6    6    0    0 -0.46609253229E+02 -0.26973827654E+02  0.37146372543E+02  0.65420660788E+02  0.00000000000E+00 0. -1.
        -14    1    6    6    0    0  0.25970833838E+02 -0.63502788706E+02  0.35303947485E+02  0.77158648845E+02  0.00000000000E+00 0.  1.
         -5    1    5    5    0  503  0.83354710104E+02 -0.29787080304E+02 -0.66903186864E+00  0.88644319915E+02  0.47000000000E+01 0.  1.
<mgrwt>
<rscale>  2 0.21741564E+03</rscale>
<asrwt>0</asrwt>
<pdfrwt beam="1">  1       21 0.31562387E-01 0.21979948E+03</pdfrwt>
<pdfrwt beam="2">  1       21 0.44004178E-01 0.21979948E+03</pdfrwt>
<totfact> 0.47252337E+04</totfact>
</mgrwt>
</event>
<event>
12    1  0.1473662E-001  0.1837741E+03  0.7546771E-02  0.1164240E+00
         21   -1    0    0  504  503  0.00000000000E+00  0.00000000000E+00  0.16810437950E+03  0.16810437950E+03  0.00000000000E+00 0. -1.
         21   -1    0    0  502  504 -0.00000000000E+00 -0.00000000000E+00 -0.48895058881E+03  0.48895058881E+03  0.00000000000E+00 0.  1.
          6    2    1    2  502    0 -0.21270044874E+02 -0.58541461669E+02 -0.41269238544E+03  0.45176091947E+03  0.17289709604E+03 0.  0.
         24    2    3    3    0    0 -0.46608778808E+02 -0.90038622171E+02 -0.37451208346E+03  0.39595815954E+03  0.79020451161E+02 0.  0.
         -6    2    1    2    0  503  0.21270044874E+02  0.58541461669E+02  0.91846176127E+02  0.20529404885E+03  0.17271481952E+03 0.  0.
        -24    2    5    5    0    0  0.21334141994E+02  0.31538240492E+02 -0.19008455326E+02  0.91101153374E+02  0.80549938202E+02 0.  0.
          4    1    4    4  501    0 -0.43132808904E+02 -0.52266585961E+02 -0.11339953231E+03  0.13210484147E+03  0.00000000000E+00 0. -1.
         -3    1    4    4    0  501 -0.34759699040E+01 -0.37772036209E+02 -0.26111255115E+03  0.26385331806E+03  0.00000000000E+00 0.  1.
          5    1    3    3  502    0  0.25338733934E+02  0.31497160502E+02 -0.38180301975E+02  0.55802759932E+02  0.47000000000E+01 0. -1.
         11    1    6    6    0    0 -0.86049217480E+01  0.43992906115E+01  0.27700951824E+02  0.29338390688E+02  0.00000000000E+00 0. -1.
        -12    1    6    6    0    0  0.29939063742E+02  0.27138949880E+02 -0.46709407150E+02  0.61762762686E+02  0.00000000000E+00 0.  1.
         -5    1    5    5    0  503 -0.64097119685E-01  0.27003221177E+02  0.11085463145E+03  0.11419289548E+03  0.47000000000E+01 0.  1.
<mgrwt>
<rscale>  2 0.18373123E+03</rscale>
<asrwt>0</asrwt>
<pdfrwt beam="1">  1       21 0.25862212E-01 0.18377411E+03</pdfrwt>
<pdfrwt beam="2">  1       21 0.75223168E-01 0.18377411E+03</pdfrwt>
<totfact> 0.22537249E+04</totfact>
</mgrwt>
</event>
<event>
12    1  0.1473662E-001  0.2221757E+03  0.7546771E-02  0.1132476E+00
         21   -1    0    0  504  503  0.00000000000E+00  0.00000000000E+00  0.33434830465E+03  0.33434830465E+03  0.00000000000E+00 0.  1.
         21   -1    0    0  502  504 -0.00000000000E+00 -0.00000000000E+00 -0.18281187765E+03  0.18281187765E+03  0.00000000000E+00 0.  1.
          6    2    1    2  502    0 -0.13003230682E+03 -0.49074956593E+02 -0.38686969898E+02  0.22551880863E+03  0.17333579903E+03 0.  0.
         24    2    3    3    0    0 -0.92592212321E+02  0.33845462106E+02 -0.43044577436E+01  0.12814425520E+03  0.81753218270E+02 0.  0.
         -6    2    1    2    0  503  0.13003230682E+03  0.49074956593E+02  0.19022339690E+03  0.29164137367E+03  0.17190985406E+03 0.  0.
        -24    2    5    5    0    0  0.12883172723E+03 -0.16123096502E+02  0.14139586492E+03  0.21004207589E+03  0.85248547456E+02 0.  0.
          2    1    4    4  501    0 -0.86568183097E+02  0.52602527691E+02  0.12738399564E+02  0.10209477493E+03  0.00000000000E+00 0. -1.
         -1    1    4    4    0  501 -0.60240292234E+01 -0.18757065584E+02 -0.17042857307E+02  0.26049480275E+02  0.00000000000E+00 0.  1.
          5    1    3    3  502    0 -0.37440094502E+02 -0.82920418700E+02 -0.34382512154E+02  0.97374553430E+02  0.47000000000E+01 0. -1.
         13    1    6    6    0    0  0.96238971474E+02  0.52654482607E+01  0.45615940555E+02  0.10663244632E+03  0.00000000000E+00 0. -1.
        -14    1    6    6    0    0  0.32592755758E+02 -0.21388544763E+02  0.95779924370E+02  0.10340962957E+03  0.00000000000E+00 0.  1.
         -5    1    5    5    0  503  0.12005795904E+01  0.65198053095E+02  0.48827531978E+02  0.81599297778E+02  0.47000000000E+01 0.  1.
<mgrwt>
<rscale>  2 0.22189753E+03</rscale>
<asrwt>0</asrwt>
<pdfrwt beam="1">  1       21 0.51438201E-01 0.22217572E+03</pdfrwt>
<pdfrwt beam="2">  1       21 0.28124904E-01 0.22217572E+03</pdfrwt>
<totfact> 0.42754377E+04</totfact>
</mgrwt>
</event>
<event>
12    1  0.1473662E-001  0.1745770E+03  0.7546771E-02  0.1173275E+00
         21   -1    0    0  504  503  0.00000000000E+00  0.00000000000E+00  0.20357131108E+03  0.20357131108E+03  0.00000000000E+00 0.  1.
         21   -1    0    0  502  504 -0.00000000000E+00 -0.00000000000E+00 -0.16746903421E+03  0.16746903421E+03  0.00000000000E+00 0.  1.
          6    2    1    2  502    0 -0.24655505234E+02 -0.35340203341E+01 -0.43014327763E+02  0.17979812869E+03  0.17279106299E+03 0.  0.
         24    2    3    3    0    0  0.53521918787E+02 -0.92356668266E+01 -0.18474197191E+02  0.97527074196E+02  0.78869137861E+02 0.  0.
         -6    2    1    2    0  503  0.24655505234E+02  0.35340203341E+01  0.79116604630E+02  0.19124221660E+03  0.17231878900E+03 0.  0.
        -24    2    5    5    0    0 -0.27247026596E+02 -0.36497553494E+02  0.84045846939E+02  0.12534239002E+03  0.81071193885E+02 0.  0.
          4    1    4    4  501    0 -0.40153198047E+01 -0.33192689708E+02 -0.62247684117E+01  0.34009192654E+02  0.00000000000E+00 0. -1.
         -3    1    4    4    0  501  0.57537238591E+02  0.23957022882E+02 -0.12249428780E+02  0.63517881541E+02  0.00000000000E+00 0.  1.
          5    1    3    3  502    0 -0.78177424021E+02  0.57016464924E+01 -0.24540130572E+02  0.82271054495E+02  0.47000000000E+01 0. -1.
         11    1    6    6    0    0 -0.18745058198E+02 -0.25862013396E+02 -0.74834641679E+01  0.32805840634E+02  0.00000000000E+00 0. -1.
        -12    1    6    6    0    0 -0.85019683976E+01 -0.10635540098E+02  0.91529311107E+02  0.92536549382E+02  0.00000000000E+00 0.  1.
         -5    1    5    5    0  503  0.51902531831E+02  0.40031573828E+02 -0.49292423091E+01  0.65899826581E+02  0.47000000000E+01 0.  1.
<mgrwt>
<rscale>  2 0.17446004E+03</rscale>
<asrwt>0</asrwt>
<pdfrwt beam="1">  1       21 0.31318663E-01 0.17457702E+03</pdfrwt>
<pdfrwt beam="2">  1       21 0.25764467E-01 0.17457702E+03</pdfrwt>
<totfact> 0.14093479E+05</totfact>
</mgrwt>
</event>
<event>
12    1  0.1473662E-001  0.2416687E+03  0.7546771E-02  0.1118694E+00
         21   -1    0    0  504  503  0.00000000000E+00  0.00000000000E+00  0.11205259397E+04  0.11205259397E+04  0.00000000000E+00 0. -1.
         21   -1    0    0  502  504 -0.00000000000E+00 -0.00000000000E+00 -0.56363411656E+02  0.56363411656E+02  0.00000000000E+00 0.  1.
          6    2    1    2  502    0 -0.11171098564E+03  0.12544504735E+03  0.37050223208E+03  0.44235240963E+03  0.17374678735E+03 0.  0.
         24    2    3    3    0    0  0.62409861763E+01  0.25716909924E+02  0.16861728607E+03  0.18811238431E+03  0.79083314327E+02 0.  0.
         -6    2    1    2    0  503  0.11171098564E+03 -0.12544504735E+03  0.69366029594E+03  0.73453694170E+03  0.17367817461E+03 0.  0.
        -24    2    5    5    0    0  0.10743346070E+03 -0.15115351261E+03  0.66662856236E+03  0.69669480875E+03  0.81244590847E+02 0.  0.
          4    1    4    4  501    0  0.21508162214E+02 -0.22287141929E+02  0.85321585704E+02  0.90769437170E+02  0.00000000000E+00 0. -1.
         -3    1    4    4    0  501 -0.15267176038E+02  0.48004051852E+02  0.83295700362E+02  0.97342947137E+02  0.00000000000E+00 0.  1.
          5    1    3    3  502    0 -0.11795197182E+03  0.99728137430E+02  0.20188494601E+03  0.25424002533E+03  0.47000000000E+01 0. -1.
         11    1    6    6    0    0  0.93772897088E+02 -0.80994741354E+02  0.50478493332E+03  0.51977046209E+03  0.00000000000E+00 0. -1.
        -12    1    6    6    0    0  0.13660563610E+02 -0.70158771252E+02  0.16184362904E+03  0.17692434666E+03  0.00000000000E+00 0.  1.
         -5    1    5    5    0  503  0.42775249448E+01  0.25708465252E+02  0.27031733582E+02  0.37842132943E+02  0.47000000000E+01 0.  1.
<mgrwt>
<rscale>  2 0.24165635E+03</rscale>
<asrwt>0</asrwt>
<pdfrwt beam="1">  1       21 0.17238859E+00 0.24166868E+03</pdfrwt>
<pdfrwt beam="2">  1       21 0.86712949E-02 0.24166868E+03</pdfrwt>
<totfact> 0.20735631E+04</totfact>
</mgrwt>
</event>
<event>
12    1  0.1473662E-001  0.2017740E+03  0.7546771E-02  0.1148674E+00
         21   -1    0    0  504  503  0.00000000000E+00  0.00000000000E+00  0.47411295690E+02  0.47411295690E+02  0.00000000000E+00 0.  1.
         21   -1    0    0  502  504 -0.00000000000E+00 -0.00000000000E+00 -0.13318823424E+04  0.13318823424E+04  0.00000000000E+00 0.  1.
          6    2    1    2  502    0  0.10076899277E+02  0.10158006961E+03 -0.10549343342E+04  0.10736797628E+04  0.17170244359E+03 0.  0.
         24    2    3    3    0    0 -0.18162701434E+02  0.12332676480E+03 -0.97342061662E+03  0.98459008914E+03  0.79564892507E+02 0.  0.
         -6    2    1    2    0  503 -0.10076899277E+02 -0.10158006961E+03 -0.22953671256E+03  0.30561387534E+03  0.17404793577E+03 0.  0.
        -24    2    5    5    0    0 -0.69858629183E+02 -0.94291317521E+02 -0.17327687715E+03  0.22306546398E+03  0.77215571189E+02 0.  0.
          2    1    4    4  501    0 -0.29348986158E+02  0.68994784685E+02 -0.77321447870E+03  0.77684121503E+03  0.00000000000E+00 0. -1.
         -1    1    4    4    0  501  0.11186284724E+02  0.54331980119E+02 -0.20020613792E+03  0.20774887411E+03  0.00000000000E+00 0.  1.
          5    1    3    3  502    0  0.28239600711E+02 -0.21746695197E+02 -0.81513717571E+02  0.89089673659E+02  0.47000000000E+01 0. -1.
         11    1    6    6    0    0 -0.34015660582E+02 -0.58611660367E+02 -0.15521313361E+03  0.16936206405E+03  0.00000000000E+00 0. -1.
        -12    1    6    6    0    0 -0.35842968601E+02 -0.35679657154E+02 -0.18063743540E+02  0.53703399925E+02  0.00000000000E+00 0.  1.
         -5    1    5    5    0  503  0.59781729906E+02 -0.72887520859E+01 -0.56259835410E+02  0.82548411359E+02  0.47000000000E+01 0.  1.
<mgrwt>
<rscale>  2 0.20126715E+03</rscale>
<asrwt>0</asrwt>
<pdfrwt beam="1">  1       21 0.72940471E-02 0.20177398E+03</pdfrwt>
<pdfrwt beam="2">  1       21 0.20490493E+00 0.20177398E+03</pdfrwt>
<totfact> 0.17475618E+04</totfact>
</mgrwt>
</event>
<event>
12    1  0.1473662E-001  0.1964051E+03  0.7546771E-02  0.1153094E+00
         21   -1    0    0  504  503  0.00000000000E+00  0.00000000000E+00  0.41755901719E+03  0.41755901719E+03  0.00000000000E+00 0.  1.
         21   -1    0    0  502  504 -0.00000000000E+00 -0.00000000000E+00 -0.10738439575E+03  0.10738439575E+03  0.00000000000E+00 0.  1.
          6    2    1    2  502    0 -0.50408960391E+02  0.75422064758E+02  0.54528612833E+02  0.20256187334E+03  0.17270898001E+03 0.  0.
         24    2    3    3    0    0 -0.42264764565E+02 -0.15229853817E+02  0.24963058771E+02  0.10674793775E+03  0.93561258753E+02 0.  0.
         -6    2    1    2    0  503  0.50408960391E+02 -0.75422064758E+02  0.25564600860E+03  0.32238153960E+03  0.17419938065E+03 0.  0.
        -24    2    5    5    0    0  0.17744597652E+01 -0.65514703055E+02  0.60093282142E+02  0.12057363764E+03  0.81433865873E+02 0.  0.
          4    1    4    4  501    0 -0.71973619345E+02 -0.17203467853E+02  0.18553861609E+02  0.76291591727E+02  0.00000000000E+00 0. -1.
         -3    1    4    4    0  501  0.29708854780E+02  0.19736140352E+01  0.64091971618E+01  0.30456346021E+02  0.00000000000E+00 0.  1.
          5    1    3    3  502    0 -0.81441958260E+01  0.90651918575E+02  0.29565554063E+02  0.95813935594E+02  0.47000000000E+01 0. -1.
         11    1    6    6    0    0  0.22571059542E+02 -0.17095294314E+02 -0.12433434622E+02  0.30923973112E+02  0.00000000000E+00 0. -1.
        -12    1    6    6    0    0 -0.20796599777E+02 -0.48419408741E+02  0.72526716764E+02  0.89649664527E+02  0.00000000000E+00 0.  1.
         -5    1    5    5    0  503  0.48634500626E+02 -0.99073617030E+01  0.19555272646E+03  0.20180790196E+03  0.47000000000E+01 0.  1.
<mgrwt>
<rscale>  2 0.19607412E+03</rscale>
<asrwt>0</asrwt>
<pdfrwt beam="1">  1       21 0.64239848E-01 0.19640513E+03</pdfrwt>
<pdfrwt beam="2">  1       21 0.16520676E-01 0.19640513E+03</pdfrwt>
<totfact> 0.73397961E+04</totfact>
</mgrwt>
</event>
<event>
12    1  0.1473662E-001  0.2127255E+03  0.7546771E-02  0.1139518E+00
         21   -1    0    0  504  503  0.00000000000E+00  0.00000000000E+00  0.51118365279E+02  0.51118365279E+02  0.00000000000E+00 0.  1.
         21   -1    0    0  502  504 -0.00000000000E+00 -0.00000000000E+00 -0.10711620187E+04  0.10711620187E+04  0.00000000000E+00 0.  1.
          6    2    1    2  502    0 -0.11382035019E+03 -0.45291577932E+02 -0.74550154311E+03  0.77525780750E+03  0.17391296145E+03 0.  0.
         24    2    3    3    0    0 -0.66790452475E+02  0.33198701645E+02 -0.52737147614E+03  0.53866670161E+03  0.80486168066E+02 0.  0.
         -6    2    1    2    0  503  0.11382035019E+03  0.45291577932E+02 -0.27454211035E+03  0.34702257652E+03  0.17333464486E+03 0.  0.
        -24    2    5    5    0    0  0.82835663822E+02 -0.34151683877E+02 -0.11713243004E+03  0.16793829443E+03  0.80344133925E+02 0.  0.
          2    1    4    4  501    0 -0.16416705035E+02  0.47761421831E+02 -0.35259681828E+03  0.35619542091E+03  0.00000000000E+00 0. -1.
         -1    1    4    4    0  501 -0.50373747439E+02 -0.14562720186E+02 -0.17477465786E+03  0.18247128070E+03  0.00000000000E+00 0.  1.
          5    1    3    3  502    0 -0.47029897717E+02 -0.78490279577E+02 -0.21813006697E+03  0.23659110589E+03  0.47000000000E+01 0. -1.
         11    1    6    6    0    0 -0.10978744549E+00 -0.20670290396E+02  0.34563038012E+01  0.20957552202E+02  0.00000000000E+00 0. -1.
        -12    1    6    6    0    0  0.82945451268E+02 -0.13481393481E+02 -0.12058873384E+03  0.14698074223E+03  0.00000000000E+00 0.  1.
         -5    1    5    5    0  503  0.30984686369E+02  0.79443261809E+02 -0.15740968031E+03  0.17908428209E+03  0.47000000000E+01 0.  1.
<mgrwt>
<rscale>  2 0.21260722E+03</rscale>
<asrwt>0</asrwt>
<pdfrwt beam="1">  1       21 0.78643636E-02 0.21272545E+03</pdfrwt>
<pdfrwt beam="2">  1       21 0.16479416E+00 0.21272545E+03</pdfrwt>
<totfact> 0.28354197E+04</totfact>
</mgrwt>
</event>
<event>
12    1  0.1473662E-001  0.1852881E+03  0.7546771E-02  0.1163041E+00
         21   -1    0    0  504  503  0.00000000000E+00  0.00000000000E+00  0.10991859558E+03  0.10991859558E+03  0.00000000000E+00 0.  1.
         21   -1    0    0  502  504 -0.00000000000E+00 -0.00000000000E+00 -0.44257186704E+03  0.44257186704E+03  0.00000000000E+00 0.  1.
          6    2    1    2  502    0 -0.28093899975E+02  0.59875429990E+02 -0.31690159525E+03  0.36653406398E+03  0.17189026923E+03 0.  0.
         24    2    3    3    0    0  0.22501543424E+02 -0.12220956319E+02 -0.16618970580E+03  0.19190888987E+03  0.92489634384E+02 0.  0.
         -6    2    1    2    0  503  0.28093899975E+02 -0.59875429990E+02 -0.15751676213E+02  0.18595639865E+03  0.17308186665E+03 0.  0.
        -24    2    5    5    0    0  0.27709217518E+02  0.31903825329E+02  0.10742850064E+02  0.90313157328E+02  0.79091104133E+02 0.  0.
          4    1    4    4  501    0  0.67437287286E+01 -0.38096721649E+02 -0.21867927305E+02  0.44441470748E+02  0.00000000000E+00 0. -1.
         -3    1    4    4    0  501  0.15757814696E+02  0.25875765331E+02 -0.14432177850E+03  0.14746741913E+03  0.00000000000E+00 0.  1.
          5    1    3    3  502    0 -0.50595443400E+02  0.72096386308E+02 -0.15071188945E+03  0.17462517411E+03  0.47000000000E+01 0. -1.
         11    1    6    6    0    0 -0.76615853438E+01  0.26125381261E+01  0.36685255995E+02  0.37567715566E+02  0.00000000000E+00 0. -1.
        -12    1    6    6    0    0  0.35370802862E+02  0.29291287203E+02 -0.25942405931E+02  0.52745441762E+02  0.00000000000E+00 0.  1.
         -5    1    5    5    0  503  0.38468245700E+00 -0.91779255319E+02 -0.26494526277E+02  0.95643241320E+02  0.47000000000E+01 0.  1.
<mgrwt>
<rscale>  2 0.18500928E+03</rscale>
<asrwt>0</asrwt>
<pdfrwt beam="1">  1       21 0.16910553E-01 0.18528806E+03</pdfrwt>
<pdfrwt beam="2">  1       21 0.68087979E-01 0.18528806E+03</pdfrwt>
<totfact> 0.62238967E+04</totfact>
</mgrwt>
</event>
<event>
12    1  0.1473662E-001  0.2283954E+03  0.7546771E-02  0.1128128E+00
         21   -1    0    0  504  503  0.00000000000E+00  0.00000000000E+00  0.10859423205E+03  0.10859423205E+03  0.00000000000E+00 0. -1.
         21   -1    0    0  502  504 -0.00000000000E+00 -0.00000000000E+00 -0.50659878184E+03  0.50659878184E+03  0.00000000000E+00 0. -1.
          6    2    1    2  502    0  0.37059009032E+02 -0.14357715483E+03 -0.27353630000E+03  0.35508378519E+03  0.17109826868E+03 0.  0.
         24    2    3    3    0    0 -0.42310383473E+02 -0.50226355572E+02 -0.11547167994E+03  0.15503282592E+03  0.79928798948E+02 0.  0.
         -6    2    1    2    0  503 -0.37059009032E+02  0.14357715483E+03 -0.12446824979E+03  0.26010922870E+03  0.17371440962E+03 0.  0.
        -24    2    5    5    0    0 -0.17654365718E+02  0.16551328522E+03 -0.69310631825E+02  0.19748186393E+03  0.80553079928E+02 0.  0.
          2    1    4    4  501    0 -0.44696873842E+02 -0.41535112012E+02 -0.28062332832E+02  0.67160037113E+02  0.00000000000E+00 0. -1.
         -1    1    4    4    0  501  0.23864903693E+01 -0.86912435605E+01 -0.87409347111E+02  0.87872788810E+02  0.00000000000E+00 0.  1.
          5    1    3    3  502    0  0.79369392505E+02 -0.93350799255E+02 -0.15806462006E+03  0.20005095927E+03  0.47000000000E+01 0. -1.
         11    1    6    6    0    0 -0.18880199021E+02  0.84711015268E+02  0.60288114565E+01  0.86998647061E+02  0.00000000000E+00 0. -1.
        -12    1    6    6    0    0  0.12258333035E+01  0.80802269947E+02 -0.75339443281E+02  0.11048321687E+03  0.00000000000E+00 0.  1.
         -5    1    5    5    0  503 -0.19404643314E+02 -0.21936130388E+02 -0.55157617966E+02  0.62627364771E+02  0.47000000000E+01 0.  1.
<mgrwt>
<rscale>  2 0.22789793E+03</rscale>
<asrwt>0</asrwt>
<pdfrwt beam="1">  1       21 0.16706805E-01 0.22839542E+03</pdfrwt>
<pdfrwt beam="2">  1       21 0.77938274E-01 0.22839542E+03</pdfrwt>
<totfact> 0.46180142E+04</totfact>
</mgrwt>
</event>
<event>
12    1  0.1473662E-001  0.2202265E+03  0.7546771E-02  0.1134342E+00
         21   -1    0    0  504  503  0.00000000000E+00  0.00000000000E+00  0.50284084135E+03  0.50284084135E+03  0.00000000000E+00 0.  1.
         21   -1    0    0  502  504 -0.00000000000E+00 -0.00000000000E+00 -0.12863017926E+03  0.12863017926E+03  0.00000000000E+00 0.  1.
          6    2    1    2  502    0 -0.12780757640E+03  0.27901363865E+02  0.24589764944E+02  0.21827070223E+03  0.17298606944E+03 0.  0.
         24    2    3    3    0    0 -0.11063315585E+03 -0.31108328574E+02  0.53876222899E+02  0.15002928415E+03  0.79991971014E+02 0.  0.
         -6    2    1    2    0  503  0.12780757640E+03 -0.27901363865E+02  0.34962089715E+03  0.41320031838E+03  0.17716226657E+03 0.  0.
        -24    2    5    5    0    0 -0.89552335515E+01 -0.18143862733E+02  0.14320024167E+03  0.16534783802E+03  0.80151122011E+02 0.  0.
          2    1    4    4  501    0 -0.90019648096E+02 -0.50948762928E+02  0.61605264202E+02  0.12039319775E+03  0.00000000000E+00 0. -1.
         -1    1    4    4    0  501 -0.20613507758E+02  0.19840434353E+02 -0.77290413025E+01  0.29636086396E+02  0.00000000000E+00 0.  1.
          5    1    3    3  502    0 -0.17174420549E+02  0.59009692439E+02 -0.29286457955E+02  0.68241418087E+02  0.47000000000E+01 0. -1.
         11    1    6    6    0    0  0.60652725777E+01  0.34973471872E+01  0.13839268404E+03  0.13856967188E+03  0.00000000000E+00 0. -1.
        -12    1    6    6    0    0 -0.15020506129E+02 -0.21641209921E+02  0.48075576269E+01  0.26778166135E+02  0.00000000000E+00 0.  1.
         -5    1    5    5    0  503  0.13676280995E+03 -0.97575011311E+01  0.20642065548E+03  0.24785248037E+03  0.47000000000E+01 0.  1.
<mgrwt>
<rscale>  2 0.21938540E+03</rscale>
<asrwt>0</asrwt>
<pdfrwt beam="1">  1       21 0.77360128E-01 0.22022655E+03</pdfrwt>
<pdfrwt beam="2">  1       21 0.19789259E-01 0.22022655E+03</pdfrwt>
<totfact> 0.34421162E+04</totfact>
</mgrwt>
</event>
<event>
12    1  0.1473662E-001  0.2269136E+03  0.7546771E-02  0.1129113E+00
         21   -1    0    0  504  503  0.00000000000E+00  0.00000000000E+00  0.19121763047E+03  0.19121763047E+03  0.00000000000E+00 0.  1.
         21   -1    0    0  502  504 -0.00000000000E+00 -0.00000000000E+00 -0.31945120780E+03  0.31945120780E+03  0.00000000000E+00 0.  1.
          6    2    1    2  502    0 -0.11309698940E+03 -0.92056766570E+02 -0.16735351939E+03  0.28195211417E+03  0.17385170965E+03 0.  0.
         24    2    3    3    0    0 -0.13460875602E+03 -0.64098236147E+02 -0.87942796512E+02  0.19493149342E+03  0.89645137030E+02 0.  0.
         -6    2    1    2    0  503  0.11309698940E+03  0.92056766570E+02  0.39119942063E+02  0.22871672409E+03  0.17180102657E+03 0.  0.
        -24    2    5    5    0    0  0.22869728847E+02 -0.30720877235E+01  0.49755146902E+02  0.97089769988E+02  0.80114833661E+02 0.  0.
          4    1    4    4  501    0 -0.41019533532E+02  0.18725278117E+02 -0.42464298781E+02  0.61939122069E+02  0.00000000000E+00 0. -1.
         -3    1    4    4    0  501 -0.93589222490E+02 -0.82823514264E+02 -0.45478497731E+02  0.13299237135E+03  0.00000000000E+00 0.  1.
          5    1    3    3  502    0  0.21511766626E+02 -0.27958530423E+02 -0.79410722881E+02  0.87020620748E+02  0.47000000000E+01 0. -1.
         13    1    6    6    0    0  0.40180087972E+02 -0.24183929698E+02  0.85636646802E+01  0.47672196067E+02  0.00000000000E+00 0. -1.
        -14    1    6    6    0    0 -0.17310359126E+02  0.21111841974E+02  0.41191482222E+02  0.49417573921E+02  0.00000000000E+00 0.  1.
         -5    1    5    5    0  503  0.90227260550E+02  0.95128854293E+02 -0.10635204839E+02  0.13162695411E+03  0.47000000000E+01 0.  1.
<mgrwt>
<rscale>  2 0.22652078E+03</rscale>
<asrwt>0</asrwt>
<pdfrwt beam="1">  1       21 0.29418097E-01 0.22691363E+03</pdfrwt>
<pdfrwt beam="2">  1       21 0.49146339E-01 0.22691363E+03</pdfrwt>
<totfact> 0.43002858E+04</totfact>
</mgrwt>
</event>
<event>
12    1  0.1473662E-001  0.1927020E+03  0.7546771E-02  0.1156527E+00
         21   -1    0    0  504  503  0.00000000000E+00  0.00000000000E+00  0.96712847488E+03  0.96712847488E+03  0.00000000000E+00 0.  1.
         21   -1    0    0  502  504 -0.00000000000E+00 -0.00000000000E+00 -0.43889345640E+02  0.43889345640E+02  0.00000000000E+00 0.  1.
          6    2    1    2  502    0 -0.79734826316E+02  0.25927610930E+02  0.27369668293E+03  0.33349332856E+03  0.17110827685E+03 0.  0.
         24    2    3    3    0    0 -0.38220849223E+02  0.79690399033E+02  0.20197718715E+03  0.23460134832E+03  0.80197353408E+02 0.  0.
         -6    2    1    2    0  503  0.79734826316E+02 -0.25927610930E+02  0.64954244631E+03  0.67752449197E+03  0.17350551611E+03 0.  0.
        -24    2    5    5    0    0  0.59718249899E+02 -0.16988546702E+02  0.16907692525E+03  0.19653615829E+03  0.78642067467E+02 0.  0.
          2    1    4    4  501    0 -0.17016382145E+01  0.80972181724E+02  0.15692905898E+03  0.17659592107E+03  0.00000000000E+00 0. -1.
         -1    1    4    4    0  501 -0.36519211008E+02 -0.12817826906E+01  0.45048128163E+02  0.58005427251E+02  0.00000000000E+00 0.  1.
          5    1    3    3  502    0 -0.41513977094E+02 -0.53762788103E+02  0.71719495785E+02  0.98891980233E+02  0.47000000000E+01 0. -1.
         11    1    6    6    0    0  0.76665595113E+02 -0.24299354059E+02  0.14860841244E+03  0.16897494587E+03  0.00000000000E+00 0. -1.
        -12    1    6    6    0    0 -0.16947345214E+02  0.73108073562E+01  0.20468512803E+02  0.27561212425E+02  0.00000000000E+00 0.  1.
         -5    1    5    5    0  503  0.20016576417E+02 -0.89390642277E+01  0.48046552106E+03  0.48098833367E+03  0.47000000000E+01 0.  1.
<mgrwt>
<rscale>  2 0.19216080E+03</rscale>
<asrwt>0</asrwt>
<pdfrwt beam="1">  1       21 0.14878898E+00 0.19270197E+03</pdfrwt>
<pdfrwt beam="2">  1       21 0.67522078E-02 0.19270197E+03</pdfrwt>
<totfact> 0.49151767E+04</totfact>
</mgrwt>
</event>
<event>
12    1  0.1473662E-001  0.3196534E+03  0.7546771E-02  0.1075847E+00
         21   -1    0    0  504  503  0.00000000000E+00  0.00000000000E+00  0.28507475830E+03  0.28507475830E+03  0.00000000000E+00 0. -1.
         21   -1    0    0  502  504 -0.00000000000E+00 -0.00000000000E+00 -0.12523287724E+04  0.12523287724E+04  0.00000000000E+00 0.  1.
          6    2    1    2  502    0  0.24062356441E+03 -0.12040456120E+03 -0.11332815142E+04  0.11774996037E+04  0.17257279108E+03 0.  0.
         24    2    3    3    0    0  0.18622428335E+03 -0.37703379162E+02 -0.91242954429E+03  0.93543256774E+03  0.80033661670E+02 0.  0.
         -6    2    1    2    0  503 -0.24062356441E+03  0.12040456120E+03  0.16602750011E+03  0.35990392697E+03  0.17195565635E+03 0.  0.
        -24    2    5    5    0    0 -0.17742425980E+03  0.99978631167E+02  0.18952501518E+03  0.28929518859E+03  0.79352883427E+02 0.  0.
          4    1    4    4  501    0  0.58077803172E+02  0.19521765107E+02 -0.37542184780E+03  0.38038887252E+03  0.00000000000E+00 0. -1.
         -3    1    4    4    0  501  0.12814648018E+03 -0.57225144269E+02 -0.53700769649E+03  0.55504369522E+03  0.00000000000E+00 0.  1.
          5    1    3    3  502    0  0.54399281060E+02 -0.82701182041E+02 -0.22085196994E+03  0.24206703600E+03  0.47000000000E+01 0. -1.
         13    1    6    6    0    0 -0.14266186595E+02  0.17161909282E+02  0.63001986900E+02  0.66837905140E+02  0.00000000000E+00 0. -1.
        -14    1    6    6    0    0 -0.16315807321E+03  0.82816721885E+02  0.12652302828E+03  0.22245728345E+03  0.00000000000E+00 0.  1.
         -5    1    5    5    0  503 -0.63199304608E+02  0.20425930036E+02 -0.23497515072E+02  0.70608738378E+02  0.47000000000E+01 0.  1.
<mgrwt>
<rscale>  2 0.31957023E+03</rscale>
<asrwt>0</asrwt>
<pdfrwt beam="1">  1       21 0.43857654E-01 0.31965345E+03</pdfrwt>
<pdfrwt beam="2">  1       21 0.19266597E+00 0.31965345E+03</pdfrwt>
<totfact> 0.66788779E+02</totfact>
</mgrwt>
</event>
<event>
12    1  0.1473662E-001  0.2191375E+03  0.7546771E-02  0.1134876E+00
         21   -1    0    0  504  503  0.00000000000E+00  0.00000000000E+00  0.72651062418E+03  0.72651062418E+03  0.00000000000E+00 0. -1.
         21   -1    0    0  502  504 -0.00000000000E+00 -0.00000000000E+00 -0.67262127267E+02  0.67262127267E+02  0.00000000000E+00 0. -1.
          6    2    1    2  502    0  0.13079474196E+03  0.21668677078E+02  0.26751753135E+03  0.34581332454E+03  0.17448332229E+03 0.  0.
         24    2    3    3    0    0  0.27683064198E+02  0.41039231653E+02  0.19970606308E+03  0.22080243819E+03  0.80128861863E+02 0.  0.
         -6    2    1    2    0  503 -0.13079474196E+03 -0.21668677078E+02  0.39173096557E+03  0.44795942691E+03  0.17215604167E+03 0.  0.
        -24    2    5    5    0    0 -0.25370926299E+02  0.15830601845E+02  0.86378506943E+02  0.12271706987E+03  0.81877597176E+02 0.  0.
          4    1    4    4  501    0  0.54025563956E+02  0.38421523506E+02  0.15874301875E+03  0.17203000038E+03  0.00000000000E+00 0. -1.
         -3    1    4    4    0  501 -0.26342499758E+02  0.26177081474E+01  0.40963044330E+02  0.48772437813E+02  0.00000000000E+00 0.  1.
          5    1    3    3  502    0  0.10311167776E+03 -0.19370554575E+02  0.67811468269E+02  0.12501088634E+03  0.47000000000E+01 0. -1.
         13    1    6    6    0    0 -0.24067271610E+02  0.39016774307E+02  0.88221561113E+02  0.99421255702E+02  0.00000000000E+00 0. -1.
        -14    1    6    6    0    0 -0.13036546897E+01 -0.23186172462E+02 -0.18430541702E+01  0.23295814166E+02  0.00000000000E+00 0.  1.
         -5    1    5    5    0  503 -0.10542381566E+03 -0.37499278923E+02  0.30535245862E+03  0.32524235704E+03  0.47000000000E+01 0.  1.
<mgrwt>
<rscale>  2 0.21867387E+03</rscale>
<asrwt>0</asrwt>
<pdfrwt beam="1">  1       21 0.11177086E+00 0.21913746E+03</pdfrwt>
<pdfrwt beam="2">  1       21 0.10348020E-01 0.21913746E+03</pdfrwt>
<totfact> 0.47340247E+04</totfact>
</mgrwt>
</event>
<event>
12    1  0.1473662E-001  0.2014958E+03  0.7546771E-02  0.1148653E+00
         21   -1    0    0  504  503  0.00000000000E+00  0.00000000000E+00  0.16926893679E+03  0.16926893679E+03  0.00000000000E+00 0.  1.
         21   -1    0    0  502  504 -0.00000000000E+00 -0.00000000000E+00 -0.59109432445E+03  0.59109432445E+03  0.00000000000E+00 0. -1.
          6    2    1    2  502    0  0.37814541650E+02  0.94004177294E+02 -0.50420698308E+03  0.54267702675E+03  0.17322513869E+03 0.  0.
         24    2    3    3    0    0 -0.45561323617E+02  0.51785907200E+02 -0.29258236030E+03  0.31128776987E+03  0.80858046686E+02 0.  0.
         -6    2    1    2    0  503 -0.37814541650E+02 -0.94004177294E+02  0.82381595421E+02  0.21768623449E+03  0.17416614055E+03 0.  0.
        -24    2    5    5    0    0  0.23981145254E+02 -0.10836880356E+03  0.82155948013E+02  0.15406870291E+03  0.68327684798E+02 0.  0.
          4    1    4    4  501    0  0.49539914229E+01  0.49829025047E+02 -0.95583050096E+02  0.10790548287E+03  0.00000000000E+00 0. -1.
         -3    1    4    4    0  501 -0.50515315040E+02  0.19568821537E+01 -0.19699931021E+03  0.20338228699E+03  0.00000000000E+00 0.  1.
          5    1    3    3  502    0  0.83375865267E+02  0.42218270093E+02 -0.21162462277E+03  0.23138925689E+03  0.47000000000E+01 0. -1.
         13    1    6    6    0    0 -0.14638543139E+02 -0.62554842896E+01 -0.22434645982E+01  0.16076416340E+02  0.00000000000E+00 0. -1.
        -14    1    6    6    0    0  0.38619688392E+02 -0.10211331927E+03  0.84399412611E+02  0.13799228657E+03  0.00000000000E+00 0.  1.
         -5    1    5    5    0  503 -0.61795686903E+02  0.14364626265E+02  0.22564740846E+00  0.63617531580E+02  0.47000000000E+01 0.  1.
<mgrwt>
<rscale>  2 0.20129232E+03</rscale>
<asrwt>0</asrwt>
<pdfrwt beam="1">  1       21 0.26041375E-01 0.20149583E+03</pdfrwt>
<pdfrwt beam="2">  1       21 0.90937589E-01 0.20149583E+03</pdfrwt>
<totfact> 0.14285303E+04</totfact>
</mgrwt>
</event>
<event>
12    1  0.1473662E-001  0.2173461E+03  0.7546771E-02  0.1136758E+00
         21   -1    0    0  504  503  0.00000000000E+00  0.00000000000E+00  0.17451349536E+03  0.17451349536E+03  0.00000000000E+00 0.  1.
         21   -1    0    0  502  504 -0.00000000000E+00 -0.00000000000E+00 -0.27027047680E+03  0.27027047680E+03  0.00000000000E+00 0.  1.
          6    2    1    2  502    0  0.24060418504E+02  0.12646021255E+03 -0.16308001318E+02  0.21337207008E+03  0.16938299881E+03 0.  0.
         24    2    3    3    0    0  0.47654111442E+02  0.13505065300E+03  0.24112488381E+02  0.16555613130E+03  0.79484761444E+02 0.  0.
         -6    2    1    2    0  503 -0.24060418504E+02 -0.12646021255E+03 -0.79448980119E+02  0.23141190208E+03  0.17512349610E+03 0.  0.
        -24    2    5    5    0    0  0.20444155242E+02 -0.15886999551E+02 -0.74011056932E+02  0.11200187936E+03  0.79977648086E+02 0.  0.
          2    1    4    4  501    0  0.44580085085E+02  0.34850549715E+02  0.31985627066E+02  0.65000193388E+02  0.00000000000E+00 0. -1.
         -1    1    4    4    0  501  0.30740263566E+01  0.10020010329E+03 -0.78731386846E+01  0.10055593791E+03  0.00000000000E+00 0.  1.
          5    1    3    3  502    0 -0.23593692938E+02 -0.85904404496E+01 -0.40420489699E+02  0.47815938777E+02  0.47000000000E+01 0. -1.
         11    1    6    6    0    0 -0.20272752462E+02 -0.22688245327E+02 -0.61911991064E+02  0.68984314202E+02  0.00000000000E+00 0. -1.
        -12    1    6    6    0    0  0.40716907704E+02  0.68012457762E+01 -0.12099065868E+02  0.43017565157E+02  0.00000000000E+00 0.  1.
         -5    1    5    5    0  503 -0.44504573747E+02 -0.11057321300E+03 -0.54379231869E+01  0.11941002272E+03  0.47000000000E+01 0.  1.
<mgrwt>
<rscale>  2 0.21618733E+03</rscale>
<asrwt>0</asrwt>
<pdfrwt beam="1">  1       21 0.26848230E-01 0.21734610E+03</pdfrwt>
<pdfrwt beam="2">  1       21 0.41580073E-01 0.21734610E+03</pdfrwt>
<totfact> 0.72794274E+04</totfact>
</mgrwt>
</event>
<event>
12    1  0.1473662E-001  0.2022792E+03  0.7546771E-02  0.1148507E+00
         21   -1    0    0  504  503  0.00000000000E+00  0.00000000000E+00  0.33934817281E+03  0.33934817281E+03  0.00000000000E+00 0.  1.
         21   -1    0    0  502  504 -0.00000000000E+00 -0.00000000000E+00 -0.23277311795E+03  0.23277311795E+03  0.00000000000E+00 0.  1.
          6    2    1    2  502    0 -0.55271813061E+02 -0.81228809183E+02 -0.14721893510E+03  0.24757815858E+03  0.17311394222E+03 0.  0.
         24    2    3    3    0    0 -0.38504872332E+02 -0.12381526342E+03 -0.12020658827E+03  0.19422562098E+03  0.80381113035E+02 0.  0.
         -6    2    1    2    0  503  0.55271813061E+02  0.81228809183E+02  0.25379398996E+03  0.32454313219E+03  0.17681561739E+03 0.  0.
        -24    2    5    5    0    0  0.31729499172E+02 -0.16972769380E+02  0.17614798741E+03  0.19707242070E+03  0.80713007104E+02 0.  0.
          4    1    4    4  501    0 -0.60461819684E+02 -0.10289648856E+03 -0.79242627914E+02  0.14325750618E+03  0.00000000000E+00 0. -1.
         -3    1    4    4    0  501  0.21956947352E+02 -0.20918774864E+02 -0.40963960354E+02  0.50968114804E+02  0.00000000000E+00 0.  1.
          5    1    3    3  502    0 -0.16766940729E+02  0.42586454242E+02 -0.27012346833E+02  0.53352537594E+02  0.47000000000E+01 0. -1.
         11    1    6    6    0    0 -0.21164812184E+02 -0.24887298521E+02  0.89171273102E+02  0.94967588414E+02  0.00000000000E+00 0. -1.
        -12    1    6    6    0    0  0.52894311356E+02  0.79145291409E+01  0.86976714303E+02  0.10210483229E+03  0.00000000000E+00 0.  1.
         -5    1    5    5    0  503  0.23542313889E+02  0.98201578563E+02  0.77646002556E+02  0.12747071149E+03  0.47000000000E+01 0.  1.
<mgrwt>
<rscale>  2 0.20146738E+03</rscale>
<asrwt>0</asrwt>
<pdfrwt beam="1">  1       21 0.52207412E-01 0.20227915E+03</pdfrwt>
<pdfrwt beam="2">  1       21 0.35811249E-01 0.20227915E+03</pdfrwt>
<totfact> 0.26031915E+04</totfact>
</mgrwt>
</event>
<event>
12    1  0.1473662E-001  0.2733119E+03  0.7546771E-02  0.1099437E+00
         21   -1    0    0  504  503  0.00000000000E+00  0.00000000000E+00  0.63439100459E+02  0.63439100459E+02  0.00000000000E+00 0. -1.
         21   -1    0    0  502  504 -0.00000000000E+00 -0.00000000000E+00 -0.41945906133E+04  0.41945906133E+04  0.00000000000E+00 0.  1.
          6    2    1    2  502    0  0.19262928005E+03 -0.87156660379E+02 -0.38712647118E+04  0.38808818106E+04  0.17277394512E+03 0.  0.
         24    2    3    3    0    0  0.97915111957E+02  0.21567681231E+02 -0.18065465817E+04  0.18111294575E+04  0.80788775516E+02 0.  0.
         -6    2    1    2    0  503 -0.19262928005E+03  0.87156660379E+02 -0.25988680107E+03  0.37714790317E+03  0.17319661809E+03 0.  0.
        -24    2    5    5    0    0 -0.38550396554E+02  0.70697825224E+02 -0.14494856081E+03  0.18416063761E+03  0.80129517659E+02 0.  0.
          2    1    4    4  501    0 -0.72606196654E+01  0.17939333914E+02 -0.49059296416E+03  0.49097453375E+03  0.00000000000E+00 0. -1.
         -1    1    4    4    0  501  0.10517573162E+03  0.36283473177E+01 -0.13159536175E+04  0.13201549238E+04  0.00000000000E+00 0.  1.
          5    1    3    3  502    0  0.94714168095E+02 -0.10872434161E+03 -0.20647181301E+04  0.20697523530E+04  0.47000000000E+01 0. -1.
         13    1    6    6    0    0 -0.59193955647E+02  0.53237296227E+02 -0.75850214259E+02  0.10996085257E+03  0.00000000000E+00 0. -1.
        -14    1    6    6    0    0  0.20643559093E+02  0.17460528997E+02 -0.69098346548E+02  0.74199785044E+02  0.00000000000E+00 0.  1.
         -5    1    5    5    0  503 -0.15407888350E+03  0.16458835155E+02 -0.11493824026E+03  0.19298726556E+03  0.47000000000E+01 0.  1.
<mgrwt>
<rscale>  2 0.27324496E+03</rscale>
<asrwt>0</asrwt>
<pdfrwt beam="1">  1       21 0.97598589E-02 0.27331189E+03</pdfrwt>
<pdfrwt beam="2">  1       21 0.64532181E+00 0.27331189E+03</pdfrwt>
<totfact> 0.10979069E+01</totfact>
</mgrwt>
</event>
<event>
12    1  0.1473662E-001  0.1983114E+03  0.7546771E-02  0.1151438E+00
         21   -1    0    0  504  503  0.00000000000E+00  0.00000000000E+00  0.34566940725E+03  0.34566940725E+03  0.00000000000E+00 0. -1.
         21   -1    0    0  502  504 -0.00000000000E+00 -0.00000000000E+00 -0.44865989089E+03  0.44865989089E+03  0.00000000000E+00 0. -1.
          6    2    1    2  502    0 -0.69017558817E+02 -0.67310738109E+02 -0.39495176135E+03  0.44138623979E+03  0.17187425633E+03 0.  0.
         24    2    3    3    0    0 -0.34641409120E+02 -0.51218612066E+02 -0.87176470621E+02  0.13124369873E+03  0.76169534450E+02 0.  0.
         -6    2    1    2    0  503  0.69017558817E+02  0.67310738109E+02  0.29196127771E+03  0.35294305835E+03  0.17330105559E+03 0.  0.
        -24    2    5    5    0    0  0.85698238409E+02  0.94363334162E+02  0.28188447720E+03  0.31927230051E+03  0.78913347994E+02 0.  0.
          4    1    4    4  501    0  0.72341432630E+01  0.13863031399E+02 -0.33770481442E+02  0.37215076046E+02  0.00000000000E+00 0. -1.
         -3    1    4    4    0  501 -0.41875552383E+02 -0.65081643465E+02 -0.53405989179E+02  0.94028622683E+02  0.00000000000E+00 0.  1.
          5    1    3    3  502    0 -0.34376149697E+02 -0.16092126043E+02 -0.30777529073E+03  0.31014254106E+03  0.47000000000E+01 0. -1.
         13    1    6    6    0    0 -0.66121837310E+01  0.26336811570E+02  0.10513336173E+03  0.10858348109E+03  0.00000000000E+00 0. -1.
        -14    1    6    6    0    0  0.92310422140E+02  0.68026522592E+02  0.17675111547E+03  0.21068881942E+03  0.00000000000E+00 0.  1.
         -5    1    5    5    0  503 -0.16680679592E+02 -0.27052596053E+02  0.10076800516E+02  0.33670757839E+02  0.47000000000E+01 0.  1.
<mgrwt>
<rscale>  2 0.19799926E+03</rscale>
<asrwt>0</asrwt>
<pdfrwt beam="1">  1       21 0.53179909E-01 0.19831141E+03</pdfrwt>
<pdfrwt beam="2">  1       21 0.69024598E-01 0.19831141E+03</pdfrwt>
<totfact> 0.63725544E+03</totfact>
</mgrwt>
</event>
<event>
12    1  0.1473662E-001  0.2311621E+03  0.7546771E-02  0.1125957E+00
         21   -1    0    0  504  503  0.00000000000E+00  0.00000000000E+00  0.41080576215E+03  0.41080576215E+03  0.00000000000E+00 0. -1.
         21   -1    0    0  502  504 -0.00000000000E+00 -0.00000000000E+00 -0.22354272393E+03  0.22354272393E+03  0.00000000000E+00 0. -1.
          6    2    1    2  502    0  0.13851391665E+03  0.63679468487E+02 -0.11183513168E+03  0.25679372082E+03  0.17376633322E+03 0.  0.
         24    2    3    3    0    0  0.98767586321E+02  0.10870606705E+03 -0.10205356044E+03  0.19576147943E+03  0.79596372460E+02 0.  0.
         -6    2    1    2    0  503 -0.13851391665E+03 -0.63679468487E+02  0.29909816990E+03  0.37755476526E+03  0.17276199153E+03 0.  0.
        -24    2    5    5    0    0 -0.16320240189E+03 -0.59849969740E+02  0.29498806825E+03  0.35180269156E+03  0.80809222974E+02 0.  0.
          4    1    4    4  501    0  0.55643634740E+02  0.94525699958E+01 -0.51149798408E+02  0.76169987815E+02  0.00000000000E+00 0. -1.
         -3    1    4    4    0  501  0.43123951581E+02  0.99253497054E+02 -0.50903762029E+02  0.11959149161E+03  0.00000000000E+00 0.  1.
          5    1    3    3  502    0  0.39746330334E+02 -0.45026598563E+02 -0.97815712385E+01  0.61032241390E+02  0.47000000000E+01 0. -1.
         13    1    6    6    0    0 -0.27282368652E+02 -0.77949393570E+00  0.74069475263E+01  0.28280702285E+02  0.00000000000E+00 0. -1.
        -14    1    6    6    0    0 -0.13592003324E+03 -0.59070475804E+02  0.28758112073E+03  0.32352198928E+03  0.00000000000E+00 0.  1.
         -5    1    5    5    0  503  0.24688485238E+02 -0.38294987468E+01  0.41101016455E+01  0.25752073694E+02  0.47000000000E+01 0.  1.
<mgrwt>
<rscale>  2 0.23097337E+03</rscale>
<asrwt>0</asrwt>
<pdfrwt beam="1">  1       21 0.63200887E-01 0.23116210E+03</pdfrwt>
<pdfrwt beam="2">  1       21 0.34391188E-01 0.23116210E+03</pdfrwt>
<totfact> 0.18457419E+04</totfact>
</mgrwt>
</event>
<event>
12    1  0.1473662E-001  0.2478954E+03  0.7546771E-02  0.1115401E+00
         21   -1    0    0  504  503  0.00000000000E+00  0.00000000000E+00  0.93704851667E+03  0.93704851667E+03  0.00000000000E+00 0.  1.
         21   -1    0    0  502  504 -0.00000000000E+00 -0.00000000000E+00 -0.64801523286E+02  0.64801523286E+02  0.00000000000E+00 0. -1.
          6    2    1    2  502    0 -0.14947951119E+03 -0.92940579295E+02  0.47417464770E+03  0.53290042704E+03  0.16780701138E+03 0.  0.
         24    2    3    3    0    0 -0.16408469051E+03 -0.58666723412E+02  0.44492113684E+03  0.48529930984E+03  0.84823534676E+02 0.  0.
         -6    2    1    2    0  503  0.14947951119E+03  0.92940579295E+02  0.39807234569E+03  0.46894961292E+03  0.17455678594E+03 0.  0.
        -24    2    5    5    0    0  0.14480547051E+03  0.42769174455E+02  0.37678645358E+03  0.41404792149E+03  0.81668985018E+02 0.  0.
          2    1    4    4  501    0 -0.13134499202E+03 -0.57492613577E+02  0.25474127475E+03  0.29231836173E+03  0.00000000000E+00 0. -1.
         -1    1    4    4    0  501 -0.32739698494E+02 -0.11741098352E+01  0.19017986208E+03  0.19298094811E+03  0.00000000000E+00 0.  1.
          5    1    3    3  502    0  0.14605179323E+02 -0.34273855883E+02  0.29253510866E+02  0.47601117194E+02  0.47000000000E+01 0. -1.
         11    1    6    6    0    0  0.57731782265E+02 -0.21380943090E+02  0.10793529411E+03  0.12425832417E+03  0.00000000000E+00 0. -1.
        -12    1    6    6    0    0  0.87073688248E+02  0.64150117545E+02  0.26885115946E+03  0.28978959731E+03  0.00000000000E+00 0.  1.
         -5    1    5    5    0  503  0.46740406739E+01  0.50171404840E+02  0.21285892110E+02  0.54901691438E+02  0.47000000000E+01 0.  1.
<mgrwt>
<rscale>  2 0.24671055E+03</rscale>
<asrwt>0</asrwt>
<pdfrwt beam="1">  1       21 0.14416130E+00 0.24789544E+03</pdfrwt>
<pdfrwt beam="2">  1       21 0.99694658E-02 0.24789544E+03</pdfrwt>
<totfact> 0.26205365E+04</totfact>
</mgrwt>
</event>
<event>
12    1  0.1473662E-001  0.1798492E+03  0.7546771E-02  0.1167981E+00
         21   -1    0    0  504  503  0.00000000000E+00  0.00000000000E+00  0.18579813609E+03  0.18579813609E+03  0.00000000000E+00 0.  1.
         21   -1    0    0  502  504 -0.00000000000E+00 -0.00000000000E+00 -0.28303031305E+03  0.28303031305E+03  0.00000000000E+00 0.  1.
          6    2    1    2  502    0 -0.88790324604E+01 -0.49494038815E+02 -0.19412197493E+03  0.26454097664E+03  0.17254011150E+03 0.  0.
         24    2    3    3    0    0 -0.45666812849E+02 -0.10531088724E+01 -0.18281533071E+03  0.20249426293E+03  0.74134435602E+02 0.  0.
         -6    2    1    2    0  503  0.88790324604E+01  0.49494038815E+02  0.96889797965E+02  0.20428747250E+03  0.17267669610E+03 0.  0.
        -24    2    5    5    0    0 -0.76024365263E+01  0.43302809360E+02  0.13403708108E+03  0.16291138296E+03  0.81493860222E+02 0.  0.
          4    1    4    4  501    0 -0.36031803379E+02 -0.87756523870E+01 -0.26232174959E+02  0.45424992379E+02  0.00000000000E+00 0. -1.
         -3    1    4    4    0  501 -0.96350094699E+01  0.77225435145E+01 -0.15658315575E+03  0.15706927055E+03  0.00000000000E+00 0.  1.
          5    1    3    3  502    0  0.36787780389E+02 -0.48440929943E+02 -0.11306644223E+02  0.62046713718E+02  0.47000000000E+01 0. -1.
         13    1    6    6    0    0  0.34322101799E+02  0.78846050808E+01  0.34804614111E+02  0.49512976406E+02  0.00000000000E+00 0. -1.
        -14    1    6    6    0    0 -0.41924538326E+02  0.35418204279E+02  0.99232466973E+02  0.11339840656E+03  0.00000000000E+00 0.  1.
         -5    1    5    5    0  503  0.16481468987E+02  0.61912294554E+01 -0.37147283119E+02  0.41376089536E+02  0.47000000000E+01 0.  1.
<mgrwt>
<rscale>  2 0.17981642E+03</rscale>
<asrwt>0</asrwt>
<pdfrwt beam="1">  1       21 0.28584329E-01 0.17984921E+03</pdfrwt>
<pdfrwt beam="2">  1       21 0.43543125E-01 0.17984921E+03</pdfrwt>
<totfact> 0.59679703E+04</totfact>
</mgrwt>
</event>
<event>
12    1  0.1473662E-001  0.2405228E+03  0.7546771E-02  0.1119514E+00
         21   -1    0    0  504  503  0.00000000000E+00  0.00000000000E+00  0.29882270507E+03  0.29882270507E+03  0.00000000000E+00 0. -1.
         21   -1    0    0  502  504 -0.00000000000E+00 -0.00000000000E+00 -0.21218197153E+03  0.21218197153E+03  0.00000000000E+00 0.  1.
          6    2    1    2  502    0  0.75683520227E+02 -0.14793898061E+03 -0.32938589824E+02  0.24276772617E+03  0.17388870277E+03 0.  0.
         24    2    3    3    0    0 -0.63476558626E+01 -0.19051090455E+02 -0.31463858116E+02  0.89910057364E+02  0.81796132336E+02 0.  0.
         -6    2    1    2    0  503 -0.75683520227E+02  0.14793898061E+03  0.11957932337E+03  0.26823695043E+03  0.17331448231E+03 0.  0.
        -24    2    5    5    0    0 -0.10494489708E+03  0.63766072761E+02  0.52240057252E+02  0.15644261537E+03  0.81643890541E+02 0.  0.
          4    1    4    4  501    0  0.23965056477E+01 -0.80740369291E+01  0.27778964612E+02  0.29027645212E+02  0.00000000000E+00 0. -1.
         -3    1    4    4    0  501 -0.87441615103E+01 -0.10977053526E+02 -0.59242822728E+02  0.60882412152E+02  0.00000000000E+00 0.  1.
          5    1    3    3  502    0  0.82031176090E+02 -0.12888789016E+03 -0.14747317075E+01  0.15285766881E+03  0.47000000000E+01 0. -1.
         11    1    6    6    0    0 -0.41651541884E+02  0.23822815535E+02  0.64718868815E+02  0.80566180634E+02  0.00000000000E+00 0. -1.
        -12    1    6    6    0    0 -0.63293355194E+02  0.39943257226E+02 -0.12478811563E+02  0.75876434731E+02  0.00000000000E+00 0.  1.
         -5    1    5    5    0  503  0.29261376851E+02  0.84172907849E+02  0.67339266120E+02  0.11179433506E+03  0.47000000000E+01 0.  1.
<mgrwt>
<rscale>  2 0.24041903E+03</rscale>
<asrwt>0</asrwt>
<pdfrwt beam="1">  1       21 0.45972724E-01 0.24052280E+03</pdfrwt>
<pdfrwt beam="2">  1       21 0.32643380E-01 0.24052280E+03</pdfrwt>
<totfact> 0.40030097E+04</totfact>
</mgrwt>
</event>
<event>
12    1  0.1473662E-001  0.2892913E+03  0.7546771E-02  0.1090763E+00
         21   -1    0    0  504  503  0.00000000000E+00  0.00000000000E+00  0.79195047509E+03  0.79195047509E+03  0.00000000000E+00 0. -1.
         21   -1    0    0  502  504 -0.00000000000E+00 -0.00000000000E+00 -0.26917007784E+03  0.26917007784E+03  0.00000000000E+00 0.  1.
          6    2    1    2  502    0  0.19725139950E+03 -0.12221418516E+03 -0.15232024547E+03  0.32664772568E+03  0.17220005184E+03 0.  0.
         24    2    3    3    0    0  0.26052641464E+02 -0.16955397137E+02 -0.31089565018E+02  0.91898082249E+02  0.80699881342E+02 0.  0.
         -6    2    1    2    0  503 -0.19725139950E+03  0.12221418516E+03  0.67510064272E+03  0.73447282725E+03  0.17275715473E+03 0.  0.
        -24    2    5    5    0    0 -0.12321381258E+03  0.56403131691E+02  0.56342639486E+03  0.58512127329E+03  0.80960763085E+02 0.  0.
          2    1    4    4  501    0  0.87852495706E+00  0.31202730178E+02 -0.49793898845E+01  0.31609753246E+02  0.00000000000E+00 0. -1.
         -1    1    4    4    0  501  0.25174116507E+02 -0.48158127315E+02 -0.26110175133E+02  0.60288329002E+02  0.00000000000E+00 0.  1.
          5    1    3    3  502    0  0.17119875803E+03 -0.10525878802E+03 -0.12123068046E+03  0.23474964343E+03  0.47000000000E+01 0. -1.
         11    1    6    6    0    0 -0.90560493861E+02  0.54495789383E+02  0.27116349110E+03  0.29103373175E+03  0.00000000000E+00 0. -1.
        -12    1    6    6    0    0 -0.32653318715E+02  0.19073423082E+01  0.29226290376E+03  0.29408754154E+03  0.00000000000E+00 0.  1.
         -5    1    5    5    0  503 -0.74037586920E+02  0.65811053465E+02  0.11167424786E+03  0.14935155396E+03  0.47000000000E+01 0.  1.
<mgrwt>
<rscale>  2 0.28920818E+03</rscale>
<asrwt>0</asrwt>
<pdfrwt beam="1">  1       21 0.12183853E+00 0.28929130E+03</pdfrwt>
<pdfrwt beam="2">  1       21 0.41410781E-01 0.28929130E+03</pdfrwt>
<totfact> 0.26597939E+03</totfact>
</mgrwt>
</event>
<event>
12    1  0.1473662E-001  0.1766672E+03  0.7546771E-02  0.1171135E+00
         21   -1    0    0  504  503  0.00000000000E+00  0.00000000000E+00  0.12923947078E+03  0.12923947078E+03  0.00000000000E+00 0. -1.
         21   -1    0    0  502  504 -0.00000000000E+00 -0.00000000000E+00 -0.32581834591E+03  0.32581834591E+03  0.00000000000E+00 0. -1.
          6    2    1    2  502    0 -0.32000151314E+02 -0.15025043701E+02 -0.21423283546E+03  0.27751077918E+03  0.17282003111E+03 0.  0.
         24    2    3    3    0    0 -0.83306471724E+02  0.12090256157E+02 -0.12401176979E+03  0.17013522940E+03  0.80504252760E+02 0.  0.
         -6    2    1    2    0  503  0.32000151314E+02  0.15025043701E+02  0.17653960327E+02  0.17754703750E+03  0.17309398195E+03 0.  0.
        -24    2    5    5    0    0  0.43904579194E+02  0.22304028055E+02 -0.52033960158E+02  0.10632067105E+03  0.78558706338E+02 0.  0.
          2    1    4    4  501    0 -0.92409725718E+02 -0.79363158372E+01 -0.87508916409E+02  0.12751608905E+03  0.00000000000E+00 0. -1.
         -1    1    4    4    0  501  0.91032539942E+01  0.20026571994E+02 -0.36502853384E+02  0.42619140352E+02  0.00000000000E+00 0.  1.
          5    1    3    3  502    0  0.51306320410E+02 -0.27115299858E+02 -0.90221065667E+02  0.10737554978E+03  0.47000000000E+01 0. -1.
         11    1    6    6    0    0  0.22076770062E+01  0.45120567746E+02 -0.24510386631E+02  0.51395510740E+02  0.00000000000E+00 0. -1.
        -12    1    6    6    0    0  0.41696902188E+02 -0.22816539691E+02 -0.27523573527E+02  0.54925160311E+02  0.00000000000E+00 0.  1.
         -5    1    5    5    0  503 -0.11904427880E+02 -0.72789843534E+01  0.69687920485E+02  0.71226366451E+02  0.47000000000E+01 0.  1.
<mgrwt>
<rscale>  2 0.17660003E+03</rscale>
<asrwt>0</asrwt>
<pdfrwt beam="1">  1       21 0.19882996E-01 0.17666717E+03</pdfrwt>
<pdfrwt beam="2">  1       21 0.50125899E-01 0.17666717E+03</pdfrwt>
<totfact> 0.89023125E+04</totfact>
</mgrwt>
</event>
<event>
12    1  0.1473662E-001  0.1810009E+03  0.7546771E-02  0.1167291E+00
         21   -1    0    0  504  503  0.00000000000E+00  0.00000000000E+00  0.99684400387E+02  0.99684400387E+02  0.00000000000E+00 0.  1.
         21   -1    0    0  502  504 -0.00000000000E+00 -0.00000000000E+00 -0.34139838317E+03  0.34139838317E+03  0.00000000000E+00 0.  1.
          6    2    1    2  502    0  0.20466402831E+02  0.43400629449E+02 -0.73499718331E+02  0.19535485417E+03  0.17452456036E+03 0.  0.
         24    2    3    3    0    0  0.32437467753E+02 -0.38509181206E+02 -0.56710515429E+02  0.11075880928E+03  0.80723509094E+02 0.  0.
         -6    2    1    2    0  503 -0.20466402831E+02 -0.43400629449E+02 -0.16821426445E+03  0.24572792939E+03  0.17257951279E+03 0.  0.
        -24    2    5    5    0    0  0.26179478135E+02 -0.47676368485E+02 -0.31309216770E+02  0.10095499602E+03  0.79077449248E+02 0.  0.
          4    1    4    4  501    0  0.39266455471E+02 -0.52138057153E+02 -0.15878614857E+02  0.67174116583E+02  0.00000000000E+00 0. -1.
         -3    1    4    4    0  501 -0.68289877175E+01  0.13628875946E+02 -0.40831900572E+02  0.43584692693E+02  0.00000000000E+00 0.  1.
          5    1    3    3  502    0 -0.11971064922E+02  0.81909810656E+02 -0.16789202903E+02  0.84596044891E+02  0.47000000000E+01 0. -1.
         11    1    6    6    0    0  0.11693973291E+02  0.16978879500E+02 -0.27791723324E+02  0.34603630528E+02  0.00000000000E+00 0. -1.
        -12    1    6    6    0    0  0.14485504844E+02 -0.64655247986E+02 -0.35174934455E+01  0.66351365493E+02  0.00000000000E+00 0.  1.
         -5    1    5    5    0  503 -0.46645880966E+02  0.42757390357E+01 -0.13690504768E+03  0.14477293337E+03  0.47000000000E+01 0.  1.
<mgrwt>
<rscale>  2 0.18053035E+03</rscale>
<asrwt>0</asrwt>
<pdfrwt beam="1">  1       21 0.15336061E-01 0.18100086E+03</pdfrwt>
<pdfrwt beam="2">  1       21 0.52522829E-01 0.18100086E+03</pdfrwt>
<totfact> 0.13002885E+05</totfact>
</mgrwt>
</event>
<event>
12    1  0.1473662E-001  0.2022936E+03  0.7546771E-02  0.1149154E+00
         21   -1    0    0  504  503  0.00000000000E+00  0.00000000000E+00  0.86022225521E+03  0.86022225521E+03  0.00000000000E+00 0. -1.
         21   -1    0    0  502  504 -0.00000000000E+00 -0.00000000000E+00 -0.16048945393E+03  0.16048945393E+03  0.00000000000E+00 0. -1.
          6    2    1    2  502    0 -0.26305466028E+02  0.87605349251E+02 -0.79394598365E+02  0.21731593277E+03  0.18043291725E+03 0.  0.
         24    2    3    3    0    0 -0.20871151281E+02  0.10299615133E+03  0.11864675438E+02  0.12448946230E+03  0.65673766121E+02 0.  0.
         -6    2    1    2    0  503  0.26305466028E+02 -0.87605349251E+02  0.77912739964E+03  0.80339577636E+03  0.17331645576E+03 0.  0.
        -24    2    5    5    0    0 -0.35201499367E+02 -0.20074518135E+00  0.30082662194E+03  0.31327701978E+03  0.80041544177E+02 0.  0.
          4    1    4    4  501    0 -0.25893928381E+02  0.37017804323E+02 -0.21899494068E+02  0.50203597523E+02  0.00000000000E+00 0. -1.
         -3    1    4    4    0  501  0.50227770995E+01  0.65978347007E+02  0.33764169505E+02  0.74285864779E+02  0.00000000000E+00 0.  1.
          5    1    3    3  502    0 -0.54343147468E+01 -0.15390802078E+02 -0.91259273802E+02  0.92826470472E+02  0.47000000000E+01 0. -1.
         11    1    6    6    0    0  0.19986034256E+02 -0.16525532948E+02  0.55056200861E+02  0.60858196307E+02  0.00000000000E+00 0. -1.
        -12    1    6    6    0    0 -0.55187533624E+02  0.16324787766E+02  0.24577042108E+03  0.25241882347E+03  0.00000000000E+00 0.  1.
         -5    1    5    5    0  503  0.61506965395E+02 -0.87404604069E+02  0.47830077770E+03  0.49011875658E+03  0.47000000000E+01 0.  1.
<mgrwt>
<rscale>  2 0.20069452E+03</rscale>
<asrwt>0</asrwt>
<pdfrwt beam="1">  1       21 0.13234188E+00 0.20229363E+03</pdfrwt>
<pdfrwt beam="2">  1       21 0.24690686E-01 0.20229363E+03</pdfrwt>
<totfact> 0.63601700E+03</totfact>
</mgrwt>
</event>
<event>
12    1  0.1473662E-001  0.1989302E+03  0.7546771E-02  0.1150971E+00
         21   -1    0    0  504  503  0.00000000000E+00  0.00000000000E+00  0.15548847176E+03  0.15548847176E+03  0.00000000000E+00 0. -1.
         21   -1    0    0  502  504 -0.00000000000E+00 -0.00000000000E+00 -0.56975949810E+03  0.56975949810E+03  0.00000000000E+00 0. -1.
          6    2    1    2  502    0  0.12206127155E+02  0.96907785464E+02 -0.47735037995E+03  0.51655624731E+03  0.17154259812E+03 0.  0.
         24    2    3    3    0    0  0.55457233104E+02  0.79818544326E+02 -0.43843308050E+03  0.45573399377E+03  0.77610581001E+02 0.  0.
         -6    2    1    2    0  503 -0.12206127155E+02 -0.96907785464E+02  0.63079353609E+02  0.20869172255E+03  0.17330066874E+03 0.  0.
        -24    2    5    5    0    0 -0.32623872750E+02 -0.13180232856E+03  0.45244276166E+02  0.16425419944E+03  0.80599172587E+02 0.  0.
          4    1    4    4  501    0 -0.33298408705E+01  0.56965719024E+02 -0.15004880388E+03  0.16053293908E+03  0.00000000000E+00 0. -1.
         -3    1    4    4    0  501  0.58787073975E+02  0.22852825302E+02 -0.28838427661E+03  0.29520105469E+03  0.00000000000E+00 0.  1.
          5    1    3    3  502    0 -0.43251105949E+02  0.17089241138E+02 -0.38917299452E+02  0.60822253536E+02  0.47000000000E+01 0. -1.
         11    1    6    6    0    0  0.96436121813E+01 -0.31236501115E+02 -0.18844638216E+02  0.37733786549E+02  0.00000000000E+00 0. -1.
        -12    1    6    6    0    0 -0.42267484931E+02 -0.10056582744E+03  0.64088914382E+02  0.12652041289E+03  0.00000000000E+00 0.  1.
         -5    1    5    5    0  503  0.20417745595E+02  0.34894543093E+02  0.17835077443E+02  0.44437523110E+02  0.47000000000E+01 0.  1.
<mgrwt>
<rscale>  2 0.19854669E+03</rscale>
<asrwt>0</asrwt>
<pdfrwt beam="1">  1       21 0.23921304E-01 0.19893021E+03</pdfrwt>
<pdfrwt beam="2">  1       21 0.87655306E-01 0.19893021E+03</pdfrwt>
<totfact> 0.18322941E+04</totfact>
</mgrwt>
</event>
<event>
12    1  0.1473662E-001  0.3117914E+03  0.7546771E-02  0.1079579E+00
         21   -1    0    0  504  503  0.00000000000E+00  0.00000000000E+00  0.13666735093E+04  0.13666735093E+04  0.00000000000E+00 0.  1.
         21   -1    0    0  502  504 -0.00000000000E+00 -0.00000000000E+00 -0.19589546055E+03  0.19589546055E+03  0.00000000000E+00 0. -1.
          6    2    1    2  502    0 -0.25736362795E+03 -0.28961214518E+02 -0.38287332870E+02  0.31413341384E+03  0.17360614301E+03 0.  0.
         24    2    3    3    0    0 -0.49090116402E+02 -0.34997910350E+02  0.73351377915E+01  0.10078441070E+03  0.80430093479E+02 0.  0.
         -6    2    1    2    0  503  0.25736362795E+03  0.28961214518E+02  0.12090653816E+04  0.12484355560E+04  0.17227144729E+03 0.  0.
        -24    2    5    5    0    0  0.14030981414E+03  0.30381085936E+02  0.95322707595E+03  0.96704802962E+03  0.77007655044E+02 0.  0.
          4    1    4    4  501    0 -0.56515887030E+02 -0.69167174695E+00  0.24630782969E+02  0.61653867407E+02  0.00000000000E+00 0. -1.
         -3    1    4    4    0  501  0.74257706279E+01 -0.34306238603E+02 -0.17295645177E+02  0.39130543296E+02  0.00000000000E+00 0.  1.
          5    1    3    3  502    0 -0.20827351155E+03  0.60366958323E+01 -0.45622470662E+02  0.21334900313E+03  0.47000000000E+01 0. -1.
         13    1    6    6    0    0  0.78320353153E+02 -0.20799157329E+02  0.41327198327E+03  0.42114179894E+03  0.00000000000E+00 0. -1.
        -14    1    6    6    0    0  0.61989460983E+02  0.51180243265E+02  0.53995509269E+03  0.54590623068E+03  0.00000000000E+00 0.  1.
         -5    1    5    5    0  503  0.11705381381E+03 -0.14198714181E+01  0.25583830563E+03  0.28138752636E+03  0.47000000000E+01 0.  1.
<mgrwt>
<rscale>  2 0.31160595E+03</rscale>
<asrwt>0</asrwt>
<pdfrwt beam="1">  1       21 0.21025746E+00 0.31179141E+03</pdfrwt>
<pdfrwt beam="2">  1       21 0.30137764E-01 0.31179141E+03</pdfrwt>
<totfact> 0.10987392E+03</totfact>
</mgrwt>
</event>
<event>
12    1  0.1473662E-001  0.1751610E+03  0.7546771E-02  0.1172871E+00
         21   -1    0    0  504  503  0.00000000000E+00  0.00000000000E+00  0.52137175624E+02  0.52137175624E+02  0.00000000000E+00 0.  1.
         21   -1    0    0  502  504 -0.00000000000E+00 -0.00000000000E+00 -0.87720121939E+03  0.87720121939E+03  0.00000000000E+00 0.  1.
          6    2    1    2  502    0  0.20095624957E+02 -0.21229875144E+02 -0.68190600115E+03  0.70404344260E+03  0.17270446700E+03 0.  0.
         24    2    3    3    0    0 -0.50174613740E+02  0.13656504809E+02 -0.34497791251E+03  0.35807004353E+03  0.80625082718E+02 0.  0.
         -6    2    1    2    0  503 -0.20095624957E+02  0.21229875144E+02 -0.14315804262E+03  0.22529495242E+03  0.17149066644E+03 0.  0.
        -24    2    5    5    0    0 -0.72462008233E+01  0.66585182391E+02 -0.41450039804E+02  0.11309504407E+03  0.81155956364E+02 0.  0.
          2    1    4    4  501    0 -0.53386653425E+02  0.29175488161E+02 -0.14212519148E+03  0.15459920416E+03  0.00000000000E+00 0. -1.
         -1    1    4    4    0  501  0.32120396855E+01 -0.15518983352E+02 -0.20285272103E+03  0.20347083937E+03  0.00000000000E+00 0.  1.
          5    1    3    3  502    0  0.70270238697E+02 -0.34886379953E+02 -0.33692808863E+03  0.34597339907E+03  0.47000000000E+01 0. -1.
         13    1    6    6    0    0  0.27401789442E+02  0.52299727701E+02 -0.46663275480E+02  0.75256766212E+02  0.00000000000E+00 0. -1.
        -14    1    6    6    0    0 -0.34647990265E+02  0.14285454690E+02  0.52132356762E+01  0.37838277859E+02  0.00000000000E+00 0.  1.
         -5    1    5    5    0  503 -0.12849424134E+02 -0.45355307247E+02 -0.10170800282E+03  0.11219990835E+03  0.47000000000E+01 0.  1.
<mgrwt>
<rscale>  2 0.17486106E+03</rscale>
<asrwt>0</asrwt>
<pdfrwt beam="1">  1       21 0.80211045E-02 0.17516100E+03</pdfrwt>
<pdfrwt beam="2">  1       21 0.13495402E+00 0.17516100E+03</pdfrwt>
<totfact> 0.47421271E+04</totfact>
</mgrwt>
</event>
<event>
12    1  0.1473662E-001  0.1821945E+03  0.7546771E-02  0.1165701E+00
         21   -1    0    0  504  503  0.00000000000E+00  0.00000000000E+00  0.30312921428E+02  0.30312921428E+02  0.00000000000E+00 0.  1.
         21   -1    0    0  502  504 -0.00000000000E+00 -0.00000000000E+00 -0.14002383266E+04  0.14002383266E+04  0.00000000000E+00 0.  1.
          6    2    1    2  502    0  0.57818734178E+02  0.69092259671E+01 -0.10189906419E+04  0.10351505977E+04  0.17263860560E+03 0.  0.
         24    2    3    3    0    0 -0.32747806772E+02 -0.91811516396E+01 -0.58914189485E+03  0.59554482663E+03  0.80179522694E+02 0.  0.
         -6    2    1    2    0  503 -0.57818734178E+02 -0.69092259671E+01 -0.35093476321E+03  0.39540065030E+03  0.17261437601E+03 0.  0.
        -24    2    5    5    0    0 -0.73624136709E+02  0.48377686172E+02 -0.18567206702E+03  0.22035693532E+03  0.79511939015E+02 0.  0.
          2    1    4    4  501    0 -0.25844090150E+02  0.33047284598E+02 -0.22307807717E+03  0.22698869692E+03  0.00000000000E+00 0. -1.
         -1    1    4    4    0  501 -0.69037166219E+01 -0.42228436237E+02 -0.36606381768E+03  0.36855612970E+03  0.00000000000E+00 0.  1.
          5    1    3    3  502    0  0.90566540949E+02  0.16090377607E+02 -0.42984874708E+03  0.43960577107E+03  0.47000000000E+01 0. -1.
         13    1    6    6    0    0 -0.29815996598E+02  0.65048542624E+02 -0.11899697447E+03  0.13885455154E+03  0.00000000000E+00 0. -1.
        -14    1    6    6    0    0 -0.43808140112E+02 -0.16670856452E+02 -0.66675092551E+02  0.81502383779E+02  0.00000000000E+00 0.  1.
         -5    1    5    5    0  503  0.15805402532E+02 -0.55286912139E+02 -0.16526269619E+03  0.17504371498E+03  0.47000000000E+01 0.  1.
<mgrwt>
<rscale>  2 0.18218875E+03</rscale>
<asrwt>0</asrwt>
<pdfrwt beam="1">  1       21 0.46635271E-02 0.18219449E+03</pdfrwt>
<pdfrwt beam="2">  1       21 0.21542125E+00 0.18219449E+03</pdfrwt>
<totfact> 0.32744818E+04</totfact>
</mgrwt>
</event>
<event>
12    1  0.1473662E-001  0.1895028E+03  0.7546771E-02  0.1159083E+00
         21   -1    0    0  504  503  0.00000000000E+00  0.00000000000E+00  0.86097791822E+02  0.86097791822E+02  0.00000000000E+00 0.  1.
         21   -1    0    0  502  504 -0.00000000000E+00 -0.00000000000E+00 -0.54765960389E+03  0.54765960389E+03  0.00000000000E+00 0. -1.
          6    2    1    2  502    0 -0.12073455129E+02 -0.78171594825E+02 -0.38683589475E+03  0.43075900987E+03  0.17220554160E+03 0.  0.
         24    2    3    3    0    0  0.45832938030E+02 -0.72413470676E+01 -0.24672686018E+03  0.26331683482E+03  0.79426171071E+02 0.  0.
         -6    2    1    2    0  503  0.12073455129E+02  0.78171594825E+02 -0.74725917323E+02  0.20299838585E+03  0.17137040404E+03 0.  0.
        -24    2    5    5    0    0  0.62189004088E+02  0.38902446758E+02 -0.86097905733E+02  0.13815205706E+03  0.79323823060E+02 0.  0.
          2    1    4    4  501    0  0.58902458326E+02 -0.20461073635E+01 -0.10119735088E+03  0.11710930782E+03  0.00000000000E+00 0. -1.
         -1    1    4    4    0  501 -0.13069520296E+02 -0.51952397042E+01 -0.14552950930E+03  0.14620752700E+03  0.00000000000E+00 0.  1.
          5    1    3    3  502    0 -0.57906393159E+02 -0.70930247758E+02 -0.14010903457E+03  0.16744217505E+03  0.47000000000E+01 0. -1.
         13    1    6    6    0    0 -0.94800729431E+01  0.25307445629E+02 -0.24066027276E+01  0.27131721728E+02  0.00000000000E+00 0. -1.
        -14    1    6    6    0    0  0.71669077031E+02  0.13595001129E+02 -0.83691303005E+02  0.11102033533E+03  0.00000000000E+00 0.  1.
         -5    1    5    5    0  503 -0.50115548958E+02  0.39269148068E+02  0.11371988410E+02  0.64846328792E+02  0.47000000000E+01 0.  1.
<mgrwt>
<rscale>  2 0.18931288E+03</rscale>
<asrwt>0</asrwt>
<pdfrwt beam="1">  1       21 0.13245814E-01 0.18950281E+03</pdfrwt>
<pdfrwt beam="2">  1       21 0.84255323E-01 0.18950281E+03</pdfrwt>
<totfact> 0.60171392E+04</totfact>
</mgrwt>
</event>
<event>
12    1  0.1473662E-001  0.2144103E+03  0.7546771E-02  0.1138221E+00
         21   -1    0    0  504  503  0.00000000000E+00  0.00000000000E+00  0.52410386602E+02  0.52410386602E+02  0.00000000000E+00 0. -1.
         21   -1    0    0  502  504 -0.00000000000E+00 -0.00000000000E+00 -0.10147701186E+04  0.10147701186E+04  0.00000000000E+00 0. -1.
          6    2    1    2  502    0  0.46261867031E+02 -0.11701366415E+03 -0.67969931489E+03  0.71271519883E+03  0.17360713706E+03 0.  0.
         24    2    3    3    0    0  0.50199564187E+01  0.59280136342E+01 -0.34800230728E+03  0.35654031737E+03  0.77168975152E+02 0.  0.
         -6    2    1    2    0  503 -0.46261867031E+02  0.11701366415E+03 -0.28266041715E+03  0.35446530642E+03  0.17296353399E+03 0.  0.
        -24    2    5    5    0    0 -0.37657774441E+02  0.14564335773E+03 -0.27402799029E+03  0.32299629695E+03  0.81272213899E+02 0.  0.
          2    1    4    4  501    0  0.37937604351E+02  0.36865386190E+00 -0.25331349109E+03  0.25613887346E+03  0.00000000000E+00 0. -1.
         -1    1    4    4    0  501 -0.32917647932E+02  0.55593597723E+01 -0.94688816188E+02  0.10040144390E+03  0.00000000000E+00 0.  1.
          5    1    3    3  502    0  0.41241910613E+02 -0.12294167779E+03 -0.33169700761E+03  0.35617488146E+03  0.47000000000E+01 0. -1.
         11    1    6    6    0    0 -0.49996434924E+02  0.40936891239E+02 -0.88114687730E+02  0.10926880050E+03  0.00000000000E+00 0. -1.
        -12    1    6    6    0    0  0.12338660483E+02  0.10470646649E+03 -0.18591330256E+03  0.21372749645E+03  0.00000000000E+00 0.  1.
         -5    1    5    5    0  503 -0.86040925904E+01 -0.28629693576E+02 -0.86324268570E+01  0.31469009469E+02  0.47000000000E+01 0.  1.
<mgrwt>
<rscale>  2 0.21428003E+03</rscale>
<asrwt>0</asrwt>
<pdfrwt beam="1">  1       21 0.80631359E-02 0.21441034E+03</pdfrwt>
<pdfrwt beam="2">  1       21 0.15611849E+00 0.21441034E+03</pdfrwt>
<totfact> 0.31400257E+04</totfact>
</mgrwt>
</event>
<event>
12    1  0.1473662E-001  0.1752044E+03  0.7546771E-02  0.1172927E+00
         21   -1    0    0  504  503  0.00000000000E+00  0.00000000000E+00  0.82532935958E+02  0.82532935958E+02  0.00000000000E+00 0. -1.
         21   -1    0    0  502  504 -0.00000000000E+00 -0.00000000000E+00 -0.53184745499E+03  0.53184745499E+03  0.00000000000E+00 0. -1.
          6    2    1    2  502    0  0.91901944140E+00  0.31777515823E+02 -0.39557325740E+03  0.43263701343E+03  0.17229604845E+03 0.  0.
         24    2    3    3    0    0  0.43129507048E+01  0.80617683148E+02 -0.19420333210E+03  0.22534780114E+03  0.80925180897E+02 0.  0.
         -6    2    1    2    0  503 -0.91901944140E+00 -0.31777515823E+02 -0.53741261632E+02  0.18174337752E+03  0.17068062855E+03 0.  0.
        -24    2    5    5    0    0  0.33214388643E+02 -0.14620904939E+02  0.26475211018E+02  0.92770284231E+02  0.81169097344E+02 0.  0.
          4    1    4    4  501    0  0.30325290009E+02  0.19954655738E+02 -0.25984726573E+02  0.44643224736E+02  0.00000000000E+00 0. -1.
         -3    1    4    4    0  501 -0.26012339304E+02  0.60663027410E+02 -0.16821860552E+03  0.18070457641E+03  0.00000000000E+00 0.  1.
          5    1    3    3  502    0 -0.33939312634E+01 -0.48840167325E+02 -0.20136992530E+03  0.20728921228E+03  0.47000000000E+01 0. -1.
         13    1    6    6    0    0 -0.26857032815E+01  0.28560246937E+02  0.22530788145E+02  0.36476528366E+02  0.00000000000E+00 0. -1.
        -14    1    6    6    0    0  0.35900091924E+02 -0.43181151876E+02  0.39444228728E+01  0.56293755864E+02  0.00000000000E+00 0.  1.
         -5    1    5    5    0  503 -0.34133408084E+02 -0.17156610884E+02 -0.80216472650E+02  0.88973093286E+02  0.47000000000E+01 0.  1.
<mgrwt>
<rscale>  2 0.17480596E+03</rscale>
<asrwt>0</asrwt>
<pdfrwt beam="1">  1       21 0.12697375E-01 0.17520440E+03</pdfrwt>
<pdfrwt beam="2">  1       21 0.81822686E-01 0.17520440E+03</pdfrwt>
<totfact> 0.69848466E+04</totfact>
</mgrwt>
</event>
<event>
12    1  0.1473662E-001  0.2426663E+03  0.7546771E-02  0.1118078E+00
         21   -1    0    0  504  503  0.00000000000E+00  0.00000000000E+00  0.20724819210E+03  0.20724819210E+03  0.00000000000E+00 0.  1.
         21   -1    0    0  502  504 -0.00000000000E+00 -0.00000000000E+00 -0.29508546614E+03  0.29508546614E+03  0.00000000000E+00 0. -1.
          6    2    1    2  502    0 -0.34332947166E+02 -0.16684672330E+03  0.51968494044E+01  0.24272191876E+03  0.17283038582E+03 0.  0.
         24    2    3    3    0    0 -0.11291881652E+01  0.41389743891E+01  0.16719847309E+02  0.68098129121E+02  0.65874089905E+02 0.  0.
         -6    2    1    2    0  503  0.34332947166E+02  0.16684672330E+03 -0.93034123451E+02  0.25961173948E+03  0.17241324431E+03 0.  0.
        -24    2    5    5    0    0  0.33653179333E+02  0.14797854256E+02 -0.50996602509E+02  0.10178726791E+03  0.80052991639E+02 0.  0.
          4    1    4    4  501    0  0.12184664320E+02 -0.73908884455E+01  0.37935851359E+02  0.40524314861E+02  0.00000000000E+00 0. -1.
         -3    1    4    4    0  501 -0.13313852485E+02  0.11529862835E+02 -0.21216004050E+02  0.27573814260E+02  0.00000000000E+00 0.  1.
          5    1    3    3  502    0 -0.33203759000E+02 -0.17098569769E+03 -0.11522997905E+02  0.17462378964E+03  0.47000000000E+01 0. -1.
         11    1    6    6    0    0 -0.14268190387E+02  0.32537756255E+02 -0.11975809385E+02  0.37492757294E+02  0.00000000000E+00 0. -1.
        -12    1    6    6    0    0  0.47921369720E+02 -0.17739902000E+02 -0.39020793123E+02  0.64294510612E+02  0.00000000000E+00 0.  1.
         -5    1    5    5    0  503  0.67976783223E+00  0.15204886904E+03 -0.42037520942E+02  0.15782447158E+03  0.47000000000E+01 0.  1.
<mgrwt>
<rscale>  2 0.24259201E+03</rscale>
<asrwt>0</asrwt>
<pdfrwt beam="1">  1       21 0.31884337E-01 0.24266628E+03</pdfrwt>
<pdfrwt beam="2">  1       21 0.45397764E-01 0.24266628E+03</pdfrwt>
<totfact> 0.43002742E+04</totfact>
</mgrwt>
</event>
<event>
12    1  0.1473662E-001  0.2787690E+03  0.7546771E-02  0.1096561E+00
         21   -1    0    0  504  503  0.00000000000E+00  0.00000000000E+00  0.69478324155E+02  0.69478324155E+02  0.00000000000E+00 0. -1.
         21   -1    0    0  502  504 -0.00000000000E+00 -0.00000000000E+00 -0.11130317146E+04  0.11130317146E+04  0.00000000000E+00 0.  1.
          6    2    1    2  502    0 -0.12529688329E+03  0.17720562238E+03 -0.52980171059E+03  0.59799916341E+03  0.17266153400E+03 0.  0.
         24    2    3    3    0    0 -0.10735887510E+03  0.63831876288E+02 -0.39063438886E+03  0.41754137921E+03  0.78390950338E+02 0.  0.
         -6    2    1    2    0  503  0.12529688329E+03 -0.17720562238E+03 -0.51375167983E+03  0.58451087532E+03  0.17496009053E+03 0.  0.
        -24    2    5    5    0    0  0.34278471499E+01 -0.11914566608E+03 -0.29590136368E+03  0.32818321248E+03  0.77065971996E+02 0.  0.
          2    1    4    4  501    0 -0.11606263710E+03  0.52335387287E+02 -0.30197432531E+03  0.32771637377E+03  0.00000000000E+00 0. -1.
         -1    1    4    4    0  501  0.87037619942E+01  0.11496489001E+02 -0.88660063554E+02  0.89825005436E+02  0.00000000000E+00 0.  1.
          5    1    3    3  502    0 -0.17938008188E+02  0.11337374609E+03 -0.13916732173E+03  0.18045778420E+03  0.47000000000E+01 0. -1.
         11    1    6    6    0    0  0.33691642831E+02 -0.23326046244E+02 -0.73953336183E+02  0.84547780353E+02  0.00000000000E+00 0. -1.
        -12    1    6    6    0    0 -0.30263795681E+02 -0.95819619839E+02 -0.22194802750E+03  0.24363543212E+03  0.00000000000E+00 0.  1.
         -5    1    5    5    0  503  0.12186903614E+03 -0.58059956297E+02 -0.21785031614E+03  0.25632766285E+03  0.47000000000E+01 0.  1.
<mgrwt>
<rscale>  2 0.27840913E+03</rscale>
<asrwt>0</asrwt>
<pdfrwt beam="1">  1       21 0.10688974E-01 0.27876903E+03</pdfrwt>
<pdfrwt beam="2">  1       21 0.17123564E+00 0.27876903E+03</pdfrwt>
<totfact> 0.14279637E+04</totfact>
</mgrwt>
</event>
<event>
12    1  0.1473662E-001  0.2402461E+03  0.7546771E-02  0.1119646E+00
         21   -1    0    0  504  503  0.00000000000E+00  0.00000000000E+00  0.10345766246E+04  0.10345766246E+04  0.00000000000E+00 0. -1.
         21   -1    0    0  502  504 -0.00000000000E+00 -0.00000000000E+00 -0.59753725066E+02  0.59753725066E+02  0.00000000000E+00 0.  1.
          6    2    1    2  502    0  0.16174872892E+03 -0.30875511517E+02  0.34594543966E+03  0.42112528259E+03  0.17479218488E+03 0.  0.
         24    2    3    3    0    0  0.10718469383E+03  0.40817773499E+02  0.13793880191E+03  0.19439634225E+03  0.74887753202E+02 0.  0.
         -6    2    1    2    0  503 -0.16174872892E+03  0.30875511517E+02  0.62887745983E+03  0.67320506703E+03  0.17493500015E+03 0.  0.
        -24    2    5    5    0    0 -0.11583393956E+03  0.13650692546E+02  0.59939558043E+03  0.61579310414E+03  0.79512529210E+02 0.  0.
          2    1    4    4  501    0  0.10487522012E+03  0.95991833331E+01  0.11206153652E+03  0.15378148161E+03  0.00000000000E+00 0. -1.
         -1    1    4    4    0  501  0.23094737100E+01  0.31218590166E+02  0.25877265389E+02  0.40614860640E+02  0.00000000000E+00 0.  1.
          5    1    3    3  502    0  0.54564035087E+02 -0.71693285017E+02  0.20800663775E+03  0.22672894034E+03  0.47000000000E+01 0. -1.
         11    1    6    6    0    0 -0.11778159793E+03 -0.89702143181E+01  0.51736825904E+03  0.53068152881E+03  0.00000000000E+00 0. -1.
        -12    1    6    6    0    0  0.19476583677E+01  0.22620906864E+02  0.82027321390E+02  0.85111575329E+02  0.00000000000E+00 0.  1.
         -5    1    5    5    0  503 -0.45914789363E+02  0.17224818971E+02  0.29481879400E+02  0.57411962898E+02  0.47000000000E+01 0.  1.
<mgrwt>
<rscale>  2 0.24022013E+03</rscale>
<asrwt>0</asrwt>
<pdfrwt beam="1">  1       21 0.15916562E+00 0.24024613E+03</pdfrwt>
<pdfrwt beam="2">  1       21 0.91928815E-02 0.24024613E+03</pdfrwt>
<totfact> 0.23324128E+04</totfact>
</mgrwt>
</event>
<event>
12    1  0.1473662E-001  0.2019907E+03  0.7546771E-02  0.1148227E+00
         21   -1    0    0  504  503  0.00000000000E+00  0.00000000000E+00  0.41814294118E+03  0.41814294118E+03  0.00000000000E+00 0. -1.
         21   -1    0    0  502  504 -0.00000000000E+00 -0.00000000000E+00 -0.20658536426E+03  0.20658536426E+03  0.00000000000E+00 0. -1.
          6    2    1    2  502    0  0.24171933605E+02 -0.10196240806E+03 -0.12141059257E+03  0.23567088447E+03  0.17268357990E+03 0.  0.
         24    2    3    3    0    0 -0.39575888369E+02 -0.78676710531E+02 -0.11385732641E+03  0.16722272638E+03  0.85109774534E+02 0.  0.
         -6    2    1    2    0  503 -0.24171933605E+02  0.10196240806E+03  0.33296816949E+03  0.38905742097E+03  0.17180587850E+03 0.  0.
        -24    2    5    5    0    0  0.27504521112E+02  0.72647264354E+02  0.99196550723E+02  0.14780839328E+03  0.77286750145E+02 0.  0.
          2    1    4    4  501    0 -0.40058297006E+02 -0.94518421911E+02 -0.11086408702E+03  0.15109349765E+03  0.00000000000E+00 0. -1.
         -1    1    4    4    0  501  0.48240863687E+00  0.15841711380E+02 -0.29932393833E+01  0.16129228733E+02  0.00000000000E+00 0.  1.
          5    1    3    3  502    0  0.63747821974E+02 -0.23285697526E+02 -0.75532661625E+01  0.68448158087E+02  0.47000000000E+01 0. -1.
         11    1    6    6    0    0  0.53948406910E+02  0.57759780314E+02  0.67639307326E+02  0.10402739411E+03  0.00000000000E+00 0. -1.
        -12    1    6    6    0    0 -0.26443885798E+02  0.14887484041E+02  0.31557243396E+02  0.43780999165E+02  0.00000000000E+00 0.  1.
         -5    1    5    5    0  503 -0.51676454717E+02  0.29315143703E+02  0.23377161876E+03  0.24124902769E+03  0.47000000000E+01 0.  1.
<mgrwt>
<rscale>  2 0.20180296E+03</rscale>
<asrwt>0</asrwt>
<pdfrwt beam="1">  1       21 0.64329683E-01 0.20199068E+03</pdfrwt>
<pdfrwt beam="2">  1       21 0.31782364E-01 0.20199068E+03</pdfrwt>
<totfact> 0.21101303E+04</totfact>
</mgrwt>
</event>
<event>
12    1  0.1473662E-001  0.1754998E+03  0.7546771E-02  0.1172558E+00
         21   -1    0    0  504  503  0.00000000000E+00  0.00000000000E+00  0.19878981954E+03  0.19878981954E+03  0.00000000000E+00 0.  1.
         21   -1    0    0  502  504 -0.00000000000E+00 -0.00000000000E+00 -0.41421150270E+03  0.41421150270E+03  0.00000000000E+00 0.  1.
          6    2    1    2  502    0  0.13990956821E+02  0.86498566662E+01 -0.35088855095E+03  0.39233017641E+03  0.17472728819E+03 0.  0.
         24    2    3    3    0    0 -0.10012393305E+02  0.20027144778E+02 -0.35507914536E+03  0.36503082507E+03  0.81639262817E+02 0.  0.
         -6    2    1    2    0  503 -0.13990956821E+02 -0.86498566662E+01  0.13546686780E+03  0.22067114583E+03  0.17341832497E+03 0.  0.
        -24    2    5    5    0    0  0.80505329379E+01  0.50758002493E+02  0.12281084620E+03  0.15588391033E+03  0.81093178855E+02 0.  0.
          4    1    4    4  501    0 -0.32770071645E+02 -0.20028088997E+02 -0.14967261199E+03  0.15452149599E+03  0.00000000000E+00 0. -1.
         -3    1    4    4    0  501  0.22757678340E+02  0.40055233776E+02 -0.20540653337E+03  0.21050932908E+03  0.00000000000E+00 0.  1.
          5    1    3    3  502    0  0.24003350126E+02 -0.11377288112E+02  0.41905944092E+01  0.27299351340E+02  0.47000000000E+01 0. -1.
         11    1    6    6    0    0  0.21470135766E+02  0.20411966944E+02  0.11882771920E+03  0.12246486016E+03  0.00000000000E+00 0. -1.
        -12    1    6    6    0    0 -0.13419602828E+02  0.30346035549E+02  0.39831270084E+01  0.33419050172E+02  0.00000000000E+00 0.  1.
         -5    1    5    5    0  503 -0.22041489759E+02 -0.59407859159E+02  0.12656021593E+02  0.64787235496E+02  0.47000000000E+01 0.  1.
<mgrwt>
<rscale>  2 0.17517313E+03</rscale>
<asrwt>0</asrwt>
<pdfrwt beam="1">  1       21 0.30583049E-01 0.17549984E+03</pdfrwt>
<pdfrwt beam="2">  1       21 0.63724846E-01 0.17549984E+03</pdfrwt>
<totfact> 0.23587409E+04</totfact>
</mgrwt>
</event>
<event>
12    1  0.1473662E-001  0.2303346E+03  0.7546771E-02  0.1126413E+00
         21   -1    0    0  504  503  0.00000000000E+00  0.00000000000E+00  0.85731013769E+03  0.85731013769E+03  0.00000000000E+00 0.  1.
         21   -1    0    0  502  504 -0.00000000000E+00 -0.00000000000E+00 -0.17488827428E+03  0.17488827428E+03  0.00000000000E+00 0.  1.
          6    2    1    2  502    0 -0.12976234326E+03 -0.76737885130E+02 -0.73658105602E+02  0.24182543682E+03  0.17414665266E+03 0.  0.
         24    2    3    3    0    0 -0.12630823767E+03 -0.77687994185E+02 -0.11197044835E+03  0.20305999913E+03  0.81894972985E+02 0.  0.
         -6    2    1    2    0  503  0.12976234326E+03  0.76737885130E+02  0.75607996901E+03  0.79037297514E+03  0.17408489753E+03 0.  0.
        -24    2    5    5    0    0  0.15784862500E+03  0.42742266242E+02  0.55379363012E+03  0.58328267062E+03  0.82390529434E+02 0.  0.
          2    1    4    4  501    0 -0.96209391858E+02 -0.94424104072E+02 -0.92632271238E+02  0.16356312600E+03  0.00000000000E+00 0. -1.
         -1    1    4    4    0  501 -0.30098845815E+02  0.16736109887E+02 -0.19338177109E+02  0.39496873135E+02  0.00000000000E+00 0.  1.
          5    1    3    3  502    0 -0.34541055869E+01  0.95010905446E+00  0.38312342746E+02  0.38765437690E+02  0.47000000000E+01 0. -1.
         13    1    6    6    0    0  0.36579413708E+02  0.15505171330E+02  0.47347997913E+02  0.61808549179E+02  0.00000000000E+00 0. -1.
        -14    1    6    6    0    0  0.12126921130E+03  0.27237094912E+02  0.50644563221E+03  0.52147412144E+03  0.00000000000E+00 0.  1.
         -5    1    5    5    0  503 -0.28086281743E+02  0.33995618889E+02  0.20228633889E+03  0.20709030453E+03  0.47000000000E+01 0.  1.
<mgrwt>
<rscale>  2 0.23032292E+03</rscale>
<asrwt>0</asrwt>
<pdfrwt beam="1">  1       21 0.13189387E+00 0.23033459E+03</pdfrwt>
<pdfrwt beam="2">  1       21 0.26905889E-01 0.23033459E+03</pdfrwt>
<totfact> 0.53272298E+03</totfact>
</mgrwt>
</event>
<event>
12    1  0.1473662E-001  0.1813765E+03  0.7546771E-02  0.1166713E+00
         21   -1    0    0  504  503  0.00000000000E+00  0.00000000000E+00  0.52859900807E+03  0.52859900807E+03  0.00000000000E+00 0.  1.
         21   -1    0    0  502  504 -0.00000000000E+00 -0.00000000000E+00 -0.78996481434E+02  0.78996481434E+02  0.00000000000E+00 0. -1.
          6    2    1    2  502    0 -0.20134732164E+02 -0.51197034782E+02  0.83947550241E+02  0.19986155955E+03  0.17283202245E+03 0.  0.
         24    2    3    3    0    0  0.45207229559E+02 -0.35998072372E+02  0.11608265795E+02  0.10109090351E+03  0.82128339319E+02 0.  0.
         -6    2    1    2    0  503  0.20134732164E+02  0.51197034782E+02  0.36565497640E+03  0.40773392996E+03  0.17180469162E+03 0.  0.
        -24    2    5    5    0    0  0.68424384471E+01  0.86109025937E+02  0.16211632012E+03  0.20074212626E+03  0.80957499303E+02 0.  0.
          4    1    4    4  501    0  0.20479624028E+02 -0.20167762396E+02 -0.35441432088E+02  0.45631663884E+02  0.00000000000E+00 0. -1.
         -3    1    4    4    0  501  0.24727605531E+02 -0.15830309976E+02  0.47049697883E+02  0.55459239628E+02  0.00000000000E+00 0.  1.
          5    1    3    3  502    0 -0.65341961723E+02 -0.15198962410E+02  0.72339284447E+02  0.98770656039E+02  0.47000000000E+01 0. -1.
         13    1    6    6    0    0  0.33718889783E+01  0.33982704789E+02  0.41976396703E+01  0.34406598769E+02  0.00000000000E+00 0. -1.
        -14    1    6    6    0    0  0.34705494688E+01  0.52126321149E+02  0.15791868045E+03  0.16633552749E+03  0.00000000000E+00 0.  1.
         -5    1    5    5    0  503  0.13292293717E+02 -0.34911991156E+02  0.20353865628E+03  0.20699180370E+03  0.47000000000E+01 0.  1.
<mgrwt>
<rscale>  2 0.18113138E+03</rscale>
<asrwt>0</asrwt>
<pdfrwt beam="1">  1       21 0.81322922E-01 0.18137655E+03</pdfrwt>
<pdfrwt beam="2">  1       21 0.12153305E-01 0.18137655E+03</pdfrwt>
<totfact> 0.76388323E+04</totfact>
</mgrwt>
</event>
<event>
12    1  0.1473662E-001  0.2092482E+03  0.7546771E-02  0.1142223E+00
         21   -1    0    0  504  503  0.00000000000E+00  0.00000000000E+00  0.11026713719E+03  0.11026713719E+03  0.00000000000E+00 0.  1.
         21   -1    0    0  502  504 -0.00000000000E+00 -0.00000000000E+00 -0.55402345564E+03  0.55402345564E+03  0.00000000000E+00 0.  1.
          6    2    1    2  502    0  0.50563795452E+02 -0.10661089413E+03 -0.39886836015E+03  0.45028186833E+03  0.17243900967E+03 0.  0.
         24    2    3    3    0    0  0.91127881642E+02 -0.85783181165E+02 -0.34857036768E+03  0.38222882459E+03  0.94522632931E+02 0.  0.
         -6    2    1    2    0  503 -0.50563795452E+02  0.10661089413E+03 -0.44887958301E+02  0.21400872450E+03  0.17280690150E+03 0.  0.
        -24    2    5    5    0    0 -0.93990668711E+02  0.43507820589E+02 -0.33318003417E+02  0.13639529095E+03  0.82258189772E+02 0.  0.
          2    1    4    4  501    0 -0.10239867639E+02 -0.25759996993E+02 -0.13972739702E+03  0.14245061535E+03  0.00000000000E+00 0. -1.
         -1    1    4    4    0  501  0.10136774928E+03 -0.60023184171E+02 -0.20884297066E+03  0.23977820924E+03  0.00000000000E+00 0.  1.
          5    1    3    3  502    0 -0.40564086190E+02 -0.20827712965E+02 -0.50297992465E+02  0.68053043737E+02  0.47000000000E+01 0. -1.
         11    1    6    6    0    0 -0.43813158762E+02 -0.10361728109E+02  0.16004038824E+02  0.47781665404E+02  0.00000000000E+00 0. -1.
        -12    1    6    6    0    0 -0.50177509949E+02  0.53869548698E+02 -0.49322042241E+02  0.88613625546E+02  0.00000000000E+00 0.  1.
         -5    1    5    5    0  503  0.43426873260E+02  0.63103073541E+02 -0.11569954884E+02  0.77613433550E+02  0.47000000000E+01 0.  1.
<mgrwt>
<rscale>  2 0.20917222E+03</rscale>
<asrwt>0</asrwt>
<pdfrwt beam="1">  1       21 0.16964175E-01 0.20924819E+03</pdfrwt>
<pdfrwt beam="2">  1       21 0.85234378E-01 0.20924819E+03</pdfrwt>
<totfact> 0.36962789E+04</totfact>
</mgrwt>
</event>
<event>
12    1  0.1473662E-001  0.2000222E+03  0.7546771E-02  0.1151790E+00
         21   -1    0    0  504  503  0.00000000000E+00  0.00000000000E+00  0.44293105224E+03  0.44293105224E+03  0.00000000000E+00 0.  1.
         21   -1    0    0  502  504 -0.00000000000E+00 -0.00000000000E+00 -0.15976622563E+03  0.15976622563E+03  0.00000000000E+00 0.  1.
          6    2    1    2  502    0  0.66158617284E+02  0.44833871416E+02 -0.64928932705E+02  0.20122731518E+03  0.17288616892E+03 0.  0.
         24    2    3    3    0    0  0.24678319645E+02  0.12237496575E+02 -0.10475447248E+03  0.13496041271E+03  0.80511103027E+02 0.  0.
         -6    2    1    2    0  503 -0.66158617284E+02 -0.44833871416E+02  0.34809375932E+03  0.40146996269E+03  0.18336255616E+03 0.  0.
        -24    2    5    5    0    0 -0.66864468312E+01  0.39357388151E+02  0.14933927512E+03  0.17752679527E+03  0.87291645495E+02 0.  0.
          4    1    4    4  501    0 -0.56571340387E+01 -0.29076514712E+02 -0.19432768033E+02  0.35427099045E+02  0.00000000000E+00 0. -1.
         -3    1    4    4    0  501  0.30335453684E+02  0.41314011287E+02 -0.85321704445E+02  0.99533313660E+02  0.00000000000E+00 0.  1.
          5    1    3    3  502    0  0.41480297639E+02  0.32596374841E+02  0.39825539772E+02  0.66266902471E+02  0.47000000000E+01 0. -1.
         11    1    6    6    0    0 -0.24403848453E+02  0.27565462391E+02  0.12257456280E+02  0.38802677364E+02  0.00000000000E+00 0. -1.
        -12    1    6    6    0    0  0.17717401622E+02  0.11791925760E+02  0.13708181884E+03  0.13872411791E+03  0.00000000000E+00 0.  1.
         -5    1    5    5    0  503 -0.59472170453E+02 -0.84191259567E+02  0.19875448420E+03  0.22394316743E+03  0.47000000000E+01 0.  1.
<mgrwt>
<rscale>  2 0.19758866E+03</rscale>
<asrwt>0</asrwt>
<pdfrwt beam="1">  1       21 0.68143239E-01 0.20002216E+03</pdfrwt>
<pdfrwt beam="2">  1       21 0.24579419E-01 0.20002216E+03</pdfrwt>
<totfact> 0.30629308E+04</totfact>
</mgrwt>
</event>
<event>
12    1  0.1473662E-001  0.2015709E+03  0.7546771E-02  0.1149216E+00
         21   -1    0    0  504  503  0.00000000000E+00  0.00000000000E+00  0.91829484237E+03  0.91829484237E+03  0.00000000000E+00 0.  1.
         21   -1    0    0  502  504 -0.00000000000E+00 -0.00000000000E+00 -0.64491952006E+02  0.64491952006E+02  0.00000000000E+00 0.  1.
          6    2    1    2  502    0 -0.22758916482E+02 -0.94743245937E+02  0.14875051345E+03  0.25051454475E+03  0.17645557783E+03 0.  0.
         24    2    3    3    0    0  0.52539242767E+01  0.16726994767E+02  0.56768278443E+02  0.10322858015E+03  0.84416267676E+02 0.  0.
         -6    2    1    2    0  503  0.22758916482E+02  0.94743245937E+02  0.70505237691E+03  0.73227224963E+03  0.17213233995E+03 0.  0.
        -24    2    5    5    0    0  0.19653417422E+02  0.34645057173E+02  0.16228511841E+03  0.18615887008E+03  0.82049548750E+02 0.  0.
          4    1    4    4  501    0  0.17012719801E+02  0.48949516140E+02  0.36518179095E+02  0.63396097434E+02  0.00000000000E+00 0. -1.
         -3    1    4    4    0  501 -0.11758795524E+02 -0.32222521373E+02  0.20250099348E+02  0.39832482717E+02  0.00000000000E+00 0.  1.
          5    1    3    3  502    0 -0.28012840759E+02 -0.11147024070E+03  0.91982235009E+02  0.14728596460E+03  0.47000000000E+01 0. -1.
         11    1    6    6    0    0  0.50466526301E+02  0.30254326799E+02  0.90880364970E+02  0.10826557765E+03  0.00000000000E+00 0. -1.
        -12    1    6    6    0    0 -0.30813108879E+02  0.43907303745E+01  0.71404753443E+02  0.77893292434E+02  0.00000000000E+00 0.  1.
         -5    1    5    5    0  503  0.31054990600E+01  0.60098188763E+02  0.54276725850E+03  0.54611337954E+03  0.47000000000E+01 0.  1.
<mgrwt>
<rscale>  2 0.20062081E+03</rscale>
<asrwt>0</asrwt>
<pdfrwt beam="1">  1       21 0.14127612E+00 0.20157089E+03</pdfrwt>
<pdfrwt beam="2">  1       21 0.99218394E-02 0.20157089E+03</pdfrwt>
<totfact> 0.28599093E+04</totfact>
</mgrwt>
</event>
<event>
12    1  0.1473662E-001  0.1925430E+03  0.7546771E-02  0.1156230E+00
         21   -1    0    0  504  503  0.00000000000E+00  0.00000000000E+00  0.84709940568E+02  0.84709940568E+02  0.00000000000E+00 0. -1.
         21   -1    0    0  502  504 -0.00000000000E+00 -0.00000000000E+00 -0.62290579171E+03  0.62290579171E+03  0.00000000000E+00 0. -1.
          6    2    1    2  502    0 -0.84168810377E+02 -0.85869679695E+01 -0.46218240221E+03  0.50061125583E+03  0.17274528039E+03 0.  0.
         24    2    3    3    0    0 -0.51065363384E+02  0.14033507341E+02 -0.44758679910E+03  0.45768520621E+03  0.79606498411E+02 0.  0.
         -6    2    1    2    0  503  0.84168810377E+02  0.85869679695E+01 -0.76013448933E+02  0.20700447645E+03  0.17295861988E+03 0.  0.
        -24    2    5    5    0    0  0.84415085382E+02  0.18484231290E+02 -0.11518040049E+03  0.16633315280E+03  0.83262354135E+02 0.  0.
          2    1    4    4  501    0 -0.39923752108E+02  0.31178343320E+02 -0.42153430915E+03  0.42456703695E+03  0.00000000000E+00 0. -1.
         -1    1    4    4    0  501 -0.11141611276E+02 -0.17144835979E+02 -0.26052489954E+02  0.33118169263E+02  0.00000000000E+00 0.  1.
          5    1    3    3  502    0 -0.33103446993E+02 -0.22620475311E+02 -0.14595603109E+02  0.42926049623E+02  0.47000000000E+01 0. -1.
         13    1    6    6    0    0  0.12486163021E+02 -0.19668746685E+02  0.22840499254E+01  0.23408988599E+02  0.00000000000E+00 0. -1.
        -14    1    6    6    0    0  0.71928922361E+02  0.38152977975E+02 -0.11746445042E+03  0.14292416420E+03  0.00000000000E+00 0.  1.
         -5    1    5    5    0  503 -0.24627500543E+00 -0.98972633209E+01  0.39166951560E+02  0.40671323646E+02  0.47000000000E+01 0.  1.
<mgrwt>
<rscale>  2 0.19249508E+03</rscale>
<asrwt>0</asrwt>
<pdfrwt beam="1">  1       21 0.13032298E-01 0.19254301E+03</pdfrwt>
<pdfrwt beam="2">  1       21 0.95831664E-01 0.19254301E+03</pdfrwt>
<totfact> 0.45934532E+04</totfact>
</mgrwt>
</event>
<event>
12    1  0.1473662E-001  0.2100520E+03  0.7546771E-02  0.1142187E+00
         21   -1    0    0  504  503  0.00000000000E+00  0.00000000000E+00  0.17414993737E+03  0.17414993737E+03  0.00000000000E+00 0.  1.
         21   -1    0    0  502  504 -0.00000000000E+00 -0.00000000000E+00 -0.17802516005E+04  0.17802516005E+04  0.00000000000E+00 0.  1.
          6    2    1    2  502    0  0.95508191275E+02 -0.68777179141E+02 -0.17083304079E+04  0.17207938515E+04  0.16996053083E+03 0.  0.
         24    2    3    3    0    0  0.11354089986E+03 -0.63310086209E+02 -0.16769803628E+04  0.16839159041E+04  0.80062049452E+02 0.  0.
         -6    2    1    2    0  503 -0.95508191275E+02  0.68777179141E+02  0.10222874473E+03  0.23360768636E+03  0.17398195282E+03 0.  0.
        -24    2    5    5    0    0 -0.12534981640E+03  0.82761762187E+02  0.62612892799E+02  0.18186218533E+03  0.81187402697E+02 0.  0.
          2    1    4    4  501    0  0.47449624838E+02 -0.47506788936E+02 -0.44235626507E+03  0.44742309634E+03  0.00000000000E+00 0. -1.
         -1    1    4    4    0  501  0.66091275019E+02 -0.15803297273E+02 -0.12346240977E+04  0.12364928077E+04  0.00000000000E+00 0.  1.
          5    1    3    3  502    0 -0.18032708582E+02 -0.54670929320E+01 -0.31350045069E+02  0.36877947472E+02  0.47000000000E+01 0. -1.
         11    1    6    6    0    0 -0.11443203208E+01  0.17271156640E+02 -0.13678220380E+02  0.22061188396E+02  0.00000000000E+00 0. -1.
        -12    1    6    6    0    0 -0.12420549607E+03  0.65490605547E+02  0.76291113179E+02  0.15980099693E+03  0.00000000000E+00 0.  1.
         -5    1    5    5    0  503  0.29841625121E+02 -0.13984583046E+02  0.39615851929E+02  0.51745501030E+02  0.47000000000E+01 0.  1.
<mgrwt>
<rscale>  2 0.20921737E+03</rscale>
<asrwt>0</asrwt>
<pdfrwt beam="1">  1       21 0.26792297E-01 0.21005198E+03</pdfrwt>
<pdfrwt beam="2">  1       21 0.27388487E+00 0.21005198E+03</pdfrwt>
<totfact> 0.62596942E+02</totfact>
</mgrwt>
</event>
<event>
12    1  0.1473662E-001  0.2441765E+03  0.7546771E-02  0.1117091E+00
         21   -1    0    0  504  503  0.00000000000E+00  0.00000000000E+00  0.46144748413E+03  0.46144748413E+03  0.00000000000E+00 0. -1.
         21   -1    0    0  502  504 -0.00000000000E+00 -0.00000000000E+00 -0.21919501930E+03  0.21919501930E+03  0.00000000000E+00 0. -1.
          6    2    1    2  502    0  0.13405032122E+03 -0.10795984487E+03 -0.97079695330E+02  0.26276728543E+03  0.17319746627E+03 0.  0.
         24    2    3    3    0    0  0.55075063217E+02 -0.21330327583E+02 -0.10585580506E+03  0.14512003835E+03  0.79788022939E+02 0.  0.
         -6    2    1    2    0  503 -0.13405032122E+03  0.10795984487E+03  0.33933216016E+03  0.41787521800E+03  0.17276737591E+03 0.  0.
        -24    2    5    5    0    0 -0.11054845958E+03  0.11677800119E+03  0.34743439464E+03  0.39108280145E+03  0.79856343090E+02 0.  0.
          4    1    4    4  501    0  0.74388487172E+02 -0.66036577098E+01 -0.84577018461E+02  0.11282963871E+03  0.00000000000E+00 0. -1.
         -3    1    4    4    0  501 -0.19313423955E+02 -0.14726669873E+02 -0.21278786597E+02  0.32290399648E+02  0.00000000000E+00 0.  1.
          5    1    3    3  502    0  0.78975258007E+02 -0.86629517286E+02  0.87761097280E+01  0.11764724708E+03  0.47000000000E+01 0. -1.
         11    1    6    6    0    0 -0.27518523728E+02  0.74782963195E+02  0.21447663157E+03  0.22880119367E+03  0.00000000000E+00 0. -1.
        -12    1    6    6    0    0 -0.83029935856E+02  0.41995037996E+02  0.13295776306E+03  0.16228160778E+03  0.00000000000E+00 0.  1.
         -5    1    5    5    0  503 -0.23501861641E+02 -0.88181563230E+01 -0.81022344783E+01  0.26792416559E+02  0.47000000000E+01 0.  1.
<mgrwt>
<rscale>  2 0.24410028E+03</rscale>
<asrwt>0</asrwt>
<pdfrwt beam="1">  1       21 0.70991921E-01 0.24417653E+03</pdfrwt>
<pdfrwt beam="2">  1       21 0.33722311E-01 0.24417653E+03</pdfrwt>
<totfact> 0.14760148E+04</totfact>
</mgrwt>
</event>
<event>
12    1  0.1473662E-001  0.2123091E+03  0.7546771E-02  0.1139957E+00
         21   -1    0    0  504  503  0.00000000000E+00  0.00000000000E+00  0.33420485261E+03  0.33420485261E+03  0.00000000000E+00 0.  1.
         21   -1    0    0  502  504 -0.00000000000E+00 -0.00000000000E+00 -0.20784692913E+03  0.20784692913E+03  0.00000000000E+00 0.  1.
          6    2    1    2  502    0  0.94025985325E+02 -0.77386443121E+02 -0.98046929703E+02  0.23385543010E+03  0.17391266277E+03 0.  0.
         24    2    3    3    0    0  0.90996000836E+02 -0.11624359258E+03 -0.62464788567E+02  0.18087205877E+03  0.83785481127E+02 0.  0.
         -6    2    1    2    0  503 -0.94025985325E+02  0.77386443121E+02  0.22440485318E+03  0.30819635164E+03  0.17262069847E+03 0.  0.
        -24    2    5    5    0    0 -0.86584799536E+02  0.28281357317E+02  0.65475212190E+02  0.14162083879E+03  0.86444756261E+02 0.  0.
          2    1    4    4  501    0 -0.60547854883E+01 -0.46862777614E+02 -0.34027671777E+02  0.58229398069E+02  0.00000000000E+00 0. -1.
         -1    1    4    4    0  501  0.97050786325E+02 -0.69380814970E+02 -0.28437116791E+02  0.12264266070E+03  0.00000000000E+00 0.  1.
          5    1    3    3  502    0  0.30299844886E+01  0.38857149462E+02 -0.35582141135E+02  0.52983371336E+02  0.47000000000E+01 0. -1.
         13    1    6    6    0    0 -0.12515843656E+02  0.23120463280E+02 -0.16483821349E+02  0.31030928619E+02  0.00000000000E+00 0. -1.
        -14    1    6    6    0    0 -0.74068955880E+02  0.51608940371E+01  0.81959033538E+02  0.11058991017E+03  0.00000000000E+00 0.  1.
         -5    1    5    5    0  503 -0.74411857893E+01  0.49105085804E+02  0.15892964099E+03  0.16657551286E+03  0.47000000000E+01 0.  1.
<mgrwt>
<rscale>  2 0.21204437E+03</rscale>
<asrwt>0</asrwt>
<pdfrwt beam="1">  1       21 0.51416131E-01 0.21230912E+03</pdfrwt>
<pdfrwt beam="2">  1       21 0.31976451E-01 0.21230912E+03</pdfrwt>
<totfact> 0.33458320E+04</totfact>
</mgrwt>
</event>
<event>
12    1  0.1473662E-001  0.1857487E+03  0.7546771E-02  0.1162356E+00
         21   -1    0    0  504  503  0.00000000000E+00  0.00000000000E+00  0.52377509557E+02  0.52377509557E+02  0.00000000000E+00 0. -1.
         21   -1    0    0  502  504 -0.00000000000E+00 -0.00000000000E+00 -0.71804352621E+03  0.71804352621E+03  0.00000000000E+00 0. -1.
          6    2    1    2  502    0  0.67881992865E+02 -0.54534718970E+01 -0.44358202224E+03  0.48089747176E+03  0.17279948662E+03 0.  0.
         24    2    3    3    0    0  0.78748190880E+02 -0.49851675032E+02 -0.22611187669E+03  0.25862595107E+03  0.84109064425E+02 0.  0.
         -6    2    1    2    0  503 -0.67881992865E+02  0.54534718970E+01 -0.22208399441E+03  0.28952356401E+03  0.17281460654E+03 0.  0.
        -24    2    5    5    0    0 -0.79732945982E+02  0.23069642762E+02 -0.67256177401E+02  0.13317613843E+03  0.79516912389E+02 0.  0.
          4    1    4    4  501    0  0.88319258179E+02 -0.63123911651E+02 -0.18695653435E+03  0.21618895745E+03  0.00000000000E+00 0. -1.
         -3    1    4    4    0  501 -0.95710672984E+01  0.13272236619E+02 -0.39155342337E+02  0.42436993621E+02  0.00000000000E+00 0.  1.
          5    1    3    3  502    0 -0.10866198015E+02  0.44398203135E+02 -0.21747014555E+03  0.22227152068E+03  0.47000000000E+01 0. -1.
         11    1    6    6    0    0 -0.10049725873E+02  0.41521436147E+02 -0.21866187859E+02  0.47991216085E+02  0.00000000000E+00 0. -1.
        -12    1    6    6    0    0 -0.69683220110E+02 -0.18451793385E+02 -0.45389989542E+02  0.85184922343E+02  0.00000000000E+00 0.  1.
         -5    1    5    5    0  503  0.11850953117E+02 -0.17616170865E+02 -0.15482781701E+03  0.15634742558E+03  0.47000000000E+01 0.  1.
<mgrwt>
<rscale>  2 0.18574522E+03</rscale>
<asrwt>0</asrwt>
<pdfrwt beam="1">  1       21 0.80580787E-02 0.18574874E+03</pdfrwt>
<pdfrwt beam="2">  1       21 0.11046823E+00 0.18574874E+03</pdfrwt>
<totfact> 0.76840972E+04</totfact>
</mgrwt>
</event>
<event>
12    1  0.1473662E-001  0.1878413E+03  0.7546771E-02  0.1160906E+00
         21   -1    0    0  504  503  0.00000000000E+00  0.00000000000E+00  0.23872378587E+03  0.23872378587E+03  0.00000000000E+00 0. -1.
         21   -1    0    0  502  504 -0.00000000000E+00 -0.00000000000E+00 -0.20187985238E+03  0.20187985238E+03  0.00000000000E+00 0. -1.
          6    2    1    2  502    0 -0.32294113864E+02 -0.66207637151E+02  0.13408518405E+03  0.22908482461E+03  0.17051292995E+03 0.  0.
         24    2    3    3    0    0 -0.51434205969E+02 -0.88547191588E+02  0.14692909426E+03  0.19664326411E+03  0.81205491800E+02 0.  0.
         -6    2    1    2    0  503  0.32294113864E+02  0.66207637151E+02 -0.97241250562E+02  0.21151881363E+03  0.17279463736E+03 0.  0.
        -24    2    5    5    0    0  0.32863811656E+01  0.83310949447E+02 -0.12283070194E+03  0.16896435594E+03  0.80684928200E+02 0.  0.
          4    1    4    4  501    0 -0.72291770865E+02 -0.77113421001E+02  0.10870278794E+03  0.15162082951E+03  0.00000000000E+00 0. -1.
         -3    1    4    4    0  501  0.20857564896E+02 -0.11433770587E+02  0.38226306318E+02  0.45022434607E+02  0.00000000000E+00 0.  1.
          5    1    3    3  502    0  0.19140092105E+02  0.22339554437E+02 -0.12843910213E+02  0.32441560502E+02  0.47000000000E+01 0. -1.
         13    1    6    6    0    0 -0.32545165699E+02  0.54517974042E+02 -0.97859534274E+02  0.11665284288E+03  0.00000000000E+00 0. -1.
        -14    1    6    6    0    0  0.35831546865E+02  0.28792975405E+02 -0.24971167668E+02  0.52311513055E+02  0.00000000000E+00 0.  1.
         -5    1    5    5    0  503  0.29007732699E+02 -0.17103312296E+02  0.25589451379E+02  0.42554457694E+02  0.47000000000E+01 0.  1.
<mgrwt>
<rscale>  2 0.18731488E+03</rscale>
<asrwt>0</asrwt>
<pdfrwt beam="1">  1       21 0.36726736E-01 0.18784128E+03</pdfrwt>
<pdfrwt beam="2">  1       21 0.31058439E-01 0.18784128E+03</pdfrwt>
<totfact> 0.71347594E+04</totfact>
</mgrwt>
</event>
<event>
12    1  0.1473662E-001  0.1915753E+03  0.7546771E-02  0.1157203E+00
         21   -1    0    0  504  503  0.00000000000E+00  0.00000000000E+00  0.34497328918E+03  0.34497328918E+03  0.00000000000E+00 0.  1.
         21   -1    0    0  502  504 -0.00000000000E+00 -0.00000000000E+00 -0.15745718266E+03  0.15745718266E+03  0.00000000000E+00 0.  1.
          6    2    1    2  502    0 -0.35801596245E+02 -0.72648744357E+02 -0.49734372605E+02  0.19792575321E+03  0.17361308020E+03 0.  0.
         24    2    3    3    0    0 -0.69930223077E+02 -0.97386540107E+02 -0.28289002613E+02  0.15039980659E+03  0.86287078175E+02 0.  0.
         -6    2    1    2    0  503  0.35801596245E+02  0.72648744357E+02  0.23725047912E+03  0.30450471863E+03  0.17284599929E+03 0.  0.
        -24    2    5    5    0    0  0.12909214415E+02  0.12127678419E+02  0.25087313653E+02  0.82644043086E+02  0.76726371937E+02 0.  0.
          2    1    4    4  501    0 -0.24713606924E+02 -0.43577886772E+02  0.30601408923E+02  0.58704691557E+02  0.00000000000E+00 0. -1.
         -1    1    4    4    0  501 -0.45216616152E+02 -0.53808653336E+02 -0.58890411536E+02  0.91695115033E+02  0.00000000000E+00 0.  1.
          5    1    3    3  502    0  0.34128626832E+02  0.24737795750E+02 -0.21445369992E+02  0.47525946620E+02  0.47000000000E+01 0. -1.
         13    1    6    6    0    0 -0.24088228725E+02 -0.14193606761E+02 -0.46846073148E+01  0.28348664549E+02  0.00000000000E+00 0. -1.
        -14    1    6    6    0    0  0.36997443140E+02  0.26321285180E+02  0.29771920968E+02  0.54295378538E+02  0.00000000000E+00 0.  1.
         -5    1    5    5    0  503  0.22892381829E+02  0.60521065938E+02  0.21216316547E+03  0.22186067554E+03  0.47000000000E+01 0.  1.
<mgrwt>
<rscale>  2 0.19140134E+03</rscale>
<asrwt>0</asrwt>
<pdfrwt beam="1">  1       21 0.53072814E-01 0.19157530E+03</pdfrwt>
<pdfrwt beam="2">  1       21 0.24224182E-01 0.19157530E+03</pdfrwt>
<totfact> 0.54121749E+04</totfact>
</mgrwt>
</event>
<event>
12    1  0.1473662E-001  0.1896045E+03  0.7546771E-02  0.1159988E+00
         21   -1    0    0  504  503  0.00000000000E+00  0.00000000000E+00  0.15123959991E+03  0.15123959991E+03  0.00000000000E+00 0. -1.
         21   -1    0    0  502  504 -0.00000000000E+00 -0.00000000000E+00 -0.38867719373E+03  0.38867719373E+03  0.00000000000E+00 0. -1.
          6    2    1    2  502    0  0.66008074679E+02  0.45553519277E+02 -0.28949662871E+03  0.34329528323E+03  0.16616607478E+03 0.  0.
         24    2    3    3    0    0  0.91330262307E+02 -0.66939056918E+01 -0.22928457225E+03  0.25951826761E+03  0.79951804015E+02 0.  0.
         -6    2    1    2    0  503 -0.66008074679E+02 -0.45553519277E+02  0.52059034897E+02  0.19662151042E+03  0.17180711918E+03 0.  0.
        -24    2    5    5    0    0 -0.10338750825E+03 -0.43708368309E+02  0.69593600354E+02  0.15502610656E+03  0.81181439882E+02 0.  0.
          2    1    4    4  501    0  0.94061899066E+02  0.18794219570E+02 -0.18233661037E+03  0.20602791807E+03  0.00000000000E+00 0. -1.
         -1    1    4    4    0  501 -0.27316367587E+01 -0.25488125262E+02 -0.46947961885E+02  0.53490349540E+02  0.00000000000E+00 0.  1.
          5    1    3    3  502    0 -0.25322187628E+02  0.52247424969E+02 -0.60212056461E+02  0.83777015615E+02  0.47000000000E+01 0. -1.
         11    1    6    6    0    0 -0.81108670532E+02 -0.50201668851E+02  0.16127951991E+02  0.96741587885E+02  0.00000000000E+00 0. -1.
        -12    1    6    6    0    0 -0.22278837720E+02  0.64933005425E+01  0.53465648363E+02  0.58284518673E+02  0.00000000000E+00 0.  1.
         -5    1    5    5    0  503  0.37379433573E+02 -0.18451509685E+01 -0.17534565457E+02  0.41595403858E+02  0.47000000000E+01 0.  1.
<mgrwt>
<rscale>  2 0.18831745E+03</rscale>
<asrwt>0</asrwt>
<pdfrwt beam="1">  1       21 0.23267631E-01 0.18960452E+03</pdfrwt>
<pdfrwt beam="2">  1       21 0.59796490E-01 0.18960452E+03</pdfrwt>
<totfact> 0.45390194E+04</totfact>
</mgrwt>
</event>
<event>
12    1  0.1473662E-001  0.1877796E+03  0.7546771E-02  0.1161112E+00
         21   -1    0    0  504  503  0.00000000000E+00  0.00000000000E+00  0.44295976735E+03  0.44295976735E+03  0.00000000000E+00 0.  1.
         21   -1    0    0  502  504 -0.00000000000E+00 -0.00000000000E+00 -0.10349984000E+03  0.10349984000E+03  0.00000000000E+00 0. -1.
          6    2    1    2  502    0 -0.74892622715E+02  0.15020904440E+02  0.36247570864E+02  0.19124609987E+03  0.17154198266E+03 0.  0.
         24    2    3    3    0    0 -0.40468442643E+02 -0.19509284187E+02 -0.38991304229E+02  0.10146672348E+03  0.82200165133E+02 0.  0.
         -6    2    1    2    0  503  0.74892622715E+02 -0.15020904440E+02  0.30321235649E+03  0.35521350748E+03  0.16853596133E+03 0.  0.
        -24    2    5    5    0    0 -0.72597516496E+01 -0.34433273921E+02  0.89176093348E+02  0.12508427283E+03  0.80345163744E+02 0.  0.
          2    1    4    4  501    0 -0.25436218394E+01  0.51013447730E+00 -0.55466054497E+02  0.55526691336E+02  0.00000000000E+00 0. -1.
         -1    1    4    4    0  501 -0.37924820804E+02 -0.20019418664E+02  0.16474750268E+02  0.45940032140E+02  0.00000000000E+00 0.  1.
          5    1    3    3  502    0 -0.34424180072E+02  0.34530188627E+02  0.75238875093E+02  0.89779376392E+02  0.47000000000E+01 0. -1.
         13    1    6    6    0    0 -0.19730766829E+02  0.72107336482E+01 -0.47931661775E+01  0.21546978475E+02  0.00000000000E+00 0. -1.
        -14    1    6    6    0    0  0.12471015179E+02 -0.41644007569E+02  0.93969259525E+02  0.10353729435E+03  0.00000000000E+00 0.  1.
         -5    1    5    5    0  503  0.82152374365E+02  0.19412369481E+02  0.21403626315E+03  0.23012923466E+03  0.47000000000E+01 0.  1.
<mgrwt>
<rscale>  2 0.18709032E+03</rscale>
<asrwt>0</asrwt>
<pdfrwt beam="1">  1       21 0.68147655E-01 0.18777962E+03</pdfrwt>
<pdfrwt beam="2">  1       21 0.15923053E-01 0.18777962E+03</pdfrwt>
<totfact> 0.69287076E+04</totfact>
</mgrwt>
</event>
<event>
12    1  0.1473662E-001  0.1862163E+03  0.7546771E-02  0.1162089E+00
         21   -1    0    0  504  503  0.00000000000E+00  0.00000000000E+00  0.25536168200E+03  0.25536168200E+03  0.00000000000E+00 0. -1.
         21   -1    0    0  502  504 -0.00000000000E+00 -0.00000000000E+00 -0.45188337114E+03  0.45188337114E+03  0.00000000000E+00 0. -1.
          6    2    1    2  502    0  0.23337346969E+02 -0.63690523027E+02 -0.39432246856E+03  0.43608109783E+03  0.17342260575E+03 0.  0.
         24    2    3    3    0    0  0.60786150207E+02 -0.22872894715E+02 -0.34946989576E+03  0.36465046762E+03  0.81379543640E+02 0.  0.
         -6    2    1    2    0  503 -0.23337346969E+02  0.63690523027E+02  0.19780077942E+03  0.27116395531E+03  0.17263727243E+03 0.  0.
        -24    2    5    5    0    0  0.39522479584E+02  0.72121995180E+02  0.15598118376E+03  0.19504946195E+03  0.83369984654E+02 0.  0.
          4    1    4    4  501    0  0.80244624550E+02 -0.10254638357E+02 -0.26790111919E+03  0.27984882891E+03  0.00000000000E+00 0. -1.
         -3    1    4    4    0  501 -0.19458474344E+02 -0.12618256358E+02 -0.81568776570E+02  0.84801638713E+02  0.00000000000E+00 0.  1.
          5    1    3    3  502    0 -0.37448803238E+02 -0.40817628312E+02 -0.44852572794E+02  0.71430630203E+02  0.47000000000E+01 0. -1.
         13    1    6    6    0    0  0.13581549692E+02  0.81492697740E+02  0.14161140055E+03  0.16394909894E+03  0.00000000000E+00 0. -1.
        -14    1    6    6    0    0  0.25940929893E+02 -0.93707025606E+01  0.14369783202E+02  0.31100363012E+02  0.00000000000E+00 0.  1.
         -5    1    5    5    0  503 -0.62859826553E+02 -0.84314721526E+01  0.41819595662E+02  0.76114493352E+02  0.47000000000E+01 0.  1.
<mgrwt>
<rscale>  2 0.18603325E+03</rscale>
<asrwt>0</asrwt>
<pdfrwt beam="1">  1       21 0.39286413E-01 0.18621631E+03</pdfrwt>
<pdfrwt beam="2">  1       21 0.69520519E-01 0.18621631E+03</pdfrwt>
<totfact> 0.11801062E+04</totfact>
</mgrwt>
</event>
<event>
12    1  0.1473662E-001  0.2251614E+03  0.7546771E-02  0.1130138E+00
         21   -1    0    0  504  503  0.00000000000E+00  0.00000000000E+00  0.79011834037E+02  0.79011834037E+02  0.00000000000E+00 0.  1.
         21   -1    0    0  502  504 -0.00000000000E+00 -0.00000000000E+00 -0.16171298632E+04  0.16171298632E+04  0.00000000000E+00 0.  1.
          6    2    1    2  502    0 -0.12157250521E+03 -0.76785665252E+02 -0.10997400439E+03  0.25035712365E+03  0.17294072774E+03 0.  0.
         24    2    3    3    0    0 -0.74088550650E+02 -0.80132161365E+02 -0.13899783023E+03  0.19440716885E+03  0.81015269357E+02 0.  0.
         -6    2    1    2    0  503  0.12157250521E+03  0.76785665252E+02 -0.14281440247E+04  0.14457845735E+04  0.17326790039E+03 0.  0.
        -24    2    5    5    0    0  0.12620503462E+03  0.38112026995E+02 -0.71960472898E+03  0.73615993033E+03  0.81977068093E+02 0.  0.
          4    1    4    4  501    0 -0.71161331628E+02 -0.91930945785E+02 -0.14027067530E+03  0.18218423714E+03  0.00000000000E+00 0. -1.
         -3    1    4    4    0  501 -0.29272190220E+01  0.11798784420E+02  0.12728450742E+01  0.12222931710E+02  0.00000000000E+00 0.  1.
          5    1    3    3  502    0 -0.47483954557E+02  0.33464961128E+01  0.29023825837E+02  0.55949954806E+02  0.47000000000E+01 0. -1.
         11    1    6    6    0    0  0.69132420669E+02 -0.21794387242E+02 -0.33078327211E+03  0.33863233751E+03  0.00000000000E+00 0. -1.
        -12    1    6    6    0    0  0.57072613953E+02  0.59906414237E+02 -0.38882145687E+03  0.39752759282E+03  0.00000000000E+00 0.  1.
         -5    1    5    5    0  503 -0.46325294149E+01  0.38673638257E+02 -0.70853929576E+03  0.70962464322E+03  0.47000000000E+01 0.  1.
<mgrwt>
<rscale>  2 0.22509850E+03</rscale>
<asrwt>0</asrwt>
<pdfrwt beam="1">  1       21 0.12155668E-01 0.22516145E+03</pdfrwt>
<pdfrwt beam="2">  1       21 0.24878919E+00 0.22516145E+03</pdfrwt>
<totfact> 0.37512767E+03</totfact>
</mgrwt>
</event>
<event>
12    1  0.1473662E-001  0.1940652E+03  0.7546771E-02  0.1155482E+00
         21   -1    0    0  504  503  0.00000000000E+00  0.00000000000E+00  0.64455002083E+03  0.64455002083E+03  0.00000000000E+00 0. -1.
         21   -1    0    0  502  504 -0.00000000000E+00 -0.00000000000E+00 -0.10812859238E+03  0.10812859238E+03  0.00000000000E+00 0. -1.
          6    2    1    2  502    0  0.78038600588E+02 -0.17048247292E+02  0.11932513653E+02  0.19443174163E+03  0.17686336917E+03 0.  0.
         24    2    3    3    0    0  0.22762522105E+02  0.32809155168E+02  0.58169816223E+02  0.10667535393E+03  0.80008315455E+02 0.  0.
         -6    2    1    2    0  503 -0.78038600588E+02  0.17048247292E+02  0.52448891480E+03  0.55824687158E+03  0.17369594687E+03 0.  0.
        -24    2    5    5    0    0 -0.11205166978E+03  0.32804160790E+02  0.47664789035E+03  0.49728794026E+03  0.80438762371E+02 0.  0.
          4    1    4    4  501    0  0.90062637508E+01  0.15591520291E+01 -0.19662542659E+02  0.21683157649E+02  0.00000000000E+00 0. -1.
         -3    1    4    4    0  501  0.13756258355E+02  0.31250003139E+02  0.77832358882E+02  0.84992196284E+02  0.00000000000E+00 0.  1.
          5    1    3    3  502    0  0.55276078482E+02 -0.49857402460E+02 -0.46237302570E+02  0.87756387696E+02  0.47000000000E+01 0. -1.
         13    1    6    6    0    0 -0.34782313087E+02  0.14478600748E+02  0.31438683007E+03  0.31663625519E+03  0.00000000000E+00 0. -1.
        -14    1    6    6    0    0 -0.77269356697E+02  0.18325560042E+02  0.16226106028E+03  0.18065168507E+03  0.00000000000E+00 0.  1.
         -5    1    5    5    0  503  0.34013069196E+02 -0.15755913498E+02  0.47841024453E+02  0.60958931314E+02  0.47000000000E+01 0.  1.
<mgrwt>
<rscale>  2 0.19334064E+03</rscale>
<asrwt>0</asrwt>
<pdfrwt beam="1">  1       21 0.99161540E-01 0.19406524E+03</pdfrwt>
<pdfrwt beam="2">  1       21 0.16635168E-01 0.19406524E+03</pdfrwt>
<totfact> 0.27168957E+04</totfact>
</mgrwt>
</event>
<event>
12    1  0.1473662E-001  0.2292182E+03  0.7546771E-02  0.1127377E+00
         21   -1    0    0  504  503  0.00000000000E+00  0.00000000000E+00  0.13187531876E+03  0.13187531876E+03  0.00000000000E+00 0.  1.
         21   -1    0    0  502  504 -0.00000000000E+00 -0.00000000000E+00 -0.49625889159E+03  0.49625889159E+03  0.00000000000E+00 0. -1.
          6    2    1    2  502    0 -0.35691164052E+02  0.14595787782E+03 -0.32327249861E+03  0.39629039328E+03  0.17309941121E+03 0.  0.
         24    2    3    3    0    0  0.34993211062E+02  0.52294600347E+02 -0.20748790505E+03  0.23137449794E+03  0.80769285668E+02 0.  0.
         -6    2    1    2    0  503  0.35691164052E+02 -0.14595787782E+03 -0.41111074225E+02  0.23184381706E+03  0.17170868877E+03 0.  0.
        -24    2    5    5    0    0  0.52001409495E+02 -0.14519767054E+03 -0.79644806597E+02  0.18973039222E+03  0.76601673570E+02 0.  0.
          2    1    4    4  501    0  0.45069553792E+01  0.39734544622E+02 -0.18978134173E+03  0.19394871578E+03  0.00000000000E+00 0. -1.
         -1    1    4    4    0  501  0.30486255683E+02  0.12560055725E+02 -0.17706563315E+02  0.37425782153E+02  0.00000000000E+00 0.  1.
          5    1    3    3  502    0 -0.70684375114E+02  0.93663277469E+02 -0.11578459356E+03  0.16491589534E+03  0.47000000000E+01 0. -1.
         11    1    6    6    0    0  0.35078963563E+02 -0.13542043072E+02 -0.64588080278E+01  0.38152808761E+02  0.00000000000E+00 0. -1.
        -12    1    6    6    0    0  0.16922445933E+02 -0.13165562747E+03 -0.73185998569E+02  0.15157758346E+03  0.00000000000E+00 0.  1.
         -5    1    5    5    0  503 -0.16310245444E+02 -0.76020727456E+00  0.38533732372E+02  0.42113424844E+02  0.47000000000E+01 0.  1.
<mgrwt>
<rscale>  2 0.22895561E+03</rscale>
<asrwt>0</asrwt>
<pdfrwt beam="1">  1       21 0.20288511E-01 0.22921817E+03</pdfrwt>
<pdfrwt beam="2">  1       21 0.76347521E-01 0.22921817E+03</pdfrwt>
<totfact> 0.33690858E+04</totfact>
</mgrwt>
</event>
<event>
12    1  0.1473662E-001  0.2384342E+03  0.7546771E-02  0.1121081E+00
         21   -1    0    0  504  503  0.00000000000E+00  0.00000000000E+00  0.91375120696E+02  0.91375120696E+02  0.00000000000E+00 0.  1.
         21   -1    0    0  502  504 -0.00000000000E+00 -0.00000000000E+00 -0.62487313879E+03  0.62487313879E+03  0.00000000000E+00 0. -1.
          6    2    1    2  502    0  0.15682173550E+03 -0.47138368839E+02 -0.30227688379E+03  0.38411259056E+03  0.17133617601E+03 0.  0.
         24    2    3    3    0    0  0.79544210768E+02  0.16471345345E+02 -0.75855318199E+02  0.13651043602E+03  0.79262116794E+02 0.  0.
         -6    2    1    2    0  503 -0.15682173550E+03  0.47138368839E+02 -0.23122113430E+03  0.33213566892E+03  0.17330841607E+03 0.  0.
        -24    2    5    5    0    0 -0.98008476355E+02  0.92275445716E+02 -0.19303979891E+03  0.24861166320E+03  0.80143470068E+02 0.  0.
          2    1    4    4  501    0 -0.47934741800E+01 -0.15614942479E+01  0.12233532076E+02  0.13231589702E+02  0.00000000000E+00 0. -1.
         -1    1    4    4    0  501  0.84337684948E+02  0.18032839593E+02 -0.88088850275E+02  0.12327884632E+03  0.00000000000E+00 0.  1.
          5    1    3    3  502    0  0.77277524735E+02 -0.63609714184E+02 -0.22642156560E+03  0.24760215454E+03  0.47000000000E+01 0. -1.
         11    1    6    6    0    0 -0.71964240404E+02  0.77552910065E+02 -0.82693178092E+02  0.13428129974E+03  0.00000000000E+00 0. -1.
        -12    1    6    6    0    0 -0.26044235951E+02  0.14722535650E+02 -0.11034662082E+03  0.11433036346E+03  0.00000000000E+00 0.  1.
         -5    1    5    5    0  503 -0.58813259149E+02 -0.45137076876E+02 -0.38181335385E+02  0.83524005725E+02  0.47000000000E+01 0.  1.
<mgrwt>
<rscale>  2 0.23807602E+03</rscale>
<asrwt>0</asrwt>
<pdfrwt beam="1">  1       21 0.14057711E-01 0.23843425E+03</pdfrwt>
<pdfrwt beam="2">  1       21 0.96134326E-01 0.23843425E+03</pdfrwt>
<totfact> 0.38854690E+04</totfact>
</mgrwt>
</event>
<event>
12    1  0.1473662E-001  0.2357657E+03  0.7546771E-02  0.1123218E+00
         21   -1    0    0  504  503  0.00000000000E+00  0.00000000000E+00  0.26850005392E+03  0.26850005392E+03  0.00000000000E+00 0. -1.
         21   -1    0    0  502  504 -0.00000000000E+00 -0.00000000000E+00 -0.21425032204E+03  0.21425032204E+03  0.00000000000E+00 0. -1.
          6    2    1    2  502    0 -0.52927954455E+02 -0.15529484308E+03 -0.25210585502E+02  0.23710973630E+03  0.16931508136E+03 0.  0.
         24    2    3    3    0    0 -0.17996338742E+02 -0.16555190726E+03 -0.51105040755E+02  0.19218715896E+03  0.81196531161E+02 0.  0.
         -6    2    1    2    0  503  0.52927954455E+02  0.15529484308E+03  0.79460317387E+02  0.24564063967E+03  0.16464363081E+03 0.  0.
        -24    2    5    5    0    0  0.58658906544E+02  0.29372267100E+02  0.56925002669E+02  0.11750294278E+03  0.79138411920E+02 0.  0.
          2    1    4    4  501    0 -0.28617770540E+02 -0.16480613803E+03 -0.60609656567E+02  0.17791450304E+03  0.00000000000E+00 0. -1.
         -1    1    4    4    0  501  0.10621431798E+02 -0.74576922825E+00  0.95046158120E+01  0.14272655916E+02  0.00000000000E+00 0.  1.
          5    1    3    3  502    0 -0.34931615713E+02  0.10257064177E+02  0.25894455253E+02  0.44922577338E+02  0.47000000000E+01 0. -1.
         13    1    6    6    0    0  0.37554415178E+02  0.52068519656E+02  0.57962340455E+02  0.86493339337E+02  0.00000000000E+00 0. -1.
        -14    1    6    6    0    0  0.21104491365E+02 -0.22696252556E+02 -0.10373377868E+01  0.31009603441E+02  0.00000000000E+00 0.  1.
         -5    1    5    5    0  503 -0.57309520893E+01  0.12592257598E+03  0.22535314719E+02  0.12813769689E+03  0.47000000000E+01 0.  1.
<mgrwt>
<rscale>  2 0.23492821E+03</rscale>
<asrwt>0</asrwt>
<pdfrwt beam="1">  1       21 0.41307701E-01 0.23576567E+03</pdfrwt>
<pdfrwt beam="2">  1       21 0.32961588E-01 0.23576567E+03</pdfrwt>
<totfact> 0.49026143E+04</totfact>
</mgrwt>
</event>
<event>
12    1  0.1473662E-001  0.2323190E+03  0.7546771E-02  0.1125230E+00
         21   -1    0    0  504  503  0.00000000000E+00  0.00000000000E+00  0.42428421054E+03  0.42428421054E+03  0.00000000000E+00 0.  1.
         21   -1    0    0  502  504 -0.00000000000E+00 -0.00000000000E+00 -0.13116815352E+03  0.13116815352E+03  0.00000000000E+00 0.  1.
          6    2    1    2  502    0  0.35613157139E+02 -0.15078040473E+03  0.19834942671E+03  0.30454833395E+03  0.17147642761E+03 0.  0.
         24    2    3    3    0    0 -0.56433877551E+01 -0.50954451988E+02  0.16355975373E+03  0.19097133503E+03  0.84202456984E+02 0.  0.
         -6    2    1    2    0  503 -0.35613157139E+02  0.15078040473E+03  0.94766630308E+02  0.25090403010E+03  0.17311583027E+03 0.  0.
        -24    2    5    5    0    0 -0.72378505218E+02  0.42774420252E+02  0.31295106108E+02  0.12026059212E+03  0.80093241324E+02 0.  0.
          4    1    4    4  501    0 -0.71771362727E+01  0.16842334497E+02  0.86082686983E+02  0.88007979835E+02  0.00000000000E+00 0. -1.
         -3    1    4    4    0  501  0.15337485176E+01 -0.67796786486E+02  0.77477066743E+02  0.10296335520E+03  0.00000000000E+00 0.  1.
          5    1    3    3  502    0  0.41256544894E+02 -0.99825952743E+02  0.34789672986E+02  0.11357699892E+03  0.47000000000E+01 0. -1.
         11    1    6    6    0    0 -0.75266946140E+02  0.61326004217E+02  0.23238850745E+02  0.99830036354E+02  0.00000000000E+00 0. -1.
        -12    1    6    6    0    0  0.28884409215E+01 -0.18551583964E+02  0.80562553632E+01  0.20430555769E+02  0.00000000000E+00 0.  1.
         -5    1    5    5    0  503  0.36765348079E+02  0.10800598448E+03  0.63471524200E+02  0.13064343798E+03  0.47000000000E+01 0.  1.
<mgrwt>
<rscale>  2 0.23201364E+03</rscale>
<asrwt>0</asrwt>
<pdfrwt beam="1">  1       21 0.65274493E-01 0.23231900E+03</pdfrwt>
<pdfrwt beam="2">  1       21 0.20179716E-01 0.23231900E+03</pdfrwt>
<totfact> 0.48116109E+04</totfact>
</mgrwt>
</event>
<event>
12    1  0.1473662E-001  0.2236910E+03  0.7546771E-02  0.1131339E+00
         21   -1    0    0  504  503  0.00000000000E+00  0.00000000000E+00  0.11318277762E+03  0.11318277762E+03  0.00000000000E+00 0.  1.
         21   -1    0    0  502  504 -0.00000000000E+00 -0.00000000000E+00 -0.10957021948E+04  0.10957021948E+04  0.00000000000E+00 0.  1.
          6    2    1    2  502    0 -0.12529778535E+03  0.64264572589E+02 -0.95921414068E+03  0.98495148311E+03  0.17380502319E+03 0.  0.
         24    2    3    3    0    0 -0.42343759501E+02  0.22370088184E+02 -0.75197541306E+03  0.75778084580E+03  0.80444848173E+02 0.  0.
         -6    2    1    2    0  503  0.12529778535E+03 -0.64264572589E+02 -0.23305276493E+02  0.22393348931E+03  0.17255028664E+03 0.  0.
        -24    2    5    5    0    0  0.17463685574E+02 -0.52020602706E+02  0.29827825096E+02  0.10300655121E+03  0.81911702604E+02 0.  0.
          4    1    4    4  501    0 -0.41528110283E+02  0.14125822085E+01 -0.15607822117E+03  0.16151467567E+03  0.00000000000E+00 0. -1.
         -3    1    4    4    0  501 -0.81564921730E+00  0.20957505976E+02 -0.59589719189E+03  0.59626617013E+03  0.00000000000E+00 0.  1.
          5    1    3    3  502    0 -0.82954025853E+02  0.41894484405E+02 -0.20723872762E+03  0.22717063731E+03  0.47000000000E+01 0. -1.
         13    1    6    6    0    0  0.83465031591E+00 -0.65246503778E+02 -0.13634164075E+01  0.65266084613E+02  0.00000000000E+00 0. -1.
        -14    1    6    6    0    0  0.16629035258E+02  0.13225901072E+02  0.31191241503E+02  0.37740466602E+02  0.00000000000E+00 0.  1.
         -5    1    5    5    0  503  0.10783409978E+03 -0.12243969883E+02 -0.53133101589E+02  0.12092693810E+03  0.47000000000E+01 0.  1.
<mgrwt>
<rscale>  2 0.22344721E+03</rscale>
<asrwt>0</asrwt>
<pdfrwt beam="1">  1       21 0.17412736E-01 0.22369098E+03</pdfrwt>
<pdfrwt beam="2">  1       21 0.16856956E+00 0.22369098E+03</pdfrwt>
<totfact> 0.63583764E+03</totfact>
</mgrwt>
</event>
<event>
12    1  0.1473662E-001  0.1857960E+03  0.7546771E-02  0.1162477E+00
         21   -1    0    0  504  503  0.00000000000E+00  0.00000000000E+00  0.20530442851E+03  0.20530442851E+03  0.00000000000E+00 0. -1.
         21   -1    0    0  502  504 -0.00000000000E+00 -0.00000000000E+00 -0.29010513797E+03  0.29010513797E+03  0.00000000000E+00 0. -1.
          6    2    1    2  502    0  0.61731949536E+02 -0.28746794429E+02 -0.20339244036E+03  0.27499141315E+03  0.17208887451E+03 0.  0.
         24    2    3    3    0    0  0.42159305211E+02 -0.19891973203E+02 -0.26367876206E+02  0.96606204748E+02  0.80401469429E+02 0.  0.
         -6    2    1    2    0  503 -0.61731949536E+02  0.28746794429E+02  0.11859173090E+03  0.22041815333E+03  0.17286686176E+03 0.  0.
        -24    2    5    5    0    0 -0.10866964545E+03  0.26931340988E+02  0.82549372285E+02  0.16102467908E+03  0.81118181927E+02 0.  0.
          4    1    4    4  501    0  0.54170353636E+02 -0.41483526479E+02 -0.19182185325E+02  0.70875005581E+02  0.00000000000E+00 0. -1.
         -3    1    4    4    0  501 -0.12011048426E+02  0.21591553276E+02 -0.71856908811E+01  0.25731199167E+02  0.00000000000E+00 0.  1.
          5    1    3    3  502    0  0.19572644326E+02 -0.88548212255E+01 -0.17702456415E+03  0.17838520840E+03  0.47000000000E+01 0. -1.
         13    1    6    6    0    0 -0.79596208193E+02  0.21869151946E+02  0.10556531178E+02  0.83218126127E+02  0.00000000000E+00 0. -1.
        -14    1    6    6    0    0 -0.29073437253E+02  0.50621890422E+01  0.71992841108E+02  0.77806552953E+02  0.00000000000E+00 0.  1.
         -5    1    5    5    0  503  0.46937695910E+02  0.18154534409E+01  0.36042358615E+02  0.59393474246E+02  0.47000000000E+01 0.  1.
<mgrwt>
<rscale>  2 0.18561485E+03</rscale>
<asrwt>0</asrwt>
<pdfrwt beam="1">  1       21 0.31585297E-01 0.18579603E+03</pdfrwt>
<pdfrwt beam="2">  1       21 0.44631560E-01 0.18579603E+03</pdfrwt>
<totfact> 0.46589613E+04</totfact>
</mgrwt>
</event>
<event>
12    1  0.1473662E-001  0.2104891E+03  0.7546771E-02  0.1141531E+00
         21   -1    0    0  504  503  0.00000000000E+00  0.00000000000E+00  0.14940556425E+03  0.14940556425E+03  0.00000000000E+00 0.  1.
         21   -1    0    0  502  504 -0.00000000000E+00 -0.00000000000E+00 -0.44846978627E+03  0.44846978627E+03  0.00000000000E+00 0.  1.
          6    2    1    2  502    0 -0.24945998453E+02  0.11493379213E+03 -0.32452805609E+03  0.38585160722E+03  0.17242657624E+03 0.  0.
         24    2    3    3    0    0 -0.43380003898E+02  0.14526897452E+03 -0.25495385257E+03  0.30760395140E+03  0.81448292063E+02 0.  0.
         -6    2    1    2    0  503  0.24945998453E+02 -0.11493379213E+03  0.25463834067E+02  0.21202374331E+03  0.17456683954E+03 0.  0.
        -24    2    5    5    0    0 -0.27016917541E+02 -0.36971300848E+02  0.62580378658E+02  0.11113755709E+03  0.79614457756E+02 0.  0.
          4    1    4    4  501    0  0.13989558872E+02  0.94363862309E+02 -0.14276326485E+03  0.17170205607E+03  0.00000000000E+00 0. -1.
         -3    1    4    4    0  501 -0.57369562770E+02  0.50905112207E+02 -0.11219058772E+03  0.13590189533E+03  0.00000000000E+00 0.  1.
          5    1    3    3  502    0  0.18434005444E+02 -0.30335182381E+02 -0.69574203515E+02  0.78247655821E+02  0.47000000000E+01 0. -1.
         13    1    6    6    0    0 -0.39851333303E+02 -0.16367619099E+02 -0.98718199751E+00  0.43092948951E+02  0.00000000000E+00 0. -1.
        -14    1    6    6    0    0  0.12834415762E+02 -0.20603681750E+02  0.63567560655E+02  0.68044608142E+02  0.00000000000E+00 0.  1.
         -5    1    5    5    0  503  0.51962915994E+02 -0.77962491286E+02 -0.37116544591E+02  0.10088618621E+03  0.47000000000E+01 0.  1.
<mgrwt>
<rscale>  2 0.21004480E+03</rscale>
<asrwt>0</asrwt>
<pdfrwt beam="1">  1       21 0.22985471E-01 0.21048910E+03</pdfrwt>
<pdfrwt beam="2">  1       21 0.68995352E-01 0.21048910E+03</pdfrwt>
<totfact> 0.33667336E+04</totfact>
</mgrwt>
</event>
<event>
12    1  0.1473662E-001  0.2624616E+03  0.7546771E-02  0.1105696E+00
         21   -1    0    0  504  503  0.00000000000E+00  0.00000000000E+00  0.65862324868E+03  0.65862324868E+03  0.00000000000E+00 0. -1.
         21   -1    0    0  502  504 -0.00000000000E+00 -0.00000000000E+00 -0.24346915694E+03  0.24346915694E+03  0.00000000000E+00 0.  1.
          6    2    1    2  502    0  0.52556723527E+02  0.18966738773E+03 -0.13317991596E+03  0.29418099518E+03  0.17340599977E+03 0.  0.
         24    2    3    3    0    0 -0.14459059273E+02  0.17394511025E+03 -0.89398409406E+02  0.21246676466E+03  0.81756251774E+02 0.  0.
         -6    2    1    2    0  503 -0.52556723527E+02 -0.18966738773E+03  0.54833400771E+03  0.60791141044E+03  0.17363804821E+03 0.  0.
        -24    2    5    5    0    0  0.95420342899E+01 -0.11503430166E+03  0.42773644081E+03  0.45301720009E+03  0.94563099617E+02 0.  0.
          2    1    4    4  501    0  0.10494656255E+02  0.13400922884E+02  0.12111730326E+02  0.20890585333E+02  0.00000000000E+00 0. -1.
         -1    1    4    4    0  501 -0.24953715529E+02  0.16054418737E+03 -0.10151013973E+03  0.19157617933E+03  0.00000000000E+00 0.  1.
          5    1    3    3  502    0  0.67015782801E+02  0.15722277472E+02 -0.43781506556E+02  0.81714230521E+02  0.47000000000E+01 0. -1.
         11    1    6    6    0    0  0.19610149083E+02 -0.12953697792E+03  0.38838163942E+03  0.40988374502E+03  0.00000000000E+00 0. -1.
        -12    1    6    6    0    0 -0.10068114793E+02  0.14502676258E+02  0.39354801386E+02  0.43133455070E+02  0.00000000000E+00 0.  1.
         -5    1    5    5    0  503 -0.62098757817E+02 -0.74633086065E+02  0.12059756690E+03  0.15489421035E+03  0.47000000000E+01 0.  1.
<mgrwt>
<rscale>  2 0.26242324E+03</rscale>
<asrwt>0</asrwt>
<pdfrwt beam="1">  1       21 0.10132665E+00 0.26246161E+03</pdfrwt>
<pdfrwt beam="2">  1       21 0.37456794E-01 0.26246161E+03</pdfrwt>
<totfact> 0.52116371E+03</totfact>
</mgrwt>
</event>
<event>
12    1  0.1473662E-001  0.1792103E+03  0.7546771E-02  0.1168771E+00
         21   -1    0    0  504  503  0.00000000000E+00  0.00000000000E+00  0.28085065936E+03  0.28085065936E+03  0.00000000000E+00 0.  1.
         21   -1    0    0  502  504 -0.00000000000E+00 -0.00000000000E+00 -0.15526186905E+03  0.15526186905E+03  0.00000000000E+00 0.  1.
          6    2    1    2  502    0  0.41092650154E+02  0.10016185188E+02 -0.49745069081E+02  0.18598632934E+03  0.17414767567E+03 0.  0.
         24    2    3    3    0    0  0.68947304321E+02  0.11505818176E+02  0.21530940461E+02  0.10930216995E+03  0.81223570062E+02 0.  0.
         -6    2    1    2    0  503 -0.41092650154E+02 -0.10016185188E+02  0.17533385940E+03  0.25012619907E+03  0.17329807658E+03 0.  0.
        -24    2    5    5    0    0 -0.62813993399E+01  0.45197153782E+02  0.15908378959E+03  0.18269852854E+03  0.77387735040E+02 0.  0.
          2    1    4    4  501    0  0.81780546347E+02 -0.90389737626E+01  0.11477488685E+02  0.83075228281E+02  0.00000000000E+00 0. -1.
         -1    1    4    4    0  501 -0.12833242026E+02  0.20544791938E+02  0.10053451776E+02  0.26226941669E+02  0.00000000000E+00 0.  1.
          5    1    3    3  502    0 -0.27854654167E+02 -0.14896329880E+01 -0.71276009542E+02  0.76684159391E+02  0.47000000000E+01 0. -1.
         11    1    6    6    0    0 -0.27903687794E+02  0.43289265832E+02  0.15099003889E+03  0.15953234209E+03  0.00000000000E+00 0. -1.
        -12    1    6    6    0    0  0.21622288454E+02  0.19078879507E+01  0.80937506976E+01  0.23166186453E+02  0.00000000000E+00 0.  1.
         -5    1    5    5    0  503 -0.34811250814E+02 -0.55213338970E+02  0.16250069811E+02  0.67427670524E+02  0.47000000000E+01 0.  1.
<mgrwt>
<rscale>  2 0.17900360E+03</rscale>
<asrwt>0</asrwt>
<pdfrwt beam="1">  1       21 0.43207794E-01 0.17921033E+03</pdfrwt>
<pdfrwt beam="2">  1       21 0.23886441E-01 0.17921033E+03</pdfrwt>
<totfact> 0.85533237E+04</totfact>
</mgrwt>
</event>
<event>
12    1  0.1473662E-001  0.1747855E+03  0.7546771E-02  0.1173344E+00
         21   -1    0    0  504  503  0.00000000000E+00  0.00000000000E+00  0.44021507277E+02  0.44021507277E+02  0.00000000000E+00 0. -1.
         21   -1    0    0  502  504 -0.00000000000E+00 -0.00000000000E+00 -0.87592090685E+03  0.87592090685E+03  0.00000000000E+00 0. -1.
          6    2    1    2  502    0  0.10829207571E+02 -0.21200988008E+02 -0.63061525162E+03  0.65438944932E+03  0.17315658282E+03 0.  0.
         24    2    3    3    0    0  0.22569914078E+02 -0.70992045696E+02 -0.52955149233E+03  0.54101852246E+03  0.82018211641E+02 0.  0.
         -6    2    1    2    0  503 -0.10829207571E+02  0.21200988008E+02 -0.20128414795E+03  0.26555296481E+03  0.17157014680E+03 0.  0.
        -24    2    5    5    0    0  0.49680951482E+02 -0.17761344926E+02 -0.14380631578E+03  0.17332859749E+03  0.81110319539E+02 0.  0.
          4    1    4    4  501    0  0.24692060180E+02 -0.48711403128E+02 -0.13218587257E+03  0.14302308743E+03  0.00000000000E+00 0. -1.
         -3    1    4    4    0  501 -0.21221461021E+01 -0.22280642568E+02 -0.39736561976E+03  0.39799543503E+03  0.00000000000E+00 0.  1.
          5    1    3    3  502    0 -0.11740706507E+02  0.49791057688E+02 -0.10106375929E+03  0.11337092686E+03  0.47000000000E+01 0. -1.
         13    1    6    6    0    0  0.20231697561E+02  0.24267726229E+02 -0.10307785816E+03  0.10781135824E+03  0.00000000000E+00 0. -1.
        -14    1    6    6    0    0  0.29449253921E+02 -0.42029071155E+02 -0.40728457614E+02  0.65517239245E+02  0.00000000000E+00 0.  1.
         -5    1    5    5    0  503 -0.60510159053E+02  0.38962332934E+02 -0.57477832174E+02  0.92224367321E+02  0.47000000000E+01 0.  1.
<mgrwt>
<rscale>  2 0.17439125E+03</rscale>
<asrwt>0</asrwt>
<pdfrwt beam="1">  1       21 0.67725408E-02 0.17478546E+03</pdfrwt>
<pdfrwt beam="2">  1       21 0.13475704E+00 0.17478546E+03</pdfrwt>
<totfact> 0.63780079E+04</totfact>
</mgrwt>
</event>
<event>
12    1  0.1473662E-001  0.2069095E+03  0.7546771E-02  0.1144468E+00
         21   -1    0    0  504  503  0.00000000000E+00  0.00000000000E+00  0.75216694598E+02  0.75216694598E+02  0.00000000000E+00 0.  1.
         21   -1    0    0  502  504 -0.00000000000E+00 -0.00000000000E+00 -0.73884002840E+03  0.73884002840E+03  0.00000000000E+00 0. -1.
          6    2    1    2  502    0  0.81145946134E+02  0.74565273153E+02 -0.52887549387E+03  0.56713871216E+03  0.17260471106E+03 0.  0.
         24    2    3    3    0    0  0.10197017453E+03  0.75086483549E+02 -0.52427830913E+03  0.54529508022E+03  0.80268814511E+02 0.  0.
         -6    2    1    2    0  503 -0.81145946134E+02 -0.74565273153E+02 -0.13474783994E+03  0.24691801084E+03  0.17511961391E+03 0.  0.
        -24    2    5    5    0    0 -0.96767592035E+02  0.32925158147E+01 -0.74615495889E+02  0.14719910629E+03  0.82007909000E+02 0.  0.
          2    1    4    4  501    0  0.61191431128E+02  0.67882393117E+02 -0.45885320919E+03  0.46786608995E+03  0.00000000000E+00 0. -1.
         -1    1    4    4    0  501  0.40778743404E+02  0.72040904315E+01 -0.65425099939E+02  0.77428990273E+02  0.00000000000E+00 0.  1.
          5    1    3    3  502    0 -0.20824228398E+02 -0.52121039565E+00 -0.45971847373E+01  0.21843631936E+02  0.47000000000E+01 0. -1.
         11    1    6    6    0    0 -0.22996774768E+02  0.37248401991E+02 -0.14340801002E+02  0.46064668391E+02  0.00000000000E+00 0. -1.
        -12    1    6    6    0    0 -0.73770817268E+02 -0.33955886176E+02 -0.60274694887E+02  0.10113443790E+03  0.00000000000E+00 0.  1.
         -5    1    5    5    0  503  0.15621645902E+02 -0.77857788968E+02 -0.60132344049E+02  0.99718904549E+02  0.47000000000E+01 0.  1.
<mgrwt>
<rscale>  2 0.20637637E+03</rscale>
<asrwt>0</asrwt>
<pdfrwt beam="1">  1       21 0.11571799E-01 0.20690946E+03</pdfrwt>
<pdfrwt beam="2">  1       21 0.11366770E+00 0.20690946E+03</pdfrwt>
<totfact> 0.37469261E+04</totfact>
</mgrwt>
</event>
<event>
12    1  0.1473662E-001  0.3121129E+03  0.7546771E-02  0.1079419E+00
         21   -1    0    0  504  503  0.00000000000E+00  0.00000000000E+00  0.69079894786E+03  0.69079894786E+03  0.00000000000E+00 0.  1.
         21   -1    0    0  502  504 -0.00000000000E+00 -0.00000000000E+00 -0.18936946202E+03  0.18936946202E+03  0.00000000000E+00 0. -1.
          6    2    1    2  502    0  0.12108841047E+03 -0.22910694886E+03  0.47400478916E+03  0.56753413355E+03  0.17395992482E+03 0.  0.
         24    2    3    3    0    0  0.10110641721E+03 -0.62834240429E+02  0.21423383959E+03  0.25842423423E+03  0.81953019711E+02 0.  0.
         -6    2    1    2    0  503 -0.12108841047E+03  0.22910694886E+03  0.27424696675E+02  0.31263427632E+03  0.17273007723E+03 0.  0.
        -24    2    5    5    0    0 -0.15339266296E+03  0.16849307846E+03  0.13742443177E+02  0.24244239592E+03  0.81671500868E+02 0.  0.
          4    1    4    4  501    0  0.95117149582E+02 -0.57607024084E+02  0.11904305874E+03  0.16290209085E+03  0.00000000000E+00 0. -1.
         -3    1    4    4    0  501  0.59892676273E+01 -0.52272163454E+01  0.95190780844E+02  0.95522143376E+02  0.00000000000E+00 0.  1.
          5    1    3    3  502    0  0.19981993258E+02 -0.16627270843E+03  0.25977094957E+03  0.30910989933E+03  0.47000000000E+01 0. -1.
         11    1    6    6    0    0 -0.56058710024E+02  0.12122451973E+03  0.13481983323E+02  0.13423757681E+03  0.00000000000E+00 0. -1.
        -12    1    6    6    0    0 -0.97333952940E+02  0.47268558731E+02  0.26045985406E+00  0.10820481911E+03  0.00000000000E+00 0.  1.
         -5    1    5    5    0  503  0.32304252498E+02  0.60613870399E+02  0.13682253499E+02  0.70191880406E+02  0.47000000000E+01 0.  1.
<mgrwt>
<rscale>  2 0.31194179E+03</rscale>
<asrwt>0</asrwt>
<pdfrwt beam="1">  1       21 0.10627676E+00 0.31211288E+03</pdfrwt>
<pdfrwt beam="2">  1       21 0.29133764E-01 0.31211288E+03</pdfrwt>
<totfact> 0.74576017E+03</totfact>
</mgrwt>
</event>
<event>
12    1  0.1473662E-001  0.2574493E+03  0.7546771E-02  0.1108852E+00
         21   -1    0    0  504  503  0.00000000000E+00  0.00000000000E+00  0.88391366633E+03  0.88391366633E+03  0.00000000000E+00 0. -1.
         21   -1    0    0  502  504 -0.00000000000E+00 -0.00000000000E+00 -0.84666182003E+02  0.84666182003E+02  0.00000000000E+00 0.  1.
          6    2    1    2  502    0  0.16999892979E+03 -0.84724382239E+02  0.23244708816E+03  0.34605046827E+03  0.17216683978E+03 0.  0.
         24    2    3    3    0    0  0.53392111230E+02  0.52935035138E+01  0.14818281344E+03  0.17627730230E+03  0.78973428346E+02 0.  0.
         -6    2    1    2    0  503 -0.16999892979E+03  0.84724382239E+02  0.56680039616E+03  0.62252938006E+03  0.17378804006E+03 0.  0.
        -24    2    5    5    0    0 -0.18612577503E+03  0.62563572396E+02  0.39430751202E+03  0.44780942782E+03  0.80609334988E+02 0.  0.
          2    1    4    4  501    0  0.29728779205E+02  0.27140456158E+02  0.13601903907E+03  0.14185056807E+03  0.00000000000E+00 0. -1.
         -1    1    4    4    0  501  0.23663332025E+02 -0.21846952644E+02  0.12163774373E+02  0.34426734224E+02  0.00000000000E+00 0.  1.
          5    1    3    3  502    0  0.11660681856E+03 -0.90017885753E+02  0.84264274716E+02  0.16977316597E+03  0.47000000000E+01 0. -1.
         11    1    6    6    0    0 -0.51600543868E+02 -0.72723148445E+01  0.16417104297E+03  0.17224295063E+03  0.00000000000E+00 0. -1.
        -12    1    6    6    0    0 -0.13452523116E+03  0.69835887241E+02  0.23013646905E+03  0.27556647719E+03  0.00000000000E+00 0.  1.
         -5    1    5    5    0  503  0.16126845237E+02  0.22160809843E+02  0.17249288414E+03  0.17471995224E+03  0.47000000000E+01 0.  1.
<mgrwt>
<rscale>  2 0.25717597E+03</rscale>
<asrwt>0</asrwt>
<pdfrwt beam="1">  1       21 0.13598671E+00 0.25744930E+03</pdfrwt>
<pdfrwt beam="2">  1       21 0.13025567E-01 0.25744930E+03</pdfrwt>
<totfact> 0.18797509E+04</totfact>
</mgrwt>
</event>
<event>
12    1  0.1473662E-001  0.2075045E+03  0.7546771E-02  0.1143575E+00
         21   -1    0    0  504  503  0.00000000000E+00  0.00000000000E+00  0.21855805801E+03  0.21855805801E+03  0.00000000000E+00 0.  1.
         21   -1    0    0  502  504 -0.00000000000E+00 -0.00000000000E+00 -0.44765783053E+03  0.44765783053E+03  0.00000000000E+00 0.  1.
          6    2    1    2  502    0  0.64899069940E+02 -0.93458778626E+02 -0.36385764399E+03  0.41886811259E+03  0.17352716813E+03 0.  0.
         24    2    3    3    0    0  0.65248012539E+02  0.34549293082E+01 -0.24063222263E+03  0.26202748324E+03  0.80531333836E+02 0.  0.
         -6    2    1    2    0  503 -0.64899069940E+02  0.93458778626E+02  0.13475787147E+03  0.24734777595E+03  0.17342089195E+03 0.  0.
        -24    2    5    5    0    0  0.30215783942E+02  0.57156298250E+02  0.59027271932E+02  0.12037565611E+03  0.82621085224E+02 0.  0.
          4    1    4    4  501    0 -0.15192318455E+02  0.15812214476E+02 -0.42269806899E+02  0.47619000849E+02  0.00000000000E+00 0. -1.
         -3    1    4    4    0  501  0.80440330993E+02 -0.12357285167E+02 -0.19836241573E+03  0.21440848239E+03  0.00000000000E+00 0.  1.
          5    1    3    3  502    0 -0.34894259855E+00 -0.96913707934E+02 -0.12322542136E+03  0.15684062935E+03  0.47000000000E+01 0. -1.
         13    1    6    6    0    0 -0.12503174750E+02  0.85508594730E+01 -0.15502080148E+02  0.21673972074E+02  0.00000000000E+00 0. -1.
        -14    1    6    6    0    0  0.42718958692E+02  0.48605438777E+02  0.74529352079E+02  0.98701684037E+02  0.00000000000E+00 0.  1.
         -5    1    5    5    0  503 -0.95114853882E+02  0.36302480376E+02  0.75730599535E+02  0.12697211984E+03  0.47000000000E+01 0.  1.
<mgrwt>
<rscale>  2 0.20748226E+03</rscale>
<asrwt>0</asrwt>
<pdfrwt beam="1">  1       21 0.33624317E-01 0.20750448E+03</pdfrwt>
<pdfrwt beam="2">  1       21 0.68870435E-01 0.20750448E+03</pdfrwt>
<totfact> 0.16210335E+04</totfact>
</mgrwt>
</event>
<event>
12    1  0.1473662E-001  0.1777019E+03  0.7546771E-02  0.1170137E+00
         21   -1    0    0  504  503  0.00000000000E+00  0.00000000000E+00  0.29319726520E+03  0.29319726520E+03  0.00000000000E+00 0. -1.
         21   -1    0    0  502  504 -0.00000000000E+00 -0.00000000000E+00 -0.17702211926E+03  0.17702211926E+03  0.00000000000E+00 0. -1.
          6    2    1    2  502    0 -0.41433842619E+02 -0.22777680858E+02 -0.89311762050E+02  0.19855258091E+03  0.17091211334E+03 0.  0.
         24    2    3    3    0    0 -0.46392375585E+02 -0.57457547004E+02 -0.11204934992E+03  0.15652439909E+03  0.80568036304E+02 0.  0.
         -6    2    1    2    0  503  0.41433842619E+02  0.22777680858E+02  0.20548690798E+03  0.27166680356E+03  0.17129622512E+03 0.  0.
        -24    2    5    5    0    0 -0.28752231297E+02 -0.22759029740E+02  0.68899844660E+02  0.11142388530E+03  0.79519993596E+02 0.  0.
          2    1    4    4  501    0 -0.22433462800E+02 -0.73804949686E+02 -0.96732437969E+02  0.12372386757E+03  0.00000000000E+00 0. -1.
         -1    1    4    4    0  501 -0.23958912786E+02  0.16347402683E+02 -0.15316911947E+02  0.32800531519E+02  0.00000000000E+00 0.  1.
          5    1    3    3  502    0  0.49585329661E+01  0.34679866145E+02  0.22737587866E+02  0.42028181818E+02  0.47000000000E+01 0. -1.
         11    1    6    6    0    0 -0.95351518059E+01  0.17284577761E+02 -0.90437836144E+01  0.21713262546E+02  0.00000000000E+00 0. -1.
        -12    1    6    6    0    0 -0.19217079491E+02 -0.40043607501E+02  0.77943628274E+02  0.89710622751E+02  0.00000000000E+00 0.  1.
         -5    1    5    5    0  503  0.70186073916E+02  0.45536710598E+02  0.13658706333E+03  0.16024291826E+03  0.47000000000E+01 0.  1.
<mgrwt>
<rscale>  2 0.17760932E+03</rscale>
<asrwt>0</asrwt>
<pdfrwt beam="1">  1       21 0.45107272E-01 0.17770195E+03</pdfrwt>
<pdfrwt beam="2">  1       21 0.27234172E-01 0.17770195E+03</pdfrwt>
<totfact> 0.61017087E+04</totfact>
</mgrwt>
</event>
<event>
12    1  0.1473662E-001  0.1812200E+03  0.7546771E-02  0.1166629E+00
         21   -1    0    0  504  503  0.00000000000E+00  0.00000000000E+00  0.57470344114E+02  0.57470344114E+02  0.00000000000E+00 0.  1.
         21   -1    0    0  502  504 -0.00000000000E+00 -0.00000000000E+00 -0.74844789100E+03  0.74844789100E+03  0.00000000000E+00 0.  1.
          6    2    1    2  502    0  0.19233332947E+02  0.48970567365E+02 -0.54147100211E+03  0.57099170589E+03  0.17341466058E+03 0.  0.
         24    2    3    3    0    0  0.72202007104E+02  0.66113061313E+02 -0.39518939137E+03  0.41440324788E+03  0.77274381887E+02 0.  0.
         -6    2    1    2    0  503 -0.19233332947E+02 -0.48970567365E+02 -0.14950654477E+03  0.23492652922E+03  0.17340769775E+03 0.  0.
        -24    2    5    5    0    0  0.21560509308E+02 -0.84029884972E+02 -0.13330184688E+03  0.17855299332E+03  0.81153631523E+02 0.  0.
          2    1    4    4  501    0  0.72830859010E+02  0.25385030168E+02 -0.31690656365E+03  0.32615717663E+03  0.00000000000E+00 0. -1.
         -1    1    4    4    0  501 -0.62885190599E+00  0.40728031146E+02 -0.78282827717E+02  0.88246071250E+02  0.00000000000E+00 0.  1.
          5    1    3    3  502    0 -0.52968674157E+02 -0.17142493949E+02 -0.14628161074E+03  0.15658845801E+03  0.47000000000E+01 0. -1.
         11    1    6    6    0    0 -0.84105026780E+01  0.23812501134E+01 -0.61918936515E+02  0.62532884201E+02  0.00000000000E+00 0. -1.
        -12    1    6    6    0    0  0.29971011986E+02 -0.86411135085E+02 -0.71382910368E+02  0.11602010911E+03  0.00000000000E+00 0.  1.
         -5    1    5    5    0  503 -0.40793842255E+02  0.35059317607E+02 -0.16204697889E+02  0.56373535907E+02  0.47000000000E+01 0.  1.
<mgrwt>
<rscale>  2 0.18121832E+03</rscale>
<asrwt>0</asrwt>
<pdfrwt beam="1">  1       21 0.88415905E-02 0.18121998E+03</pdfrwt>
<pdfrwt beam="2">  1       21 0.11514584E+00 0.18121998E+03</pdfrwt>
<totfact> 0.59228177E+04</totfact>
</mgrwt>
</event>
<event>
12    1  0.1473662E-001  0.2048753E+03  0.7546771E-02  0.1147837E+00
         21   -1    0    0  504  503  0.00000000000E+00  0.00000000000E+00  0.16834429257E+03  0.16834429257E+03  0.00000000000E+00 0. -1.
         21   -1    0    0  502  504 -0.00000000000E+00 -0.00000000000E+00 -0.27063971322E+03  0.27063971322E+03  0.00000000000E+00 0. -1.
          6    2    1    2  502    0  0.88235027497E+02  0.70831308556E+02 -0.12959646034E+03  0.24242341731E+03  0.17079630083E+03 0.  0.
         24    2    3    3    0    0  0.48183292739E+02  0.25177050245E+02 -0.14971381565E+03  0.17827319717E+03  0.80072421439E+02 0.  0.
         -6    2    1    2    0  503 -0.88235027497E+02 -0.70831308556E+02  0.27301039693E+02  0.19656058848E+03  0.15839262554E+03 0.  0.
        -24    2    5    5    0    0 -0.19987651513E+02 -0.85922226778E+02 -0.19964253020E+02  0.11205296730E+03  0.66144998416E+02 0.  0.
          4    1    4    4  501    0  0.22960125814E+02  0.42512332474E+02 -0.13675068700E+03  0.14503522395E+03  0.00000000000E+00 0. -1.
         -3    1    4    4    0  501  0.25223166925E+02 -0.17335282229E+02 -0.12963128645E+02  0.33237973222E+02  0.00000000000E+00 0.  1.
          5    1    3    3  502    0  0.40051734758E+02  0.45654258311E+02  0.20117355307E+02  0.64150220137E+02  0.47000000000E+01 0. -1.
         13    1    6    6    0    0 -0.20353613172E+02 -0.50380245353E+02  0.20608326168E+02  0.58113180935E+02  0.00000000000E+00 0. -1.
        -14    1    6    6    0    0  0.36596165830E+00 -0.35541981425E+02 -0.40572579188E+02  0.53939786369E+02  0.00000000000E+00 0.  1.
         -5    1    5    5    0  503 -0.68247375984E+02  0.15090918222E+02  0.47265292713E+02  0.84507621175E+02  0.47000000000E+01 0.  1.
<mgrwt>
<rscale>  2 0.20227105E+03</rscale>
<asrwt>0</asrwt>
<pdfrwt beam="1">  1       21 0.25899122E-01 0.20487526E+03</pdfrwt>
<pdfrwt beam="2">  1       21 0.41636879E-01 0.20487526E+03</pdfrwt>
<totfact> 0.78204840E+04</totfact>
</mgrwt>
</event>
<event>
12    1  0.1473662E-001  0.1813979E+03  0.7546771E-02  0.1166587E+00
         21   -1    0    0  504  503  0.00000000000E+00  0.00000000000E+00  0.15336757878E+03  0.15336757878E+03  0.00000000000E+00 0. -1.
         21   -1    0    0  502  504 -0.00000000000E+00 -0.00000000000E+00 -0.21391732244E+03  0.21391732244E+03  0.00000000000E+00 0. -1.
          6    2    1    2  502    0  0.47539481292E+02  0.23182497700E+02 -0.29284363731E+02  0.18321232422E+03  0.17295014110E+03 0.  0.
         24    2    3    3    0    0 -0.33672072485E+02  0.63581273357E+01  0.19271929561E+02  0.86992889992E+02  0.77602328519E+02 0.  0.
         -6    2    1    2    0  503 -0.47539481292E+02 -0.23182497700E+02 -0.31265379925E+02  0.18407257700E+03  0.17351587576E+03 0.  0.
        -24    2    5    5    0    0  0.64323176568E+01  0.45773024076E+02 -0.30302172365E+02  0.96375160657E+02  0.78951918901E+02 0.  0.
          2    1    4    4  501    0  0.18684608493E+02 -0.95355704495E+01  0.24234553025E+02  0.32052383042E+02  0.00000000000E+00 0. -1.
         -1    1    4    4    0  501 -0.52356680978E+02  0.15893697785E+02 -0.49626234643E+01  0.54940506950E+02  0.00000000000E+00 0.  1.
          5    1    3    3  502    0  0.81211553777E+02  0.16824370364E+02 -0.48556293292E+02  0.96219434229E+02  0.47000000000E+01 0. -1.
         13    1    6    6    0    0 -0.23438172645E+02  0.27955404118E+02 -0.45584442946E+02  0.58384878137E+02  0.00000000000E+00 0. -1.
        -14    1    6    6    0    0  0.29870490302E+02  0.17817619958E+02  0.15282270581E+02  0.37990282520E+02  0.00000000000E+00 0.  1.
         -5    1    5    5    0  503 -0.53971798949E+02 -0.68955521776E+02 -0.96320755970E+00  0.87697416347E+02  0.47000000000E+01 0.  1.
<mgrwt>
<rscale>  2 0.18126246E+03</rscale>
<asrwt>0</asrwt>
<pdfrwt beam="1">  1       21 0.23595012E-01 0.18139788E+03</pdfrwt>
<pdfrwt beam="2">  1       21 0.32910357E-01 0.18139788E+03</pdfrwt>
<totfact> 0.15083635E+05</totfact>
</mgrwt>
</event>
<event>
12    1  0.1473662E-001  0.3960065E+03  0.7546771E-02  0.1045426E+00
         21   -1    0    0  504  503  0.00000000000E+00  0.00000000000E+00  0.17621469024E+03  0.17621469024E+03  0.00000000000E+00 0. -1.
         21   -1    0    0  502  504 -0.00000000000E+00 -0.00000000000E+00 -0.15169742999E+04  0.15169742999E+04  0.00000000000E+00 0.  1.
          6    2    1    2  502    0 -0.34358213131E+03  0.94412623264E+02 -0.12160477818E+04  0.12780092536E+04  0.16605125766E+03 0.  0.
         24    2    3    3    0    0 -0.81373859880E+02  0.43287438723E+02 -0.44411131739E+03  0.46114025721E+03  0.83186340024E+02 0.  0.
         -6    2    1    2    0  503  0.34358213131E+03 -0.94412623264E+02 -0.12471182783E+03  0.41517973656E+03  0.17279684391E+03 0.  0.
        -24    2    5    5    0    0  0.35192695515E+03 -0.98264380956E+02 -0.98602661583E+02  0.38710393410E+03  0.81354167675E+02 0.  0.
          2    1    4    4  501    0 -0.46330340553E+02  0.27294158189E+02 -0.89270004228E+02  0.10421422735E+03  0.00000000000E+00 0. -1.
         -1    1    4    4    0  501 -0.35043519327E+02  0.15993280534E+02 -0.35484131316E+03  0.35692602986E+03  0.00000000000E+00 0.  1.
          5    1    3    3  502    0 -0.26220827143E+03  0.51125184542E+02 -0.77193646446E+03  0.81686899640E+03  0.47000000000E+01 0. -1.
         13    1    6    6    0    0  0.31169934854E+03 -0.70110102255E+02 -0.60999839841E+02  0.32525819095E+03  0.00000000000E+00 0. -1.
        -14    1    6    6    0    0  0.40227606604E+02 -0.28154278701E+02 -0.37602821741E+02  0.61845743145E+02  0.00000000000E+00 0.  1.
         -5    1    5    5    0  503 -0.83448238351E+01  0.38517576924E+01 -0.26109166246E+02  0.28075802468E+02  0.47000000000E+01 0.  1.
<mgrwt>
<rscale>  2 0.39528040E+03</rscale>
<asrwt>0</asrwt>
<pdfrwt beam="1">  1       21 0.27109953E-01 0.39600653E+03</pdfrwt>
<pdfrwt beam="2">  1       21 0.23338066E+00 0.39600653E+03</pdfrwt>
<totfact> 0.91741045E+02</totfact>
</mgrwt>
</event>
<event>
12    1  0.1473662E-001  0.2808550E+03  0.7546771E-02  0.1095614E+00
         21   -1    0    0  504  503  0.00000000000E+00  0.00000000000E+00  0.37019211644E+03  0.37019211644E+03  0.00000000000E+00 0.  1.
         21   -1    0    0  502  504 -0.00000000000E+00 -0.00000000000E+00 -0.58670169999E+03  0.58670169999E+03  0.00000000000E+00 0. -1.
          6    2    1    2  502    0  0.41210443059E+01  0.21852715141E+03 -0.49096290977E+03  0.56420543724E+03  0.17179085462E+03 0.  0.
         24    2    3    3    0    0 -0.29465335830E+02  0.18245762527E+03 -0.46788380987E+03  0.50958135374E+03  0.81233647618E+02 0.  0.
         -6    2    1    2    0  503 -0.41210443059E+01 -0.21852715141E+03  0.27445332621E+03  0.39268837919E+03  0.17637583727E+03 0.  0.
        -24    2    5    5    0    0  0.68555378859E+02 -0.76355283466E+02  0.10943370926E+03  0.16301847151E+03  0.63791190966E+02 0.  0.
          4    1    4    4  501    0 -0.78950998893E+01  0.16973852735E+03 -0.44213883365E+03  0.47366681168E+03  0.00000000000E+00 0. -1.
         -3    1    4    4    0  501 -0.21570235941E+02  0.12719097916E+02 -0.25744976217E+02  0.35914542052E+02  0.00000000000E+00 0.  1.
          5    1    3    3  502    0  0.33586380136E+02  0.36069526135E+02 -0.23079099906E+02  0.54624083505E+02  0.47000000000E+01 0. -1.
         13    1    6    6    0    0  0.18533342846E+02 -0.64251769269E+02  0.77879623222E+02  0.10264994089E+03  0.00000000000E+00 0. -1.
        -14    1    6    6    0    0  0.50022036014E+02 -0.12103514197E+02  0.31554086042E+02  0.60368530617E+02  0.00000000000E+00 0.  1.
         -5    1    5    5    0  503 -0.72676423165E+02 -0.14217186794E+03  0.16501961695E+03  0.22966990768E+03  0.47000000000E+01 0.  1.
<mgrwt>
<rscale>  2 0.28013815E+03</rscale>
<asrwt>0</asrwt>
<pdfrwt beam="1">  1       21 0.56952633E-01 0.28085501E+03</pdfrwt>
<pdfrwt beam="2">  1       21 0.90261800E-01 0.28085501E+03</pdfrwt>
<totfact> 0.28358947E+03</totfact>
</mgrwt>
</event>
<event>
12    1  0.1473662E-001  0.2041500E+03  0.7546771E-02  0.1146434E+00
         21   -1    0    0  504  503  0.00000000000E+00  0.00000000000E+00  0.39445724531E+02  0.39445724531E+02  0.00000000000E+00 0.  1.
         21   -1    0    0  502  504 -0.00000000000E+00 -0.00000000000E+00 -0.10933041352E+04  0.10933041352E+04  0.00000000000E+00 0.  1.
          6    2    1    2  502    0  0.68111507154E+02 -0.83224755727E+02 -0.41702110866E+03  0.46399059239E+03  0.17267057477E+03 0.  0.
         24    2    3    3    0    0  0.48842256087E+02 -0.75357640128E+02 -0.42434908734E+03  0.44142990055E+03  0.81999202852E+02 0.  0.
         -6    2    1    2    0  503 -0.68111507154E+02  0.83224755727E+02 -0.63683730199E+03  0.66875926732E+03  0.17352714786E+03 0.  0.
        -24    2    5    5    0    0  0.28981963600E+01  0.13165139845E+01 -0.14255375586E+03  0.16270625425E+03  0.78368482897E+02 0.  0.
          2    1    4    4  501    0  0.48414001670E+01  0.11182114956E+02 -0.14843126893E+03  0.14893058936E+03  0.00000000000E+00 0. -1.
         -1    1    4    4    0  501  0.44000855920E+02 -0.86539755085E+02 -0.27591781842E+03  0.29249931120E+03  0.00000000000E+00 0.  1.
          5    1    3    3  502    0  0.19269251067E+02 -0.78671155984E+01  0.73279786875E+01  0.22560691837E+02  0.47000000000E+01 0. -1.
         11    1    6    6    0    0  0.13670113731E+01  0.39067923290E+02 -0.88579625375E+02  0.96822112050E+02  0.00000000000E+00 0. -1.
        -12    1    6    6    0    0  0.15311849869E+01 -0.37751409305E+02 -0.53974130488E+02  0.65884142204E+02  0.00000000000E+00 0.  1.
         -5    1    5    5    0  503 -0.71009703514E+02  0.81908241742E+02 -0.49428354613E+03  0.50605301307E+03  0.47000000000E+01 0.  1.
<mgrwt>
<rscale>  2 0.20396783E+03</rscale>
<asrwt>0</asrwt>
<pdfrwt beam="1">  1       21 0.60685725E-02 0.20414997E+03</pdfrwt>
<pdfrwt beam="2">  1       21 0.16820065E+00 0.20414997E+03</pdfrwt>
<totfact> 0.42187911E+04</totfact>
</mgrwt>
</event>
<event>
12    1  0.1473662E-001  0.1795822E+03  0.7546771E-02  0.1168239E+00
         21   -1    0    0  504  503  0.00000000000E+00  0.00000000000E+00  0.85593109860E+02  0.85593109860E+02  0.00000000000E+00 0. -1.
         21   -1    0    0  502  504 -0.00000000000E+00 -0.00000000000E+00 -0.38721559657E+03  0.38721559657E+03  0.00000000000E+00 0. -1.
          6    2    1    2  502    0 -0.22472484052E+02 -0.41895236937E+02 -0.19016579485E+03  0.26155839817E+03  0.17317489051E+03 0.  0.
         24    2    3    3    0    0 -0.33990530497E+02 -0.88676538593E+02 -0.16350577323E+03  0.20629536956E+03  0.82490950779E+02 0.  0.
         -6    2    1    2    0  503  0.22472484052E+02  0.41895236937E+02 -0.11145669186E+03  0.21125030826E+03  0.17304298646E+03 0.  0.
        -24    2    5    5    0    0 -0.22236469606E+02  0.69130317370E+02 -0.26692596174E+02  0.11151224100E+03  0.80305814503E+02 0.  0.
          4    1    4    4  501    0 -0.53028837737E+02 -0.88890876775E+02 -0.11798090394E+03  0.15694948009E+03  0.00000000000E+00 0. -1.
         -3    1    4    4    0  501  0.19038307240E+02  0.21433818230E+00 -0.45524869292E+02  0.49345889469E+02  0.00000000000E+00 0.  1.
          5    1    3    3  502    0  0.11518046445E+02  0.46781301656E+02 -0.26660021621E+02  0.55263028612E+02  0.47000000000E+01 0. -1.
         11    1    6    6    0    0 -0.59962837713E+01  0.48658367102E+02 -0.54531864398E+02  0.73330187118E+02  0.00000000000E+00 0. -1.
        -12    1    6    6    0    0 -0.16240185835E+02  0.20471950268E+02  0.27839268223E+02  0.38182053886E+02  0.00000000000E+00 0.  1.
         -5    1    5    5    0  503  0.44708953658E+02 -0.27235080433E+02 -0.84764095681E+02  0.99738067257E+02  0.47000000000E+01 0.  1.
<mgrwt>
<rscale>  2 0.17955039E+03</rscale>
<asrwt>0</asrwt>
<pdfrwt beam="1">  1       21 0.13168171E-01 0.17958220E+03</pdfrwt>
<pdfrwt beam="2">  1       21 0.59571631E-01 0.17958220E+03</pdfrwt>
<totfact> 0.13128723E+05</totfact>
</mgrwt>
</event>
<event>
12    1  0.1473662E-001  0.2130678E+03  0.7546771E-02  0.1139227E+00
         21   -1    0    0  504  503  0.00000000000E+00  0.00000000000E+00  0.87738671067E+02  0.87738671067E+02  0.00000000000E+00 0. -1.
         21   -1    0    0  502  504 -0.00000000000E+00 -0.00000000000E+00 -0.60510590898E+03  0.60510590898E+03  0.00000000000E+00 0. -1.
          6    2    1    2  502    0 -0.11583747438E+03 -0.45080279676E+02 -0.39136964810E+03  0.44560977314E+03  0.17305292942E+03 0.  0.
         24    2    3    3    0    0 -0.49246706808E+02 -0.42574147299E+02 -0.35404351181E+03  0.36908564966E+03  0.81483816655E+02 0.  0.
         -6    2    1    2    0  503  0.11583747438E+03  0.45080279676E+02 -0.12599758981E+03  0.24723480690E+03  0.17262417276E+03 0.  0.
        -24    2    5    5    0    0  0.12839899942E+03  0.82449347613E+02 -0.95318943992E+02  0.19706002779E+03  0.80391265032E+02 0.  0.
          4    1    4    4  501    0 -0.63279920176E+02 -0.39500339328E+02 -0.34285638823E+03  0.35087765397E+03  0.00000000000E+00 0. -1.
         -3    1    4    4    0  501  0.14033213369E+02 -0.30738079705E+01 -0.11187123579E+02  0.18207995685E+02  0.00000000000E+00 0.  1.
          5    1    3    3  502    0 -0.66590767571E+02 -0.25061323769E+01 -0.37326136289E+02  0.76524123487E+02  0.47000000000E+01 0. -1.
         11    1    6    6    0    0  0.12378175873E+03  0.44096360119E+02 -0.59005920280E+02  0.14404204732E+03  0.00000000000E+00 0. -1.
        -12    1    6    6    0    0  0.46172406959E+01  0.38352987493E+02 -0.36313023712E+02  0.53017980464E+02  0.00000000000E+00 0.  1.
         -5    1    5    5    0  503 -0.12561525044E+02 -0.37369067937E+02 -0.30678645819E+02  0.50174779115E+02  0.47000000000E+01 0.  1.
<mgrwt>
<rscale>  2 0.21298068E+03</rscale>
<asrwt>0</asrwt>
<pdfrwt beam="1">  1       21 0.13498257E-01 0.21306776E+03</pdfrwt>
<pdfrwt beam="2">  1       21 0.93093214E-01 0.21306776E+03</pdfrwt>
<totfact> 0.45655242E+04</totfact>
</mgrwt>
</event>
<event>
12    1  0.1473662E-001  0.2473053E+03  0.7546771E-02  0.1115063E+00
         21   -1    0    0  504  503  0.00000000000E+00  0.00000000000E+00  0.10630163009E+03  0.10630163009E+03  0.00000000000E+00 0.  1.
         21   -1    0    0  502  504 -0.00000000000E+00 -0.00000000000E+00 -0.63503230236E+03  0.63503230236E+03  0.00000000000E+00 0. -1.
          6    2    1    2  502    0  0.72464246082E+02  0.15877545931E+03 -0.37846892311E+03  0.45195785189E+03  0.17483266481E+03 0.  0.
         24    2    3    3    0    0  0.48459378210E+02  0.13426425891E+03 -0.15408150930E+03  0.22491416864E+03  0.80436740300E+02 0.  0.
         -6    2    1    2    0  503 -0.72464246082E+02 -0.15877545931E+03 -0.15026174916E+03  0.28937608056E+03  0.17521189830E+03 0.  0.
        -24    2    5    5    0    0  0.10442361679E+02 -0.14099810764E+03 -0.96353822510E+02  0.18878932996E+03  0.79798763883E+02 0.  0.
          2    1    4    4  501    0  0.39038443588E+01 -0.61008133010E+01  0.44775420820E+01  0.85151809615E+01  0.00000000000E+00 0. -1.
         -1    1    4    4    0  501  0.44555533851E+02  0.14036507221E+03 -0.15855905138E+03  0.21639898768E+03  0.00000000000E+00 0.  1.
          5    1    3    3  502    0  0.24004867873E+02  0.24511200400E+02 -0.22438741382E+03  0.22704368325E+03  0.47000000000E+01 0. -1.
         13    1    6    6    0    0  0.18954557708E+01 -0.34504704585E+02 -0.71034706273E+02  0.78994283884E+02  0.00000000000E+00 0. -1.
        -14    1    6    6    0    0  0.85469059081E+01 -0.10649340305E+03 -0.25319116237E+02  0.10979504607E+03  0.00000000000E+00 0.  1.
         -5    1    5    5    0  503 -0.82906607761E+02 -0.17777351668E+02 -0.53907926647E+02  0.10058675061E+03  0.47000000000E+01 0.  1.
<mgrwt>
<rscale>  2 0.24723816E+03</rscale>
<asrwt>0</asrwt>
<pdfrwt beam="1">  1       21 0.16354096E-01 0.24730532E+03</pdfrwt>
<pdfrwt beam="2">  1       21 0.97697280E-01 0.24730532E+03</pdfrwt>
<totfact> 0.28227905E+04</totfact>
</mgrwt>
</event>
<event>
12    1  0.1473662E-001  0.1800075E+03  0.7546771E-02  0.1168844E+00
         21   -1    0    0  504  503  0.00000000000E+00  0.00000000000E+00  0.69887917804E+03  0.69887917804E+03  0.00000000000E+00 0.  1.
         21   -1    0    0  502  504 -0.00000000000E+00 -0.00000000000E+00 -0.11277088694E+03  0.11277088694E+03  0.00000000000E+00 0.  1.
          6    2    1    2  502    0 -0.17128997966E+01 -0.32561946834E+02 -0.22327934931E+02  0.17714447770E+03  0.17268009409E+03 0.  0.
         24    2    3    3    0    0 -0.15327592426E+02  0.43279591597E+02 -0.35535949599E+02  0.98825639235E+02  0.79972777356E+02 0.  0.
         -6    2    1    2    0  503  0.17128997966E+01  0.32561946834E+02  0.60843622603E+03  0.63450558728E+03  0.17702961541E+03 0.  0.
        -24    2    5    5    0    0 -0.54024913866E+02 -0.19024598505E+02  0.26633353434E+03  0.28404272592E+03  0.80412013806E+02 0.  0.
          4    1    4    4  501    0  0.75578480264E+01  0.19178283889E+02  0.23387370284E+02  0.31175258275E+02  0.00000000000E+00 0. -1.
         -3    1    4    4    0  501 -0.22885440453E+02  0.24101307709E+02 -0.58923319883E+02  0.67650380960E+02  0.00000000000E+00 0.  1.
          5    1    3    3  502    0  0.13614692630E+02 -0.75841538431E+02  0.13208014668E+02  0.78318838465E+02  0.47000000000E+01 0. -1.
         13    1    6    6    0    0  0.13516650390E+02  0.10995976283E+02  0.10688476638E+03  0.10829572760E+03  0.00000000000E+00 0. -1.
        -14    1    6    6    0    0 -0.67541564256E+02 -0.30020574787E+02  0.15944876796E+03  0.17574699832E+03  0.00000000000E+00 0.  1.
         -5    1    5    5    0  503  0.55737813663E+02  0.51586545338E+02  0.34210269169E+03  0.35046286136E+03  0.47000000000E+01 0.  1.
<mgrwt>
<rscale>  2 0.17892889E+03</rscale>
<asrwt>0</asrwt>
<pdfrwt beam="1">  1       21 0.10751987E+00 0.18000750E+03</pdfrwt>
<pdfrwt beam="2">  1       21 0.17349368E-01 0.18000750E+03</pdfrwt>
<totfact> 0.20900502E+04</totfact>
</mgrwt>
</event>
<event>
12    1  0.1473662E-001  0.1819396E+03  0.7546771E-02  0.1167181E+00
         21   -1    0    0  504  503  0.00000000000E+00  0.00000000000E+00  0.19834553742E+04  0.19834553742E+04  0.00000000000E+00 0.  1.
         21   -1    0    0  502  504 -0.00000000000E+00 -0.00000000000E+00 -0.27229216442E+02  0.27229216442E+02  0.00000000000E+00 0.  1.
          6    2    1    2  502    0 -0.49507721815E+02  0.17953517487E+02  0.34728370875E+03  0.39205608893E+03  0.17415125378E+03 0.  0.
         24    2    3    3    0    0 -0.57408332454E+02  0.64198105246E+01  0.96880797267E+02  0.14121918151E+03  0.84970805249E+02 0.  0.
         -6    2    1    2    0  503  0.49507721815E+02 -0.17953517487E+02  0.16089424490E+04  0.16186285017E+04  0.16878708194E+03 0.  0.
        -24    2    5    5    0    0 -0.28006902315E+02 -0.34861115899E+01  0.54511046025E+03  0.55186779139E+03  0.81339447668E+02 0.  0.
          2    1    4    4  501    0 -0.78400613956E+02  0.15420613644E+02  0.74836280357E+02  0.10947566146E+03  0.00000000000E+00 0. -1.
         -1    1    4    4    0  501  0.20992281502E+02 -0.90008031190E+01  0.22044516910E+02  0.31743520052E+02  0.00000000000E+00 0.  1.
          5    1    3    3  502    0  0.79006106388E+01  0.11533706963E+02  0.25040291148E+03  0.25083690742E+03  0.47000000000E+01 0. -1.
         11    1    6    6    0    0 -0.40500644578E+02 -0.34950564239E+01  0.53273051438E+03  0.53427925150E+03  0.00000000000E+00 0. -1.
        -12    1    6    6    0    0  0.12493742263E+02  0.89448340434E-02  0.12379945872E+02  0.17588539892E+02  0.00000000000E+00 0.  1.
         -5    1    5    5    0  503  0.77514624131E+02 -0.14467405897E+02  0.10638319887E+04  0.10667607103E+04  0.47000000000E+01 0.  1.
<mgrwt>
<rscale>  2 0.18064385E+03</rscale>
<asrwt>0</asrwt>
<pdfrwt beam="1">  1       21 0.30514687E+00 0.18193956E+03</pdfrwt>
<pdfrwt beam="2">  1       21 0.41891118E-02 0.18193956E+03</pdfrwt>
<totfact> 0.11699268E+04</totfact>
</mgrwt>
</event>
<event>
12    1  0.1473662E-001  0.1740439E+03  0.7546771E-02  0.1174935E+00
         21   -1    0    0  504  503  0.00000000000E+00  0.00000000000E+00  0.16769286570E+02  0.16769286570E+02  0.00000000000E+00 0.  1.
         21   -1    0    0  502  504 -0.00000000000E+00 -0.00000000000E+00 -0.18654128107E+04  0.18654128107E+04  0.00000000000E+00 0.  1.
          6    2    1    2  502    0 -0.66376842076E+01 -0.90640098507E+01 -0.11393897243E+04  0.11518861083E+04  0.16883852520E+03 0.  0.
         24    2    3    3    0    0 -0.15109818909E+02 -0.70028473910E+01 -0.11390443157E+04  0.11419747631E+04  0.80044111933E+02 0.  0.
         -6    2    1    2    0  503  0.66376842076E+01  0.90640098507E+01 -0.70925379987E+03  0.73029598898E+03  0.17368092517E+03 0.  0.
        -24    2    5    5    0    0  0.15776189975E+02 -0.38962381512E+02 -0.63074302063E+03  0.63768886716E+03  0.83924834745E+02 0.  0.
          2    1    4    4  501    0 -0.46558097861E+02 -0.15692269493E+02 -0.68506719870E+03  0.68682673982E+03  0.00000000000E+00 0. -1.
         -1    1    4    4    0  501  0.31448278952E+02  0.86894221017E+01 -0.45397711703E+03  0.45514802328E+03  0.00000000000E+00 0.  1.
          5    1    3    3  502    0  0.84721347014E+01 -0.20611624597E+01 -0.34540856373E+00  0.99113452245E+01  0.47000000000E+01 0. -1.
         13    1    6    6    0    0  0.20638754857E+02  0.63237169900E+01 -0.47325309712E+03  0.47374512296E+03  0.00000000000E+00 0. -1.
        -14    1    6    6    0    0 -0.48625648824E+01 -0.45286098502E+02 -0.15748992351E+03  0.16394374420E+03  0.00000000000E+00 0.  1.
         -5    1    5    5    0  503 -0.91385057670E+01  0.48026391362E+02 -0.78510779243E+02  0.92607121823E+02  0.47000000000E+01 0.  1.
<mgrwt>
<rscale>  2 0.17282311E+03</rscale>
<asrwt>0</asrwt>
<pdfrwt beam="1">  1       21 0.25798911E-02 0.17404390E+03</pdfrwt>
<pdfrwt beam="2">  1       21 0.28698649E+00 0.17404390E+03</pdfrwt>
<totfact> 0.33500755E+04</totfact>
</mgrwt>
</event>
<event>
12    1  0.1473662E-001  0.1818764E+03  0.7546771E-02  0.1166085E+00
         21   -1    0    0  504  503  0.00000000000E+00  0.00000000000E+00  0.15034919201E+03  0.15034919201E+03  0.00000000000E+00 0. -1.
         21   -1    0    0  502  504 -0.00000000000E+00 -0.00000000000E+00 -0.23157610439E+03  0.23157610439E+03  0.00000000000E+00 0.  1.
          6    2    1    2  502    0 -0.48474258328E+02  0.27183578359E+02 -0.84115603785E+02  0.20038576103E+03  0.17317712831E+03 0.  0.
         24    2    3    3    0    0  0.16510571378E+01  0.14295574725E+01  0.14411641467E+02  0.86783274706E+02  0.85550404644E+02 0.  0.
         -6    2    1    2    0  503  0.48474258328E+02 -0.27183578359E+02  0.28886914053E+01  0.18153953537E+03  0.17279918320E+03 0.  0.
        -24    2    5    5    0    0  0.79670349342E+02 -0.17491444682E+02  0.49400901131E+02  0.12450788448E+03  0.80052789238E+02 0.  0.
          4    1    4    4  501    0  0.80104371874E+01  0.29735913451E+02 -0.23718363673E+02  0.38870971534E+02  0.00000000000E+00 0. -1.
         -3    1    4    4    0  501 -0.63593800496E+01 -0.28306355978E+02  0.38130005139E+02  0.47912303173E+02  0.00000000000E+00 0.  1.
          5    1    3    3  502    0 -0.50125315466E+02  0.25754020886E+02 -0.98527245252E+02  0.11360248633E+03  0.47000000000E+01 0. -1.
         13    1    6    6    0    0  0.55000841526E+02 -0.76310087327E+01  0.71094033604E+02  0.90209126351E+02  0.00000000000E+00 0. -1.
        -14    1    6    6    0    0  0.24669507815E+02 -0.98604359491E+01 -0.21693132473E+02  0.34298758133E+02  0.00000000000E+00 0.  1.
         -5    1    5    5    0  503 -0.31196091013E+02 -0.96921336769E+01 -0.46512209725E+02  0.57031650890E+02  0.47000000000E+01 0.  1.
<mgrwt>
<rscale>  2 0.18178636E+03</rscale>
<asrwt>0</asrwt>
<pdfrwt beam="1">  1       21 0.23130645E-01 0.18187638E+03</pdfrwt>
<pdfrwt beam="2">  1       21 0.35627093E-01 0.18187638E+03</pdfrwt>
<totfact> 0.13387188E+05</totfact>
</mgrwt>
</event>
<event>
12    1  0.1473662E-001  0.1782009E+03  0.7546771E-02  0.1173184E+00
         21   -1    0    0  504  503  0.00000000000E+00  0.00000000000E+00  0.35499589675E+03  0.35499589675E+03  0.00000000000E+00 0.  1.
         21   -1    0    0  502  504 -0.00000000000E+00 -0.00000000000E+00 -0.14589943692E+03  0.14589943692E+03  0.00000000000E+00 0.  1.
          6    2    1    2  502    0 -0.20600085672E+02  0.10961571602E+02 -0.62929955477E+02  0.17569701615E+03  0.16237223471E+03 0.  0.
         24    2    3    3    0    0  0.46326680492E+02  0.20362635963E+02 -0.20739873775E+02  0.95886834880E+02  0.78761313284E+02 0.  0.
         -6    2    1    2    0  503  0.20600085672E+02 -0.10961571602E+02  0.27202641530E+03  0.32519831752E+03  0.17666650932E+03 0.  0.
        -24    2    5    5    0    0 -0.22364352723E+01 -0.15998649561E+02  0.38153884984E+02  0.90112526202E+02  0.80022434409E+02 0.  0.
          2    1    4    4  501    0 -0.67207300895E+01 -0.85602890894E+00  0.22971498303E+02  0.23949754335E+02  0.00000000000E+00 0. -1.
         -1    1    4    4    0  501  0.53047410581E+02  0.21218664872E+02 -0.43711372078E+02  0.71937080545E+02  0.00000000000E+00 0.  1.
          5    1    3    3  502    0 -0.66926766164E+02 -0.94010643615E+01 -0.42190081702E+02  0.79810181270E+02  0.47000000000E+01 0. -1.
         11    1    6    6    0    0  0.28764297530E+02 -0.11481871722E+02 -0.10103861469E+02  0.32577694934E+02  0.00000000000E+00 0. -1.
        -12    1    6    6    0    0 -0.31000732802E+02 -0.45167778389E+01  0.48257746453E+02  0.57534831268E+02  0.00000000000E+00 0.  1.
         -5    1    5    5    0  503  0.22836520944E+02  0.50370779589E+01  0.23387253032E+03  0.23508579132E+03  0.47000000000E+01 0.  1.
<mgrwt>
<rscale>  2 0.17455015E+03</rscale>
<asrwt>0</asrwt>
<pdfrwt beam="1">  1       21 0.54614753E-01 0.17820094E+03</pdfrwt>
<pdfrwt beam="2">  1       21 0.22446067E-01 0.17820094E+03</pdfrwt>
<totfact> 0.59225522E+04</totfact>
</mgrwt>
</event>
<event>
12    1  0.1473662E-001  0.1759095E+03  0.7546771E-02  0.1172070E+00
         21   -1    0    0  504  503  0.00000000000E+00  0.00000000000E+00  0.34535043446E+02  0.34535043446E+02  0.00000000000E+00 0.  1.
         21   -1    0    0  502  504 -0.00000000000E+00 -0.00000000000E+00 -0.98519552343E+03  0.98519552343E+03  0.00000000000E+00 0.  1.
          6    2    1    2  502    0  0.25428784224E+02 -0.14075838108E+02 -0.63423194883E+03  0.65817498174E+03  0.17349175598E+03 0.  0.
         24    2    3    3    0    0  0.11945791492E+02  0.54888407561E+02 -0.29097640555E+03  0.30776905105E+03  0.83060706591E+02 0.  0.
         -6    2    1    2    0  503 -0.25428784224E+02  0.14075838108E+02 -0.31642853116E+03  0.36155558514E+03  0.17248383555E+03 0.  0.
        -24    2    5    5    0    0  0.33057638523E+02 -0.17603492156E+02 -0.96015554198E+02  0.13127703202E+03  0.81314095255E+02 0.  0.
          2    1    4    4  501    0 -0.29499789881E+02  0.44082693182E+02 -0.11481164460E+03  0.12647227039E+03  0.00000000000E+00 0. -1.
         -1    1    4    4    0  501  0.41445581373E+02  0.10805714379E+02 -0.17616476095E+03  0.18129678066E+03  0.00000000000E+00 0.  1.
          5    1    3    3  502    0  0.13482992733E+02 -0.68964245669E+02 -0.34325554328E+03  0.35040593069E+03  0.47000000000E+01 0. -1.
         13    1    6    6    0    0  0.21115608849E+02 -0.16970172120E+02 -0.10976272023E+03  0.11305622686E+03  0.00000000000E+00 0. -1.
        -14    1    6    6    0    0  0.11942029674E+02 -0.63332003573E+00  0.13747166030E+02  0.18220805165E+02  0.00000000000E+00 0.  1.
         -5    1    5    5    0  503 -0.58486422747E+02  0.31679330264E+02 -0.22041297696E+03  0.23027855312E+03  0.47000000000E+01 0.  1.
<mgrwt>
<rscale>  2 0.17566044E+03</rscale>
<asrwt>0</asrwt>
<pdfrwt beam="1">  1       21 0.53130837E-02 0.17590947E+03</pdfrwt>
<pdfrwt beam="2">  1       21 0.15156854E+00 0.17590947E+03</pdfrwt>
<totfact> 0.71184709E+04</totfact>
</mgrwt>
</event>
<event>
12    1  0.1473662E-001  0.1948893E+03  0.7546771E-02  0.1154169E+00
         21   -1    0    0  504  503  0.00000000000E+00  0.00000000000E+00  0.37476473796E+02  0.37476473796E+02  0.00000000000E+00 0. -1.
         21   -1    0    0  502  504 -0.00000000000E+00 -0.00000000000E+00 -0.11328799584E+04  0.11328799584E+04  0.00000000000E+00 0.  1.
          6    2    1    2  502    0 -0.44831377647E+02 -0.76697512718E+02 -0.35661954082E+03  0.40629912837E+03  0.17323141730E+03 0.  0.
         24    2    3    3    0    0  0.18156590554E+02 -0.32391462257E+02 -0.29441141758E+03  0.30719084999E+03  0.79430893922E+02 0.  0.
         -6    2    1    2    0  503  0.44831377647E+02  0.76697512718E+02 -0.73878394376E+03  0.76405730381E+03  0.17346321529E+03 0.  0.
        -24    2    5    5    0    0  0.16216643493E+02 -0.68111205635E+01 -0.54380293624E+03  0.54997279213E+03  0.80243801852E+02 0.  0.
          4    1    4    4  501    0  0.42258989016E+02 -0.38896611215E+02 -0.14966140068E+03  0.16030378464E+03  0.00000000000E+00 0. -1.
         -3    1    4    4    0  501 -0.24102398462E+02  0.65051489586E+01 -0.14475001691E+03  0.14688706536E+03  0.00000000000E+00 0.  1.
          5    1    3    3  502    0 -0.62987968201E+02 -0.44306050462E+02 -0.62208123241E+02  0.99108278377E+02  0.47000000000E+01 0. -1.
         11    1    6    6    0    0 -0.30692664547E+02 -0.80209807289E+01 -0.30177670774E+03  0.30343954442E+03  0.00000000000E+00 0. -1.
        -12    1    6    6    0    0  0.46909308040E+02  0.12098601654E+01 -0.24202622850E+03  0.24653324771E+03  0.00000000000E+00 0.  1.
         -5    1    5    5    0  503  0.28614734154E+02  0.83508633282E+02 -0.19498100753E+03  0.21408451167E+03  0.47000000000E+01 0.  1.
<mgrwt>
<rscale>  2 0.19483773E+03</rscale>
<asrwt>0</asrwt>
<pdfrwt beam="1">  1       21 0.57656103E-02 0.19488932E+03</pdfrwt>
<pdfrwt beam="2">  1       21 0.17428926E+00 0.19488932E+03</pdfrwt>
<totfact> 0.41983017E+04</totfact>
</mgrwt>
</event>
<event>
12    1  0.1473662E-001  0.2058457E+03  0.7546771E-02  0.1145223E+00
         21   -1    0    0  504  503  0.00000000000E+00  0.00000000000E+00  0.68130013815E+02  0.68130013815E+02  0.00000000000E+00 0.  1.
         21   -1    0    0  502  504 -0.00000000000E+00 -0.00000000000E+00 -0.70006329471E+03  0.70006329471E+03  0.00000000000E+00 0.  1.
          6    2    1    2  502    0 -0.56684292995E+01 -0.10750849981E+03 -0.44707638629E+03  0.49152646370E+03  0.17358214402E+03 0.  0.
         24    2    3    3    0    0  0.46012572721E+02 -0.41587126689E+02 -0.34356208500E+03  0.35828287483E+03  0.80529908698E+02 0.  0.
         -6    2    1    2    0  503  0.56684292995E+01  0.10750849981E+03 -0.18485689461E+03  0.27666684482E+03  0.17544874726E+03 0.  0.
        -24    2    5    5    0    0 -0.37809315644E+02  0.12555470374E+03 -0.17697696402E+03  0.22870682931E+03  0.61582789817E+02 0.  0.
          4    1    4    4  501    0  0.68450073209E+02 -0.32415597586E+02 -0.22952128377E+03  0.24169444179E+03  0.00000000000E+00 0. -1.
         -3    1    4    4    0  501 -0.22437500488E+02 -0.91715291029E+01 -0.11404080122E+03  0.11658843304E+03  0.00000000000E+00 0.  1.
          5    1    3    3  502    0 -0.51681002020E+02 -0.65921373125E+02 -0.10351430129E+03  0.13324358887E+03  0.47000000000E+01 0. -1.
         13    1    6    6    0    0 -0.53013000950E+02  0.86752141560E+02 -0.13980151668E+03  0.17286056925E+03  0.00000000000E+00 0. -1.
        -14    1    6    6    0    0  0.15203685306E+02  0.38802562176E+02 -0.37175447335E+02  0.55846260062E+02  0.00000000000E+00 0.  1.
         -5    1    5    5    0  503  0.43477744943E+02 -0.18046203922E+02 -0.78799305914E+01  0.47960015507E+02  0.47000000000E+01 0.  1.
<mgrwt>
<rscale>  2 0.20544743E+03</rscale>
<asrwt>0</asrwt>
<pdfrwt beam="1">  1       21 0.10481541E-01 0.20584575E+03</pdfrwt>
<pdfrwt beam="2">  1       21 0.10770204E+00 0.20584575E+03</pdfrwt>
<totfact> 0.50968102E+04</totfact>
</mgrwt>
</event>
<event>
12    1  0.1473662E-001  0.2328864E+03  0.7546771E-02  0.1126288E+00
         21   -1    0    0  504  503  0.00000000000E+00  0.00000000000E+00  0.10499722924E+03  0.10499722924E+03  0.00000000000E+00 0. -1.
         21   -1    0    0  502  504 -0.00000000000E+00 -0.00000000000E+00 -0.11051171320E+04  0.11051171320E+04  0.00000000000E+00 0. -1.
          6    2    1    2  502    0 -0.90630000182E+02 -0.10786155286E+03 -0.94463138608E+03  0.97070869907E+03  0.17349066651E+03 0.  0.
         24    2    3    3    0    0 -0.49377068251E+02 -0.91514002347E+02 -0.33957830301E+03  0.36401242404E+03  0.79866848487E+02 0.  0.
         -6    2    1    2    0  503  0.90630000182E+02  0.10786155286E+03 -0.55488516733E+02  0.23940566222E+03  0.18544051363E+03 0.  0.
        -24    2    5    5    0    0  0.62502381862E+02  0.35832703887E+02 -0.98577264872E+02  0.15076002943E+03  0.88434037104E+02 0.  0.
          2    1    4    4  501    0 -0.55125626507E+02 -0.10107513860E+03 -0.26965056869E+03  0.29320035392E+03  0.00000000000E+00 0. -1.
         -1    1    4    4    0  501  0.57485582562E+01  0.95611362564E+01 -0.69927734311E+02  0.70812070118E+02  0.00000000000E+00 0.  1.
          5    1    3    3  502    0 -0.41252931931E+02 -0.16347550512E+02 -0.60505308307E+03  0.60669627503E+03  0.47000000000E+01 0. -1.
         13    1    6    6    0    0  0.13764937666E+02  0.50806171356E+02 -0.81442135936E+02  0.96971965343E+02  0.00000000000E+00 0. -1.
        -14    1    6    6    0    0  0.48737444197E+02 -0.14973467468E+02 -0.17135128936E+02  0.53788064090E+02  0.00000000000E+00 0.  1.
         -5    1    5    5    0  503  0.28127618320E+02  0.72028848971E+02  0.43088748139E+02  0.88645632789E+02  0.47000000000E+01 0.  1.
<mgrwt>
<rscale>  2 0.23050043E+03</rscale>
<asrwt>0</asrwt>
<pdfrwt beam="1">  1       21 0.16153419E-01 0.23288644E+03</pdfrwt>
<pdfrwt beam="2">  1       21 0.17001803E+00 0.23288644E+03</pdfrwt>
<totfact> 0.70838777E+03</totfact>
</mgrwt>
</event>
<event>
12    1  0.1473662E-001  0.2795899E+03  0.7546771E-02  0.1095932E+00
         21   -1    0    0  504  503  0.00000000000E+00  0.00000000000E+00  0.15194797550E+04  0.15194797550E+04  0.00000000000E+00 0. -1.
         21   -1    0    0  502  504 -0.00000000000E+00 -0.00000000000E+00 -0.68179144582E+02  0.68179144582E+02  0.00000000000E+00 0.  1.
          6    2    1    2  502    0 -0.54266854130E+01  0.21879844201E+03  0.33221618778E+03  0.43420977956E+03  0.17397795866E+03 0.  0.
         24    2    3    3    0    0  0.29185275617E+02  0.14568381846E+03  0.12001567161E+03  0.20706470458E+03  0.79977966819E+02 0.  0.
         -6    2    1    2    0  503  0.54266854130E+01 -0.21879844201E+03  0.11190844227E+04  0.11534491200E+04  0.17376052587E+03 0.  0.
        -24    2    5    5    0    0  0.66449355140E+02 -0.12825668916E+03  0.57279565119E+03  0.59633594747E+03  0.81586819415E+02 0.  0.
          4    1    4    4  501    0 -0.10311737917E+02  0.98378201795E+02  0.10370649162E+03  0.14331656893E+03  0.00000000000E+00 0. -1.
         -3    1    4    4    0  501  0.39497013534E+02  0.47305616669E+02  0.16309179991E+02  0.63748135648E+02  0.00000000000E+00 0.  1.
          5    1    3    3  502    0 -0.34611961030E+02  0.73114623550E+02  0.21220051617E+03  0.22714507498E+03  0.47000000000E+01 0. -1.
         11    1    6    6    0    0  0.56963292685E+02 -0.13521450829E+03  0.45774036724E+03  0.48068079197E+03  0.00000000000E+00 0. -1.
        -12    1    6    6    0    0  0.94860624557E+01  0.69578191290E+01  0.11505528395E+03  0.11565515550E+03  0.00000000000E+00 0.  1.
         -5    1    5    5    0  503 -0.61022669727E+02 -0.90541752849E+02  0.54628877147E+03  0.55711317258E+03  0.47000000000E+01 0.  1.
<mgrwt>
<rscale>  2 0.27955613E+03</rscale>
<asrwt>0</asrwt>
<pdfrwt beam="1">  1       21 0.23376609E+00 0.27958994E+03</pdfrwt>
<pdfrwt beam="2">  1       21 0.10489100E-01 0.27958994E+03</pdfrwt>
<totfact> 0.57623172E+03</totfact>
</mgrwt>
</event>
<event>
12    1  0.1473662E-001  0.1801976E+03  0.7546771E-02  0.1168040E+00
         21   -1    0    0  504  503  0.00000000000E+00  0.00000000000E+00  0.42359548698E+02  0.42359548698E+02  0.00000000000E+00 0. -1.
         21   -1    0    0  502  504 -0.00000000000E+00 -0.00000000000E+00 -0.92488731951E+03  0.92488731951E+03  0.00000000000E+00 0. -1.
          6    2    1    2  502    0 -0.31732860937E+02  0.31374407845E+02 -0.64425210882E+03  0.66850538100E+03  0.17276381792E+03 0.  0.
         24    2    3    3    0    0  0.28442162121E+02  0.56470975367E+02 -0.27982918193E+03  0.29826622756E+03  0.81611542063E+02 0.  0.
         -6    2    1    2    0  503  0.31732860937E+02 -0.31374407845E+02 -0.23827566200E+03  0.29874148721E+03  0.17458481362E+03 0.  0.
        -24    2    5    5    0    0  0.50670212764E+02 -0.33064048083E+02 -0.25416323203E+03  0.27352278265E+03  0.80963339694E+02 0.  0.
          2    1    4    4  501    0 -0.25268190465E+02  0.65458166191E+01 -0.11394922085E+03  0.11690061633E+03  0.00000000000E+00 0. -1.
         -1    1    4    4    0  501  0.53710352586E+02  0.49925158748E+02 -0.16587996108E+03  0.18136561124E+03  0.00000000000E+00 0.  1.
          5    1    3    3  502    0 -0.60175023058E+02 -0.25096567522E+02 -0.36442292688E+03  0.37023915344E+03  0.47000000000E+01 0. -1.
         13    1    6    6    0    0  0.52845131568E+02 -0.83268062313E+01 -0.72130123861E+02  0.89803665853E+02  0.00000000000E+00 0. -1.
        -14    1    6    6    0    0 -0.21749188039E+01 -0.24737241851E+02 -0.18203310817E+03  0.18371911679E+03  0.00000000000E+00 0.  1.
         -5    1    5    5    0  503 -0.18937351827E+02  0.16896402380E+01  0.15887570030E+02  0.25218704563E+02  0.47000000000E+01 0.  1.
<mgrwt>
<rscale>  2 0.17975507E+03</rscale>
<asrwt>0</asrwt>
<pdfrwt beam="1">  1       21 0.65168534E-02 0.18019763E+03</pdfrwt>
<pdfrwt beam="2">  1       21 0.14229036E+00 0.18019763E+03</pdfrwt>
<totfact> 0.59096568E+04</totfact>
</mgrwt>
</event>
<event>
12    1  0.1473662E-001  0.2222352E+03  0.7546771E-02  0.1132477E+00
         21   -1    0    0  504  503  0.00000000000E+00  0.00000000000E+00  0.55991896421E+02  0.55991896421E+02  0.00000000000E+00 0. -1.
         21   -1    0    0  502  504 -0.00000000000E+00 -0.00000000000E+00 -0.93122187338E+03  0.93122187338E+03  0.00000000000E+00 0.  1.
          6    2    1    2  502    0 -0.13637472040E+03 -0.21353006952E+02 -0.31944714767E+03  0.38914646268E+03  0.17416794765E+03 0.  0.
         24    2    3    3    0    0 -0.37818882486E+01 -0.65794636844E+01 -0.75495417913E+02  0.11105717275E+03  0.81095902936E+02 0.  0.
         -6    2    1    2    0  503  0.13637472040E+03  0.21353006952E+02 -0.55578282929E+03  0.59806730712E+03  0.17244110660E+03 0.  0.
        -24    2    5    5    0    0  0.14289946938E+03 -0.94807605063E+01 -0.53584250477E+03  0.56047741345E+03  0.80607678856E+02 0.  0.
          2    1    4    4  501    0 -0.72502155157E+01  0.48484051591E+01  0.16300707138E+02  0.18487447385E+02  0.00000000000E+00 0. -1.
         -1    1    4    4    0  501  0.34683272671E+01 -0.11427868843E+02 -0.91796125052E+02  0.92569725369E+02  0.00000000000E+00 0.  1.
          5    1    3    3  502    0 -0.13259283215E+03 -0.14773543268E+02 -0.24395172976E+03  0.27808928993E+03  0.47000000000E+01 0. -1.
         13    1    6    6    0    0  0.67106201164E+02  0.24023541153E+02 -0.34712312775E+03  0.35436540264E+03  0.00000000000E+00 0. -1.
        -14    1    6    6    0    0  0.75793268217E+02 -0.33504301659E+02 -0.18871937702E+03  0.20611201081E+03  0.00000000000E+00 0.  1.
         -5    1    5    5    0  503 -0.65247489785E+01  0.30833767458E+02 -0.19940324514E+02  0.37589893676E+02  0.47000000000E+01 0.  1.
<mgrwt>
<rscale>  2 0.22189675E+03</rscale>
<asrwt>0</asrwt>
<pdfrwt beam="1">  1       21 0.86141375E-02 0.22223521E+03</pdfrwt>
<pdfrwt beam="2">  1       21 0.14326491E+00 0.22223521E+03</pdfrwt>
<totfact> 0.34947767E+04</totfact>
</mgrwt>
</event>
<event>
12    1  0.1473662E-001  0.1885964E+03  0.7546771E-02  0.1160607E+00
         21   -1    0    0  504  503  0.00000000000E+00  0.00000000000E+00  0.89727667382E+03  0.89727667382E+03  0.00000000000E+00 0. -1.
         21   -1    0    0  502  504 -0.00000000000E+00 -0.00000000000E+00 -0.12074550996E+03  0.12074550996E+03  0.00000000000E+00 0. -1.
          6    2    1    2  502    0  0.59720708939E+02 -0.36446283446E+02 -0.29666019741E+02  0.19091535848E+03  0.17513910678E+03 0.  0.
         24    2    3    3    0    0  0.33798233612E+02 -0.26735346771E+01  0.52455540323E+02  0.98294551349E+02  0.75899714962E+02 0.  0.
         -6    2    1    2    0  503 -0.59720708939E+02  0.36446283446E+02  0.80619718360E+03  0.82710682530E+03  0.17104650529E+03 0.  0.
        -24    2    5    5    0    0 -0.92174514828E+02  0.46621444793E+02  0.74626391336E+03  0.75803533838E+03  0.83893060169E+02 0.  0.
          2    1    4    4  501    0  0.67527641457E+01  0.33327513485E+02  0.78203931219E+01  0.34892427937E+02  0.00000000000E+00 0. -1.
         -1    1    4    4    0  501  0.27045469467E+02 -0.36001048163E+02  0.44635147201E+02  0.63402123412E+02  0.00000000000E+00 0.  1.
          5    1    3    3  502    0  0.25922475326E+02 -0.33772748769E+02 -0.82121560065E+02  0.92620807132E+02  0.47000000000E+01 0. -1.
         11    1    6    6    0    0 -0.36260771796E+02  0.63614813802E+02  0.46879629542E+03  0.47448040498E+03  0.00000000000E+00 0. -1.
        -12    1    6    6    0    0 -0.55913743033E+02 -0.16993369009E+02  0.27746761794E+03  0.28355493340E+03  0.00000000000E+00 0.  1.
         -5    1    5    5    0  503  0.32453805889E+02 -0.10175161347E+02  0.59933270235E+02  0.69071486926E+02  0.47000000000E+01 0.  1.
<mgrwt>
<rscale>  2 0.18764057E+03</rscale>
<asrwt>0</asrwt>
<pdfrwt beam="1">  1       21 0.13804256E+00 0.18859640E+03</pdfrwt>
<pdfrwt beam="2">  1       21 0.18576233E-01 0.18859640E+03</pdfrwt>
<totfact> 0.98572953E+03</totfact>
</mgrwt>
</event>
<event>
12    1  0.1473662E-001  0.2410301E+03  0.7546771E-02  0.1119126E+00
         21   -1    0    0  504  503  0.00000000000E+00  0.00000000000E+00  0.66799293502E+03  0.66799293502E+03  0.00000000000E+00 0. -1.
         21   -1    0    0  502  504 -0.00000000000E+00 -0.00000000000E+00 -0.10173065787E+03  0.10173065787E+03  0.00000000000E+00 0. -1.
          6    2    1    2  502    0 -0.27218965420E+02  0.16683593434E+03  0.42986703113E+03  0.49277744628E+03  0.17166492374E+03 0.  0.
         24    2    3    3    0    0 -0.11943377982E+02  0.12296963297E+02  0.18542242065E+03  0.20313819698E+03  0.81177542510E+02 0.  0.
         -6    2    1    2    0  503  0.27218965420E+02 -0.16683593434E+03  0.13639524602E+03  0.27694614661E+03  0.17181502821E+03 0.  0.
        -24    2    5    5    0    0  0.70451447156E+02 -0.14959405119E+03  0.13801266708E+03  0.23013764244E+03  0.81080525622E+02 0.  0.
          2    1    4    4  501    0 -0.17995276598E+02 -0.24504932340E+02  0.27911623803E+02  0.41272029659E+02  0.00000000000E+00 0. -1.
         -1    1    4    4    0  501  0.60518986166E+01  0.36801895637E+02  0.15751079685E+03  0.16186616732E+03  0.00000000000E+00 0.  1.
          5    1    3    3  502    0 -0.15275587438E+02  0.15453897104E+03  0.24444461048E+03  0.28963924930E+03  0.47000000000E+01 0. -1.
         13    1    6    6    0    0 -0.49490535814E+01 -0.80231492457E+02  0.47109637374E+02  0.93171366024E+02  0.00000000000E+00 0. -1.
        -14    1    6    6    0    0  0.75400500737E+02 -0.69362558735E+02  0.90903029707E+02  0.13696627642E+03  0.00000000000E+00 0.  1.
         -5    1    5    5    0  503 -0.43232481736E+02 -0.17241883148E+02 -0.16174210665E+01  0.46808504168E+02  0.47000000000E+01 0.  1.
<mgrwt>
<rscale>  2 0.24100334E+03</rscale>
<asrwt>0</asrwt>
<pdfrwt beam="1">  1       21 0.10276814E+00 0.24103009E+03</pdfrwt>
<pdfrwt beam="2">  1       21 0.15650871E-01 0.24103009E+03</pdfrwt>
<totfact> 0.27199854E+04</totfact>
</mgrwt>
</event>
<event>
12    1  0.1473662E-001  0.1920861E+03  0.7546771E-02  0.1156671E+00
         21   -1    0    0  504  503  0.00000000000E+00  0.00000000000E+00  0.98359732080E+02  0.98359732080E+02  0.00000000000E+00 0.  1.
         21   -1    0    0  502  504 -0.00000000000E+00 -0.00000000000E+00 -0.44182618116E+03  0.44182618116E+03  0.00000000000E+00 0.  1.
          6    2    1    2  502    0 -0.77351936158E+02 -0.38762409896E+02 -0.27734291078E+03  0.33736648430E+03  0.17149696242E+03 0.  0.
         24    2    3    3    0    0 -0.22438085351E+02  0.27435961432E+02 -0.69008493032E+02  0.11192674735E+03  0.80679768267E+02 0.  0.
         -6    2    1    2    0  503  0.77351936158E+02  0.38762409896E+02 -0.66123538306E+02  0.20281942895E+03  0.17110684379E+03 0.  0.
        -24    2    5    5    0    0  0.60613065347E+02  0.74928539997E+02  0.30864220935E-01  0.12544583050E+03  0.80302089895E+02 0.  0.
          4    1    4    4  501    0 -0.93248918299E+01  0.47436904076E+01  0.18130037912E+02  0.20932139906E+02  0.00000000000E+00 0. -1.
         -3    1    4    4    0  501 -0.13113193522E+02  0.22692271025E+02 -0.87138530944E+02  0.90994607443E+02  0.00000000000E+00 0.  1.
          5    1    3    3  502    0 -0.54913850806E+02 -0.66198371329E+02 -0.20833441775E+03  0.22543973695E+03  0.47000000000E+01 0. -1.
         13    1    6    6    0    0  0.31377693264E+02 -0.34472440426E+01 -0.22558485202E+02  0.38798561580E+02  0.00000000000E+00 0. -1.
        -14    1    6    6    0    0  0.29235372082E+02  0.78375784039E+02  0.22589349423E+02  0.86647268924E+02  0.00000000000E+00 0.  1.
         -5    1    5    5    0  503  0.16738870811E+02 -0.36166130100E+02 -0.66154402527E+02  0.77373598444E+02  0.47000000000E+01 0.  1.
<mgrwt>
<rscale>  2 0.19199895E+03</rscale>
<asrwt>0</asrwt>
<pdfrwt beam="1">  1       21 0.15132267E-01 0.19208606E+03</pdfrwt>
<pdfrwt beam="2">  1       21 0.67973258E-01 0.19208606E+03</pdfrwt>
<totfact> 0.76330064E+04</totfact>
</mgrwt>
</event>
<event>
12    1  0.1473662E-001  0.2988567E+03  0.7546771E-02  0.1085901E+00
         21   -1    0    0  504  503  0.00000000000E+00  0.00000000000E+00  0.88247691356E+03  0.88247691356E+03  0.00000000000E+00 0.  1.
         21   -1    0    0  502  504 -0.00000000000E+00 -0.00000000000E+00 -0.15897545390E+03  0.15897545390E+03  0.00000000000E+00 0. -1.
          6    2    1    2  502    0  0.21994864474E+03 -0.10244689161E+03  0.67654747914E+03  0.73961601363E+03  0.17447803345E+03 0.  0.
         24    2    3    3    0    0  0.22668946705E+03 -0.82563040106E+02  0.67086776792E+03  0.71736392709E+03  0.79640892677E+02 0.  0.
         -6    2    1    2    0  503 -0.21994864474E+03  0.10244689161E+03  0.46953980510E+02  0.30183635383E+03  0.17328513002E+03 0.  0.
        -24    2    5    5    0    0 -0.16359010736E+03  0.10000828060E+03 -0.25820075823E+02  0.20963882223E+03  0.80736485274E+02 0.  0.
          2    1    4    4  501    0  0.11859418364E+03 -0.25436902972E+01  0.34548857701E+03  0.36528537830E+03  0.00000000000E+00 0. -1.
         -1    1    4    4    0  501  0.10809528341E+03 -0.80019349809E+02  0.32537919091E+03  0.35207854879E+03  0.00000000000E+00 0.  1.
          5    1    3    3  502    0 -0.67408223087E+01 -0.19883851501E+02  0.56797112226E+01  0.22252086542E+02  0.47000000000E+01 0. -1.
         11    1    6    6    0    0 -0.15352530191E+03  0.10086999098E+03 -0.19374650430E+01  0.18370772215E+03  0.00000000000E+00 0. -1.
        -12    1    6    6    0    0 -0.10064805455E+02 -0.86171038327E+00 -0.23882610780E+02  0.25931100079E+02  0.00000000000E+00 0.  1.
         -5    1    5    5    0  503 -0.56358537380E+02  0.24386110056E+01  0.72774056333E+02  0.92197531607E+02  0.47000000000E+01 0.  1.
<mgrwt>
<rscale>  2 0.29868288E+03</rscale>
<asrwt>0</asrwt>
<pdfrwt beam="1">  1       21 0.13576568E+00 0.29885675E+03</pdfrwt>
<pdfrwt beam="2">  1       21 0.24457763E-01 0.29885675E+03</pdfrwt>
<totfact> 0.57031547E+03</totfact>
</mgrwt>
</event>
<event>
12    1  0.1473662E-001  0.1940600E+03  0.7546771E-02  0.1155239E+00
         21   -1    0    0  504  503  0.00000000000E+00  0.00000000000E+00  0.13633418644E+04  0.13633418644E+04  0.00000000000E+00 0. -1.
         21   -1    0    0  502  504 -0.00000000000E+00 -0.00000000000E+00 -0.27903280807E+02  0.27903280807E+02  0.00000000000E+00 0.  1.
          6    2    1    2  502    0  0.35018648627E+01  0.85521332160E+02  0.56871797860E+03  0.60034705749E+03  0.17219259262E+03 0.  0.
         24    2    3    3    0    0  0.67221515808E+02  0.50910022818E+02  0.29218014421E+03  0.31442154185E+03  0.79881829576E+02 0.  0.
         -6    2    1    2    0  503 -0.35018648627E+01 -0.85521332160E+02  0.76672060498E+03  0.79089808769E+03  0.17416411143E+03 0.  0.
        -24    2    5    5    0    0 -0.20514213860E+02 -0.12215052831E+03  0.49557217935E+03  0.51671807976E+03  0.77873002206E+02 0.  0.
          4    1    4    4  501    0  0.15699810761E+02  0.56152622988E+02  0.10382436018E+03  0.11907602149E+03  0.00000000000E+00 0. -1.
         -3    1    4    4    0  501  0.51521705048E+02 -0.52426001703E+01  0.18835578403E+03  0.19534552036E+03  0.00000000000E+00 0.  1.
          5    1    3    3  502    0 -0.63719650946E+02  0.34611309342E+02  0.27653783438E+03  0.28592551565E+03  0.47000000000E+01 0. -1.
         11    1    6    6    0    0 -0.13911995085E+02 -0.11183831119E+03  0.49080512694E+03  0.50357822043E+03  0.00000000000E+00 0. -1.
        -12    1    6    6    0    0 -0.66022187749E+01 -0.10312217116E+02  0.47670524028E+01  0.13139859330E+02  0.00000000000E+00 0.  1.
         -5    1    5    5    0  503  0.17012348997E+02  0.36629196146E+02  0.27114842563E+03  0.27418000793E+03  0.47000000000E+01 0.  1.
<mgrwt>
<rscale>  2 0.19361667E+03</rscale>
<asrwt>0</asrwt>
<pdfrwt beam="1">  1       21 0.20974485E+00 0.19406004E+03</pdfrwt>
<pdfrwt beam="2">  1       21 0.42928135E-02 0.19406004E+03</pdfrwt>
<totfact> 0.40493347E+04</totfact>
</mgrwt>
</event>
<event>
12    1  0.1473662E-001  0.3464192E+03  0.7546771E-02  0.1064358E+00
         21   -1    0    0  504  503  0.00000000000E+00  0.00000000000E+00  0.23471801293E+03  0.23471801293E+03  0.00000000000E+00 0.  1.
         21   -1    0    0  502  504 -0.00000000000E+00 -0.00000000000E+00 -0.10395525386E+04  0.10395525386E+04  0.00000000000E+00 0. -1.
          6    2    1    2  502    0  0.85465339935E+02  0.28772070039E+03 -0.85748454931E+03  0.92387321803E+03  0.16785244988E+03 0.  0.
         24    2    3    3    0    0  0.55685796354E+02  0.10846473299E+03 -0.52521129239E+03  0.54512906913E+03  0.80332397806E+02 0.  0.
         -6    2    1    2    0  503 -0.85465339935E+02 -0.28772070039E+03  0.52650023604E+02  0.35039733353E+03  0.17297034600E+03 0.  0.
        -24    2    5    5    0    0 -0.75913848755E+02 -0.12398274152E+03 -0.24427421775E+02  0.16911199837E+03  0.82870600518E+02 0.  0.
          2    1    4    4  501    0  0.63359892819E+02  0.58931064889E+02 -0.41685137915E+03  0.42573749979E+03  0.00000000000E+00 0. -1.
         -1    1    4    4    0  501 -0.76740964647E+01  0.49533668101E+02 -0.10835991323E+03  0.11939156934E+03  0.00000000000E+00 0.  1.
          5    1    3    3  502    0  0.29779543580E+02  0.17925596740E+03 -0.33227325692E+03  0.37874414890E+03  0.47000000000E+01 0. -1.
         11    1    6    6    0    0 -0.71861032307E+02 -0.11105493619E+03 -0.48992615256E+02  0.14105843884E+03  0.00000000000E+00 0. -1.
        -12    1    6    6    0    0 -0.40528164472E+01 -0.12927805330E+02  0.24565193482E+02  0.28053559535E+02  0.00000000000E+00 0.  1.
         -5    1    5    5    0  503 -0.95514911802E+01 -0.16373795887E+03  0.77077445379E+02  0.18128533516E+03  0.47000000000E+01 0.  1.
<mgrwt>
<rscale>  2 0.34578576E+03</rscale>
<asrwt>0</asrwt>
<pdfrwt beam="1">  1       21 0.36110464E-01 0.34641921E+03</pdfrwt>
<pdfrwt beam="2">  1       21 0.15993116E+00 0.34641921E+03</pdfrwt>
<totfact> 0.16645032E+03</totfact>
</mgrwt>
</event>
<event>
12    1  0.1473662E-001  0.2719288E+03  0.7546771E-02  0.1100204E+00
         21   -1    0    0  504  503  0.00000000000E+00  0.00000000000E+00  0.26747750640E+03  0.26747750640E+03  0.00000000000E+00 0.  1.
         21   -1    0    0  502  504 -0.00000000000E+00 -0.00000000000E+00 -0.36809810940E+03  0.36809810940E+03  0.00000000000E+00 0.  1.
          6    2    1    2  502    0 -0.47077684865E+02 -0.20461157271E+03 -0.20901022491E+03  0.34284099059E+03  0.17254699826E+03 0.  0.
         24    2    3    3    0    0 -0.25418232297E+02 -0.34047097130E+02 -0.34323165862E+02  0.97689953845E+02  0.80993555369E+02 0.  0.
         -6    2    1    2    0  503  0.47077684865E+02  0.20461157271E+03  0.10838962190E+03  0.29273462521E+03  0.17280927799E+03 0.  0.
        -24    2    5    5    0    0  0.55781316261E+01  0.41867846137E+02  0.81089809844E+02  0.12251387678E+03  0.81547904020E+02 0.  0.
          4    1    4    4  501    0 -0.21486083628E+02  0.19542711166E+02  0.70332901921E+01  0.29883716641E+02  0.00000000000E+00 0. -1.
         -3    1    4    4    0  501 -0.39321486694E+01 -0.53589808296E+02 -0.41356456054E+02  0.67806237204E+02  0.00000000000E+00 0.  1.
          5    1    3    3  502    0 -0.21659452568E+02 -0.17056447558E+03 -0.17468705905E+03  0.24515103674E+03  0.47000000000E+01 0. -1.
         13    1    6    6    0    0 -0.38000661039E+02  0.20917200761E+02  0.35400858772E+02  0.55989287626E+02  0.00000000000E+00 0. -1.
        -14    1    6    6    0    0  0.43578792665E+02  0.20950645376E+02  0.45688951071E+02  0.66524589152E+02  0.00000000000E+00 0.  1.
         -5    1    5    5    0  503  0.41499553239E+02  0.16274372658E+03  0.27299812061E+02  0.17022074843E+03  0.47000000000E+01 0.  1.
<mgrwt>
<rscale>  2 0.27188710E+03</rscale>
<asrwt>0</asrwt>
<pdfrwt beam="1">  1       21 0.41150386E-01 0.27192876E+03</pdfrwt>
<pdfrwt beam="2">  1       21 0.56630478E-01 0.27192876E+03</pdfrwt>
<totfact> 0.15969895E+04</totfact>
</mgrwt>
</event>
<event>
12    1  0.1473662E-001  0.2033618E+03  0.7546771E-02  0.1148031E+00
         21   -1    0    0  504  503  0.00000000000E+00  0.00000000000E+00  0.11503206343E+04  0.11503206343E+04  0.00000000000E+00 0.  1.
         21   -1    0    0  502  504 -0.00000000000E+00 -0.00000000000E+00 -0.35131532302E+02  0.35131532302E+02  0.00000000000E+00 0. -1.
          6    2    1    2  502    0  0.65747229867E+02 -0.86368796251E+02  0.58216064586E+03  0.61494770247E+03  0.16573289349E+03 0.  0.
         24    2    3    3    0    0  0.72905783804E+02 -0.11195561017E+03  0.55541763258E+03  0.57695811574E+03  0.80886394250E+02 0.  0.
         -6    2    1    2    0  503 -0.65747229867E+02  0.86368796251E+02  0.53302845610E+03  0.57050446410E+03  0.17197017573E+03 0.  0.
        -24    2    5    5    0    0 -0.10628720747E+03  0.34639350481E+02  0.34330001578E+03  0.36966025480E+03  0.79353311622E+02 0.  0.
          4    1    4    4  501    0  0.69521848645E+02 -0.36243945499E+02  0.23640531107E+03  0.24906702337E+03  0.00000000000E+00 0. -1.
         -3    1    4    4    0  501  0.33839351587E+01 -0.75711664669E+02  0.31901232150E+03  0.32789109237E+03  0.00000000000E+00 0.  1.
          5    1    3    3  502    0 -0.71585539371E+01  0.25586813917E+02  0.26743013286E+02  0.37989586737E+02  0.47000000000E+01 0. -1.
         13    1    6    6    0    0 -0.31786728493E+02 -0.22127606820E+02  0.61277494865E+02  0.72491092341E+02  0.00000000000E+00 0. -1.
        -14    1    6    6    0    0 -0.74500478979E+02  0.56766957301E+02  0.28202252092E+03  0.29716916246E+03  0.00000000000E+00 0.  1.
         -5    1    5    5    0  503  0.40539977606E+02  0.51729445770E+02  0.18972844032E+03  0.20084420930E+03  0.47000000000E+01 0.  1.
<mgrwt>
<rscale>  2 0.20203726E+03</rscale>
<asrwt>0</asrwt>
<pdfrwt beam="1">  1       21 0.17697238E+00 0.20336177E+03</pdfrwt>
<pdfrwt beam="2">  1       21 0.54048520E-02 0.20336177E+03</pdfrwt>
<totfact> 0.44676758E+04</totfact>
</mgrwt>
</event>
<event>
12    1  0.1473662E-001  0.3919205E+03  0.7546771E-02  0.1046637E+00
         21   -1    0    0  504  503  0.00000000000E+00  0.00000000000E+00  0.29855842974E+03  0.29855842974E+03  0.00000000000E+00 0.  1.
         21   -1    0    0  502  504 -0.00000000000E+00 -0.00000000000E+00 -0.62175668715E+03  0.62175668715E+03  0.00000000000E+00 0. -1.
          6    2    1    2  502    0 -0.44972884592E+01  0.35171349458E+03 -0.35309111497E+03  0.52751775248E+03  0.17285553457E+03 0.  0.
         24    2    3    3    0    0 -0.24982085272E+02  0.13511446832E+03 -0.13418415266E+03  0.21884784266E+03  0.10492362593E+03 0.  0.
         -6    2    1    2    0  503  0.44972884592E+01 -0.35171349458E+03  0.29892857564E+02  0.39279736441E+03  0.17226020631E+03 0.  0.
        -24    2    5    5    0    0  0.26976716294E+02 -0.87606209599E+02  0.40662912417E+02  0.12747479330E+03  0.78700440273E+02 0.  0.
          4    1    4    4  501    0 -0.47294081842E+02  0.11912576230E+03 -0.14101694902E+03  0.19056090190E+03  0.00000000000E+00 0. -1.
         -3    1    4    4    0  501  0.22311996570E+02  0.15988706016E+02  0.68327963692E+01  0.28286940754E+02  0.00000000000E+00 0.  1.
          5    1    3    3  502    0  0.20484796813E+02  0.21659902626E+03 -0.21890696232E+03  0.30866990982E+03  0.47000000000E+01 0. -1.
         13    1    6    6    0    0  0.42775959460E+02 -0.35925814215E+02 -0.58588084521E+01  0.56167361263E+02  0.00000000000E+00 0. -1.
        -14    1    6    6    0    0 -0.15799243165E+02 -0.51680395384E+02  0.46521720869E+02  0.71307432041E+02  0.00000000000E+00 0.  1.
         -5    1    5    5    0  503 -0.22479427835E+02 -0.26410728498E+03 -0.10770054853E+02  0.26532257110E+03  0.47000000000E+01 0.  1.
<mgrwt>
<rscale>  2 0.39185489E+03</rscale>
<asrwt>0</asrwt>
<pdfrwt beam="1">  1       21 0.45932066E-01 0.39192046E+03</pdfrwt>
<pdfrwt beam="2">  1       21 0.95654874E-01 0.39192046E+03</pdfrwt>
<totfact> 0.36947182E+03</totfact>
</mgrwt>
</event>
<event>
12    1  0.1473662E-001  0.2382345E+03  0.7546771E-02  0.1120992E+00
         21   -1    0    0  504  503  0.00000000000E+00  0.00000000000E+00  0.25430629600E+03  0.25430629600E+03  0.00000000000E+00 0. -1.
         21   -1    0    0  502  504 -0.00000000000E+00 -0.00000000000E+00 -0.22331822991E+03  0.22331822991E+03  0.00000000000E+00 0. -1.
          6    2    1    2  502    0  0.15708819048E+03  0.45758738496E+02  0.76906499397E+01  0.23835863505E+03  0.17316215254E+03 0.  0.
         24    2    3    3    0    0  0.95818239863E+02 -0.11466912338E+02 -0.51262305779E+02  0.13576076495E+03  0.80563863715E+02 0.  0.
         -6    2    1    2    0  503 -0.15708819048E+03 -0.45758738496E+02  0.23297416155E+02  0.23926589085E+03  0.17301686389E+03 0.  0.
        -24    2    5    5    0    0 -0.17590985208E+03 -0.70708121082E+02  0.24655460883E+02  0.20763266588E+03  0.80990849755E+02 0.  0.
          2    1    4    4  501    0  0.11007479611E+03 -0.79237051410E+01 -0.49543612681E+02  0.12097030792E+03  0.00000000000E+00 0. -1.
         -1    1    4    4    0  501 -0.14256556243E+02 -0.35432071971E+01 -0.17186930985E+01  0.14790457029E+02  0.00000000000E+00 0.  1.
          5    1    3    3  502    0  0.61269950618E+02  0.57225650834E+02  0.58952955719E+02  0.10259787011E+03  0.47000000000E+01 0. -1.
         11    1    6    6    0    0 -0.91237244253E+02 -0.37389320791E+02 -0.28004560408E+02  0.10250098269E+03  0.00000000000E+00 0. -1.
        -12    1    6    6    0    0 -0.84672607826E+02 -0.33318800291E+02  0.52660021291E+02  0.10513168319E+03  0.00000000000E+00 0.  1.
         -5    1    5    5    0  503  0.18821661597E+02  0.24949382586E+02 -0.13580447283E+01  0.31633224973E+02  0.47000000000E+01 0.  1.
<mgrwt>
<rscale>  2 0.23820813E+03</rscale>
<asrwt>0</asrwt>
<pdfrwt beam="1">  1       21 0.39124046E-01 0.23823453E+03</pdfrwt>
<pdfrwt beam="2">  1       21 0.34356651E-01 0.23823453E+03</pdfrwt>
<totfact> 0.50370234E+04</totfact>
</mgrwt>
</event>
<event>
12    1  0.1473662E-001  0.1789100E+03  0.7546771E-02  0.1168937E+00
         21   -1    0    0  504  503  0.00000000000E+00  0.00000000000E+00  0.43199802961E+02  0.43199802961E+02  0.00000000000E+00 0. -1.
         21   -1    0    0  502  504 -0.00000000000E+00 -0.00000000000E+00 -0.16815685395E+04  0.16815685395E+04  0.00000000000E+00 0. -1.
          6    2    1    2  502    0  0.12363720133E+02 -0.39096888682E+02 -0.14649119760E+04  0.14757966937E+04  0.17414751043E+03 0.  0.
         24    2    3    3    0    0 -0.37586219918E+02 -0.51184182613E+02 -0.54994587410E+03  0.55937639883E+03  0.80180712516E+02 0.  0.
         -6    2    1    2    0  503 -0.12363720133E+02  0.39096888682E+02 -0.17345676052E+03  0.24897164876E+03  0.17383384548E+03 0.  0.
        -24    2    5    5    0    0 -0.47184100963E+02  0.62589840848E+02 -0.45727084959E+02  0.11443043670E+03  0.69710336272E+02 0.  0.
          2    1    4    4  501    0 -0.20917985958E+02 -0.83885830862E+00 -0.39597988077E+03  0.39653288866E+03  0.00000000000E+00 0. -1.
         -1    1    4    4    0  501 -0.16668233960E+02 -0.50345324305E+02 -0.15396599333E+03  0.16284351017E+03  0.00000000000E+00 0.  1.
          5    1    3    3  502    0  0.49949940051E+02  0.12087293931E+02 -0.91496610194E+03  0.91642029489E+03  0.47000000000E+01 0. -1.
         13    1    6    6    0    0 -0.25636704849E+02  0.53311010270E+02 -0.62143366720E+02  0.85796867535E+02  0.00000000000E+00 0. -1.
        -14    1    6    6    0    0 -0.21547396114E+02  0.92788305783E+01  0.16416281761E+02  0.28633569164E+02  0.00000000000E+00 0.  1.
         -5    1    5    5    0  503  0.34820380830E+02 -0.23492952166E+02 -0.12772967556E+03  0.13454121206E+03  0.47000000000E+01 0.  1.
<mgrwt>
<rscale>  2 0.17883361E+03</rscale>
<asrwt>0</asrwt>
<pdfrwt beam="1">  1       21 0.66461226E-02 0.17890999E+03</pdfrwt>
<pdfrwt beam="2">  1       21 0.25870289E+00 0.17890999E+03</pdfrwt>
<totfact> 0.99176364E+03</totfact>
</mgrwt>
</event>
<event>
12    1  0.1473662E-001  0.1821099E+03  0.7546771E-02  0.1166079E+00
         21   -1    0    0  504  503  0.00000000000E+00  0.00000000000E+00  0.63631348816E+02  0.63631348816E+02  0.00000000000E+00 0.  1.
         21   -1    0    0  502  504 -0.00000000000E+00 -0.00000000000E+00 -0.59981237360E+03  0.59981237360E+03  0.00000000000E+00 0.  1.
          6    2    1    2  502    0 -0.27215252141E+02 -0.42352680956E+02 -0.39172364206E+03  0.43198546260E+03  0.17501316698E+03 0.  0.
         24    2    3    3    0    0 -0.18999807421E+02 -0.10844330644E+02 -0.39014127901E+03  0.39904819580E+03  0.80936103159E+02 0.  0.
         -6    2    1    2    0  503  0.27215252141E+02  0.42352680956E+02 -0.14445738273E+03  0.23145825982E+03  0.17369677913E+03 0.  0.
        -24    2    5    5    0    0  0.13602784402E+02  0.66001940878E+02 -0.21867104370E+02  0.10577988809E+03  0.78548854398E+02 0.  0.
          2    1    4    4  501    0  0.17329370060E+02  0.18288040401E+01 -0.30634983784E+03  0.30684503375E+03  0.00000000000E+00 0. -1.
         -1    1    4    4    0  501 -0.36329177481E+02 -0.12673134685E+02 -0.83791441169E+02  0.92203162051E+02  0.00000000000E+00 0.  1.
          5    1    3    3  502    0 -0.82154447202E+01 -0.31508350311E+02 -0.15823630455E+01  0.32937266798E+02  0.47000000000E+01 0. -1.
         13    1    6    6    0    0 -0.15231317106E+01 -0.95476223663E+01  0.16943756792E+02  0.19508150022E+02  0.00000000000E+00 0. -1.
        -14    1    6    6    0    0  0.15125916113E+02  0.75549563245E+02 -0.38810861163E+02  0.86271738066E+02  0.00000000000E+00 0.  1.
         -5    1    5    5    0  503  0.13612467739E+02 -0.23649259923E+02 -0.12259027836E+03  0.12567837173E+03  0.47000000000E+01 0.  1.
<mgrwt>
<rscale>  2 0.18179293E+03</rscale>
<asrwt>0</asrwt>
<pdfrwt beam="1">  1       21 0.97894381E-02 0.18210993E+03</pdfrwt>
<pdfrwt beam="2">  1       21 0.92278828E-01 0.18210993E+03</pdfrwt>
<totfact> 0.83898537E+04</totfact>
</mgrwt>
</event>
<event>
12    1  0.1473662E-001  0.2125947E+03  0.7546771E-02  0.1139561E+00
         21   -1    0    0  504  503  0.00000000000E+00  0.00000000000E+00  0.57809783986E+02  0.57809783986E+02  0.00000000000E+00 0.  1.
         21   -1    0    0  502  504 -0.00000000000E+00 -0.00000000000E+00 -0.10760475911E+04  0.10760475911E+04  0.00000000000E+00 0.  1.
          6    2    1    2  502    0  0.12110913047E+03  0.22955506858E+02 -0.80603425682E+03  0.83359925196E+03  0.17321118015E+03 0.  0.
         24    2    3    3    0    0  0.13858847046E+03  0.58939003056E+02 -0.69877278740E+03  0.71902415804E+03  0.77664414068E+02 0.  0.
         -6    2    1    2    0  503 -0.12110913047E+03 -0.22955506858E+02 -0.21220355029E+03  0.30025812312E+03  0.17300351720E+03 0.  0.
        -24    2    5    5    0    0 -0.58497971651E+02  0.55402930767E+02 -0.11400003140E+03  0.15980804986E+03  0.77788869482E+02 0.  0.
          2    1    4    4  501    0  0.16364931717E+02  0.22649955426E+02 -0.27690066865E+03  0.27830704585E+03  0.00000000000E+00 0. -1.
         -1    1    4    4    0  501  0.12222353874E+03  0.36289047629E+02 -0.42187211875E+03  0.44071711219E+03  0.00000000000E+00 0.  1.
          5    1    3    3  502    0 -0.17479339988E+02 -0.35983496197E+02 -0.10726146942E+03  0.11457509392E+03  0.47000000000E+01 0. -1.
         11    1    6    6    0    0  0.12715976471E+02  0.32572210399E+01 -0.47543842421E+02  0.49322636777E+02  0.00000000000E+00 0. -1.
        -12    1    6    6    0    0 -0.71213948121E+02  0.52145709727E+02 -0.66456188982E+02  0.11048541308E+03  0.00000000000E+00 0.  1.
         -5    1    5    5    0  503 -0.62611158823E+02 -0.78358437626E+02 -0.98203518886E+02  0.14045007326E+03  0.47000000000E+01 0.  1.
<mgrwt>
<rscale>  2 0.21255236E+03</rscale>
<asrwt>0</asrwt>
<pdfrwt beam="1">  1       21 0.88938129E-02 0.21259466E+03</pdfrwt>
<pdfrwt beam="2">  1       21 0.16554578E+00 0.21259466E+03</pdfrwt>
<totfact> 0.22583063E+04</totfact>
</mgrwt>
</event>
<event>
12    1  0.1473662E-001  0.2045091E+03  0.7546771E-02  0.1146515E+00
         21   -1    0    0  504  503  0.00000000000E+00  0.00000000000E+00  0.38592102300E+03  0.38592102300E+03  0.00000000000E+00 0.  1.
         21   -1    0    0  502  504 -0.00000000000E+00 -0.00000000000E+00 -0.10894044316E+03  0.10894044316E+03  0.00000000000E+00 0.  1.
          6    2    1    2  502    0  0.10352098247E+03 -0.19066838603E+02  0.10657448798E+03  0.23061245719E+03  0.17533923057E+03 0.  0.
         24    2    3    3    0    0  0.12011604347E+03 -0.49181116088E+02  0.43646511475E+02  0.15874949047E+03  0.80310252672E+02 0.  0.
         -6    2    1    2    0  503 -0.10352098247E+03  0.19066838603E+02  0.17040609186E+03  0.26424900897E+03  0.17236346613E+03 0.  0.
        -24    2    5    5    0    0 -0.12312519796E+03 -0.27853324904E+02  0.12435059207E+03  0.19548109444E+03  0.82547964583E+02 0.  0.
          2    1    4    4  501    0  0.12078984922E+03 -0.19149325048E+02  0.31067302823E+02  0.12618265186E+03  0.00000000000E+00 0. -1.
         -1    1    4    4    0  501 -0.67380575526E+00 -0.30031791040E+02  0.12579208651E+02  0.32566838618E+02  0.00000000000E+00 0.  1.
          5    1    3    3  502    0 -0.16595060993E+02  0.30114277484E+02  0.62927976506E+02  0.71862966714E+02  0.47000000000E+01 0. -1.
         13    1    6    6    0    0 -0.73155524833E+02  0.69238877124E+01  0.11105649490E+03  0.13316612217E+03  0.00000000000E+00 0. -1.
        -14    1    6    6    0    0 -0.49969673123E+02 -0.34777212616E+02  0.13294097165E+02  0.62314972268E+02  0.00000000000E+00 0.  1.
         -5    1    5    5    0  503  0.19604215482E+02  0.46920163507E+02  0.46055499788E+02  0.68767914531E+02  0.47000000000E+01 0.  1.
<mgrwt>
<rscale>  2 0.20386976E+03</rscale>
<asrwt>0</asrwt>
<pdfrwt beam="1">  1       21 0.59372465E-01 0.20450913E+03</pdfrwt>
<pdfrwt beam="2">  1       21 0.16760068E-01 0.20450913E+03</pdfrwt>
<totfact> 0.84441538E+04</totfact>
</mgrwt>
</event>
<event>
12    1  0.1473662E-001  0.1942923E+03  0.7546771E-02  0.1154923E+00
         21   -1    0    0  504  503  0.00000000000E+00  0.00000000000E+00  0.15557387659E+03  0.15557387659E+03  0.00000000000E+00 0. -1.
         21   -1    0    0  502  504 -0.00000000000E+00 -0.00000000000E+00 -0.26943535558E+03  0.26943535558E+03  0.00000000000E+00 0. -1.
          6    2    1    2  502    0  0.30972269951E+02 -0.80000405298E+02 -0.12604317908E+03  0.23159527283E+03  0.17432768297E+03 0.  0.
         24    2    3    3    0    0  0.22710527558E+02 -0.48371454810E+02  0.14314790565E+02  0.87404092309E+02  0.67668282238E+02 0.  0.
         -6    2    1    2    0  503 -0.30972269951E+02  0.80000405298E+02  0.12181700090E+02  0.19341395934E+03  0.17291969089E+03 0.  0.
        -24    2    5    5    0    0  0.40132771753E+02  0.63898211518E+01  0.72221072746E+01  0.90841386908E+02  0.80922985356E+02 0.  0.
          2    1    4    4  501    0  0.29634161643E+02 -0.40639222766E+02 -0.18033425166E+02  0.53431586038E+02  0.00000000000E+00 0. -1.
         -1    1    4    4    0  501 -0.69236340845E+01 -0.77322320436E+01  0.32348215731E+02  0.33972506271E+02  0.00000000000E+00 0.  1.
          5    1    3    3  502    0  0.82617423928E+01 -0.31628950489E+02 -0.14035796964E+03  0.14419118052E+03  0.47000000000E+01 0. -1.
         11    1    6    6    0    0 -0.82165487257E+01  0.16659188291E+01  0.34241868714E+02  0.35253262707E+02  0.00000000000E+00 0. -1.
        -12    1    6    6    0    0  0.48349320478E+02  0.47239023227E+01 -0.27019761439E+02  0.55588124200E+02  0.00000000000E+00 0.  1.
         -5    1    5    5    0  503 -0.71105041704E+02  0.73610584147E+02  0.49595928158E+01  0.10257257243E+03  0.47000000000E+01 0.  1.
<mgrwt>
<rscale>  2 0.19397592E+03</rscale>
<asrwt>0</asrwt>
<pdfrwt beam="1">  1       21 0.23934443E-01 0.19429227E+03</pdfrwt>
<pdfrwt beam="2">  1       21 0.41451593E-01 0.19429227E+03</pdfrwt>
<totfact> 0.92167711E+04</totfact>
</mgrwt>
</event>
<event>
12    1  0.1473662E-001  0.1893012E+03  0.7546771E-02  0.1159142E+00
         21   -1    0    0  504  503  0.00000000000E+00  0.00000000000E+00  0.36677047421E+03  0.36677047421E+03  0.00000000000E+00 0. -1.
         21   -1    0    0  502  504 -0.00000000000E+00 -0.00000000000E+00 -0.15442392196E+03  0.15442392196E+03  0.00000000000E+00 0. -1.
          6    2    1    2  502    0  0.21910581053E+02  0.72590248195E+02 -0.51878679446E+02  0.19628131919E+03  0.17345184112E+03 0.  0.
         24    2    3    3    0    0 -0.74198871563E+01  0.36386254075E+02 -0.96973201059E+02  0.13126892472E+03  0.80303889455E+02 0.  0.
         -6    2    1    2    0  503 -0.21910581053E+02 -0.72590248195E+02  0.26422523169E+03  0.32491307698E+03  0.17321696462E+03 0.  0.
        -24    2    5    5    0    0 -0.63362795822E+02 -0.47831595014E+02  0.24884756935E+03  0.27402261111E+03  0.82828577530E+02 0.  0.
          2    1    4    4  501    0  0.20149024215E+02  0.44211935983E+02 -0.89201850556E+02  0.10157582686E+03  0.00000000000E+00 0. -1.
         -1    1    4    4    0  501 -0.27568911372E+02 -0.78256819075E+01 -0.77713505033E+01  0.29693097854E+02  0.00000000000E+00 0.  1.
          5    1    3    3  502    0  0.29330468209E+02  0.36203994120E+02  0.45094521613E+02  0.65012394473E+02  0.47000000000E+01 0. -1.
         13    1    6    6    0    0 -0.64091592817E+02 -0.22077566201E+00  0.17274063893E+03  0.18424741342E+03  0.00000000000E+00 0. -1.
        -14    1    6    6    0    0  0.72879699551E+00 -0.47610819352E+02  0.76106930414E+02  0.89775197697E+02  0.00000000000E+00 0.  1.
         -5    1    5    5    0  503  0.41452214769E+02 -0.24758653181E+02  0.15377662346E+02  0.50890465863E+02  0.47000000000E+01 0.  1.
<mgrwt>
<rscale>  2 0.18924742E+03</rscale>
<asrwt>0</asrwt>
<pdfrwt beam="1">  1       21 0.56426227E-01 0.18930124E+03</pdfrwt>
<pdfrwt beam="2">  1       21 0.23757526E-01 0.18930124E+03</pdfrwt>
<totfact> 0.49390214E+04</totfact>
</mgrwt>
</event>
<event>
12    1  0.1473662E-001  0.1841128E+03  0.7546771E-02  0.1164183E+00
         21   -1    0    0  504  503  0.00000000000E+00  0.00000000000E+00  0.43497690520E+03  0.43497690520E+03  0.00000000000E+00 0.  1.
         21   -1    0    0  502  504 -0.00000000000E+00 -0.00000000000E+00 -0.80581903732E+02  0.80581903732E+02  0.00000000000E+00 0.  1.
          6    2    1    2  502    0 -0.53178416243E+02  0.21570768326E+02  0.12528228654E+03  0.22163677308E+03  0.17359137611E+03 0.  0.
         24    2    3    3    0    0 -0.62804723369E+02  0.47366463580E+02  0.25042241951E+02  0.11757794250E+03  0.83722419524E+02 0.  0.
         -6    2    1    2    0  503  0.53178416243E+02 -0.21570768326E+02  0.22911271493E+03  0.29392203585E+03  0.17494080433E+03 0.  0.
        -24    2    5    5    0    0 -0.26481117527E+02 -0.48416946766E+02  0.10776187783E+03  0.14622479728E+03  0.81997675010E+02 0.  0.
          2    1    4    4  501    0 -0.22821026788E+02  0.66756122626E+01  0.49957042043E+02  0.55326929361E+02  0.00000000000E+00 0. -1.
         -1    1    4    4    0  501 -0.39983696581E+02  0.40690851317E+02 -0.24914800092E+02  0.62251013139E+02  0.00000000000E+00 0.  1.
          5    1    3    3  502    0  0.96263071256E+01 -0.25795695254E+02  0.10024004458E+03  0.10405883058E+03  0.47000000000E+01 0. -1.
         11    1    6    6    0    0 -0.53538192634E+02 -0.14536289257E+02  0.61081128456E+02  0.82513914156E+02  0.00000000000E+00 0. -1.
        -12    1    6    6    0    0  0.27057075107E+02 -0.33880657508E+02  0.46680749374E+02  0.63710883126E+02  0.00000000000E+00 0.  1.
         -5    1    5    5    0  503  0.79659533770E+02  0.26846178439E+02  0.12135083710E+03  0.14769723857E+03  0.47000000000E+01 0.  1.
<mgrwt>
<rscale>  2 0.18379154E+03</rscale>
<asrwt>0</asrwt>
<pdfrwt beam="1">  1       21 0.66919523E-01 0.18411281E+03</pdfrwt>
<pdfrwt beam="2">  1       21 0.12397216E-01 0.18411281E+03</pdfrwt>
<totfact> 0.11358349E+05</totfact>
</mgrwt>
</event>
<event>
12    1  0.1473662E-001  0.2652190E+03  0.7546771E-02  0.1104161E+00
         21   -1    0    0  504  503  0.00000000000E+00  0.00000000000E+00  0.12589403511E+03  0.12589403511E+03  0.00000000000E+00 0.  1.
         21   -1    0    0  502  504 -0.00000000000E+00 -0.00000000000E+00 -0.72940640868E+03  0.72940640868E+03  0.00000000000E+00 0.  1.
          6    2    1    2  502    0  0.16033486262E+03 -0.12018410050E+03 -0.50994642595E+03  0.57479255415E+03  0.17375165260E+03 0.  0.
         24    2    3    3    0    0  0.14873240076E+03 -0.14985097590E+03 -0.48231035248E+03  0.53235927507E+03  0.78781213644E+02 0.  0.
         -6    2    1    2    0  503 -0.16033486262E+03  0.12018410050E+03 -0.93565947619E+02  0.28050788965E+03  0.17256478034E+03 0.  0.
        -24    2    5    5    0    0 -0.13765774661E+03  0.15221999102E+03 -0.60612182748E+02  0.22904343112E+03  0.81648489136E+02 0.  0.
          4    1    4    4  501    0  0.99524577144E+02 -0.86323929932E+02 -0.38047036387E+03  0.40263464843E+03  0.00000000000E+00 0. -1.
         -3    1    4    4    0  501  0.49207823620E+02 -0.63527045970E+02 -0.10183998861E+03  0.12972462663E+03  0.00000000000E+00 0.  1.
          5    1    3    3  502    0  0.11602461862E+02  0.29666875398E+02 -0.27636073468E+02  0.42433279084E+02  0.47000000000E+01 0. -1.
         11    1    6    6    0    0 -0.14631669961E+02  0.57924552834E+02 -0.41765900605E+02  0.72895336204E+02  0.00000000000E+00 0. -1.
        -12    1    6    6    0    0 -0.12302607665E+03  0.94295438181E+02 -0.18846282142E+02  0.15614809492E+03  0.00000000000E+00 0.  1.
         -5    1    5    5    0  503 -0.22677116017E+02 -0.32035890511E+02 -0.32953764871E+02  0.51464458521E+02  0.47000000000E+01 0.  1.
<mgrwt>
<rscale>  2 0.26502479E+03</rscale>
<asrwt>0</asrwt>
<pdfrwt beam="1">  1       21 0.19368313E-01 0.26521901E+03</pdfrwt>
<pdfrwt beam="2">  1       21 0.11221637E+00 0.26521901E+03</pdfrwt>
<totfact> 0.14614346E+04</totfact>
</mgrwt>
</event>
<event>
12    1  0.1473662E-001  0.1974246E+03  0.7546771E-02  0.1152057E+00
         21   -1    0    0  504  503  0.00000000000E+00  0.00000000000E+00  0.20859084599E+03  0.20859084599E+03  0.00000000000E+00 0.  1.
         21   -1    0    0  502  504 -0.00000000000E+00 -0.00000000000E+00 -0.27729646467E+03  0.27729646467E+03  0.00000000000E+00 0.  1.
          6    2    1    2  502    0 -0.80007083847E+02  0.49512909549E+02 -0.17349079549E+03  0.26237799079E+03  0.17288867012E+03 0.  0.
         24    2    3    3    0    0 -0.65573034670E+02  0.97326662465E+02 -0.10251122632E+03  0.17546029419E+03  0.80656439370E+02 0.  0.
         -6    2    1    2    0  503  0.80007083847E+02 -0.49512909549E+02  0.10478517681E+03  0.22350931987E+03  0.17356215345E+03 0.  0.
        -24    2    5    5    0    0  0.17287858088E+02 -0.40385654934E+02 -0.52682060802E+01  0.96423344474E+02  0.85672844020E+02 0.  0.
          2    1    4    4  501    0 -0.43353638350E+02  0.14873341214E+02 -0.70854502967E+02  0.84386698169E+02  0.00000000000E+00 0. -1.
         -1    1    4    4    0  501 -0.22219396320E+02  0.82453321252E+02 -0.31656723355E+02  0.91073596019E+02  0.00000000000E+00 0.  1.
          5    1    3    3  502    0 -0.14434049177E+02 -0.47813752917E+02 -0.70979569171E+02  0.86917696606E+02  0.47000000000E+01 0. -1.
         11    1    6    6    0    0 -0.32829899316E+02 -0.10409795709E+02  0.10369143226E+02  0.35967836563E+02  0.00000000000E+00 0. -1.
        -12    1    6    6    0    0  0.50117757404E+02 -0.29975859225E+02 -0.15637349306E+02  0.60455507911E+02  0.00000000000E+00 0.  1.
         -5    1    5    5    0  503  0.62719225759E+02 -0.91272546151E+01  0.11005338289E+03  0.12708597539E+03  0.47000000000E+01 0.  1.
<mgrwt>
<rscale>  2 0.19727650E+03</rscale>
<asrwt>0</asrwt>
<pdfrwt beam="1">  1       21 0.32090899E-01 0.19742463E+03</pdfrwt>
<pdfrwt beam="2">  1       21 0.42660995E-01 0.19742463E+03</pdfrwt>
<totfact> 0.49252411E+04</totfact>
</mgrwt>
</event>
<event>
12    1  0.1473662E-001  0.1857140E+03  0.7546771E-02  0.1162492E+00
         21   -1    0    0  504  503  0.00000000000E+00  0.00000000000E+00  0.13651983401E+04  0.13651983401E+04  0.00000000000E+00 0. -1.
         21   -1    0    0  502  504 -0.00000000000E+00 -0.00000000000E+00 -0.25308871959E+02  0.25308871959E+02  0.00000000000E+00 0. -1.
          6    2    1    2  502    0 -0.37268362466E+02  0.55605773419E+02  0.62368758729E+03  0.65061883679E+03  0.17273601643E+03 0.  0.
         24    2    3    3    0    0 -0.23275440239E+02  0.64718948011E+02  0.62450870504E+03  0.63325173980E+03  0.79160311590E+02 0.  0.
         -6    2    1    2    0  503  0.37268362466E+02 -0.55605773419E+02  0.71620188085E+03  0.73988837526E+03  0.17323031155E+03 0.  0.
        -24    2    5    5    0    0  0.31525190023E+02 -0.67460209144E+02  0.71761931264E+03  0.72583096480E+03  0.79425399984E+02 0.  0.
          4    1    4    4  501    0  0.20363254965E+02  0.53715773942E+02  0.28137445767E+03  0.28717874565E+03  0.00000000000E+00 0. -1.
         -3    1    4    4    0  501 -0.43638695203E+02  0.11003174069E+02  0.34313424737E+03  0.34607299415E+03  0.00000000000E+00 0.  1.
          5    1    3    3  502    0 -0.13992922227E+02 -0.91131745916E+01 -0.82111775703E+00  0.17367096993E+02  0.47000000000E+01 0. -1.
         11    1    6    6    0    0 -0.22348046976E+02 -0.69640126254E+01  0.89535950967E+02  0.92545227813E+02  0.00000000000E+00 0. -1.
        -12    1    6    6    0    0  0.53873236999E+02 -0.60496196519E+02  0.62808336167E+03  0.63328573698E+03  0.00000000000E+00 0.  1.
         -5    1    5    5    0  503  0.57431724436E+01  0.11854435725E+02 -0.14174317908E+01  0.14057410464E+02  0.47000000000E+01 0.  1.
<mgrwt>
<rscale>  2 0.18559860E+03</rscale>
<asrwt>0</asrwt>
<pdfrwt beam="1">  1       21 0.21003046E+00 0.18571396E+03</pdfrwt>
<pdfrwt beam="2">  1       21 0.38936737E-02 0.18571396E+03</pdfrwt>
<totfact> 0.47775078E+04</totfact>
</mgrwt>
</event>
<event>
12    1  0.1473662E-001  0.2093813E+03  0.7546771E-02  0.1142161E+00
         21   -1    0    0  504  503  0.00000000000E+00  0.00000000000E+00  0.22549292010E+03  0.22549292010E+03  0.00000000000E+00 0.  1.
         21   -1    0    0  502  504 -0.00000000000E+00 -0.00000000000E+00 -0.20116382586E+03  0.20116382586E+03  0.00000000000E+00 0.  1.
          6    2    1    2  502    0 -0.71587532884E+02  0.92702706707E+02  0.52588264676E+02  0.21537703731E+03  0.17292534784E+03 0.  0.
         24    2    3    3    0    0 -0.66629126111E+02  0.36583575875E+02  0.93827308869E+02  0.14540067410E+03  0.80993787841E+02 0.  0.
         -6    2    1    2    0  503  0.71587532884E+02 -0.92702706707E+02 -0.28259170434E+02  0.21127970864E+03  0.17355681455E+03 0.  0.
        -24    2    5    5    0    0  0.29664909289E+02 -0.12670298685E+03 -0.76734607753E+01  0.15331949072E+03  0.80711402635E+02 0.  0.
          4    1    4    4  501    0 -0.61249294180E+02  0.45336044543E+01  0.94721314598E+02  0.11289002191E+03  0.00000000000E+00 0. -1.
         -3    1    4    4    0  501 -0.53798319306E+01  0.32049971421E+02 -0.89400572990E+00  0.32510652192E+02  0.00000000000E+00 0.  1.
          5    1    3    3  502    0 -0.49584067735E+01  0.56119130831E+02 -0.41239044193E+02  0.69976363216E+02  0.47000000000E+01 0. -1.
         13    1    6    6    0    0 -0.35469982537E+01  0.84424928076E+01 -0.10746598427E+02  0.14119003476E+02  0.00000000000E+00 0. -1.
        -14    1    6    6    0    0  0.33211907543E+02 -0.13514547966E+03  0.30731376515E+01  0.13920048725E+03  0.00000000000E+00 0.  1.
         -5    1    5    5    0  503  0.41922623595E+02  0.34000280145E+02 -0.20585709659E+02  0.57960217919E+02  0.47000000000E+01 0.  1.
<mgrwt>
<rscale>  2 0.20925041E+03</rscale>
<asrwt>0</asrwt>
<pdfrwt beam="1">  1       21 0.34691219E-01 0.20938131E+03</pdfrwt>
<pdfrwt beam="2">  1       21 0.30948281E-01 0.20938131E+03</pdfrwt>
<totfact> 0.79742463E+04</totfact>
</mgrwt>
</event>
<event>
12    1  0.1473662E-001  0.1761656E+03  0.7546771E-02  0.1171802E+00
         21   -1    0    0  504  503  0.00000000000E+00  0.00000000000E+00  0.13044624398E+04  0.13044624398E+04  0.00000000000E+00 0. -1.
         21   -1    0    0  502  504 -0.00000000000E+00 -0.00000000000E+00 -0.84594682080E+02  0.84594682080E+02  0.00000000000E+00 0.  1.
          6    2    1    2  502    0 -0.28559640597E+02  0.22151912394E+01  0.20036819136E+02  0.17636234875E+03  0.17286307816E+03 0.  0.
         24    2    3    3    0    0  0.24205511441E+01  0.16263888323E+02  0.75140969891E+02  0.11143396050E+03  0.80628711176E+02 0.  0.
         -6    2    1    2    0  503  0.28559640597E+02 -0.22151912394E+01  0.11998309385E+04  0.12126947731E+04  0.17382109033E+03 0.  0.
        -24    2    5    5    0    0  0.82298397977E+02  0.22901628393E+02  0.83885961775E+03  0.84685178339E+03  0.78581001850E+02 0.  0.
          4    1    4    4  501    0 -0.23392141068E+02  0.40570489158E+02  0.43091119831E+02  0.63639621797E+02  0.00000000000E+00 0. -1.
         -3    1    4    4    0  501  0.25812692212E+02 -0.24306600835E+02  0.32049850061E+02  0.47794338705E+02  0.00000000000E+00 0.  1.
          5    1    3    3  502    0 -0.30980191741E+02 -0.14048697083E+02 -0.55104150755E+02  0.64928388248E+02  0.47000000000E+01 0. -1.
         13    1    6    6    0    0  0.40319499912E+02  0.51329879043E+02  0.48948694866E+03  0.49381969530E+03  0.00000000000E+00 0. -1.
        -14    1    6    6    0    0  0.41978898065E+02 -0.28428250649E+02  0.34937266909E+03  0.35303208809E+03  0.00000000000E+00 0.  1.
         -5    1    5    5    0  503 -0.53738757381E+02 -0.25116819632E+02  0.36097132080E+03  0.36584298970E+03  0.47000000000E+01 0.  1.
<mgrwt>
<rscale>  2 0.17592886E+03</rscale>
<asrwt>0</asrwt>
<pdfrwt beam="1">  1       21 0.20068651E+00 0.17616564E+03</pdfrwt>
<pdfrwt beam="2">  1       21 0.13014567E-01 0.17616564E+03</pdfrwt>
<totfact> 0.68454054E+03</totfact>
</mgrwt>
</event>
<event>
12    1  0.1473662E-001  0.3929805E+03  0.7546771E-02  0.1046823E+00
         21   -1    0    0  504  503  0.00000000000E+00  0.00000000000E+00  0.75226449080E+03  0.75226449080E+03  0.00000000000E+00 0.  1.
         21   -1    0    0  502  504 -0.00000000000E+00 -0.00000000000E+00 -0.46411692243E+03  0.46411692243E+03  0.00000000000E+00 0.  1.
          6    2    1    2  502    0  0.35016064241E+03  0.10505164768E+02 -0.31360840835E+03  0.49767150028E+03  0.16310688037E+03 0.  0.
         24    2    3    3    0    0  0.28402184871E+03  0.29756447823E+02 -0.30914662556E+03  0.42848371641E+03  0.80453728345E+02 0.  0.
         -6    2    1    2    0  503 -0.35016064241E+03 -0.10505164768E+02  0.60175597673E+03  0.71870991295E+03  0.17807540390E+03 0.  0.
        -24    2    5    5    0    0 -0.26061949730E+03 -0.75298463710E+02  0.42155842198E+03  0.50726479716E+03  0.77547987009E+02 0.  0.
          2    1    4    4  501    0  0.13448001856E+03 -0.21625927379E+02 -0.11634031135E+03  0.17913018777E+03  0.00000000000E+00 0. -1.
         -1    1    4    4    0  501  0.14954183016E+03  0.51382375202E+02 -0.19280631421E+03  0.24935352864E+03  0.00000000000E+00 0.  1.
          5    1    3    3  502    0  0.66138793696E+02 -0.19251283055E+02 -0.44617827953E+01  0.69187783868E+02  0.47000000000E+01 0. -1.
         13    1    6    6    0    0 -0.96737034428E+01 -0.11698821064E+02  0.64318340478E+02  0.66085489137E+02  0.00000000000E+00 0. -1.
        -14    1    6    6    0    0 -0.25094579386E+03 -0.63599642646E+02  0.35724008150E+03  0.44117930803E+03  0.00000000000E+00 0.  1.
         -5    1    5    5    0  503 -0.89541145105E+02  0.64793298942E+02  0.18019755475E+03  0.21144511579E+03  0.47000000000E+01 0.  1.
<mgrwt>
<rscale>  2 0.39133207E+03</rscale>
<asrwt>0</asrwt>
<pdfrwt beam="1">  1       21 0.11573300E+00 0.39298051E+03</pdfrwt>
<pdfrwt beam="2">  1       21 0.71402603E-01 0.39298051E+03</pdfrwt>
<totfact> 0.88940354E+02</totfact>
</mgrwt>
</event>
<event>
12    1  0.1473662E-001  0.2169853E+03  0.7546771E-02  0.1136177E+00
         21   -1    0    0  504  503  0.00000000000E+00  0.00000000000E+00  0.51102316860E+03  0.51102316860E+03  0.00000000000E+00 0. -1.
         21   -1    0    0  502  504 -0.00000000000E+00 -0.00000000000E+00 -0.96346214021E+02  0.96346214021E+02  0.00000000000E+00 0. -1.
          6    2    1    2  502    0  0.11033046592E+02  0.13050093487E+03  0.14333645660E+03  0.25993839293E+03  0.17283057082E+03 0.  0.
         24    2    3    3    0    0  0.20990297293E+02  0.13619254995E+03  0.52117515158E+02  0.16788120092E+03  0.80491359745E+02 0.  0.
         -6    2    1    2    0  503 -0.11033046592E+02 -0.13050093487E+03  0.27134049799E+03  0.34743098969E+03  0.17300405958E+03 0.  0.
        -24    2    5    5    0    0 -0.18645038483E+02  0.34516157801E+01  0.12781394412E+03  0.15090315474E+03  0.77947461067E+02 0.  0.
          2    1    4    4  501    0  0.31236988291E+01  0.84768476474E+02 -0.98513073365E+01  0.85396137819E+02  0.00000000000E+00 0. -1.
         -1    1    4    4    0  501  0.17866598464E+02  0.51424073479E+02  0.61968822494E+02  0.82485063103E+02  0.00000000000E+00 0.  1.
          5    1    3    3  502    0 -0.99572507004E+01 -0.56916150782E+01  0.91218941440E+02  0.92057192012E+02  0.47000000000E+01 0. -1.
         11    1    6    6    0    0  0.18024252317E+02  0.19136313819E+02  0.12935500314E+02  0.29298452972E+02  0.00000000000E+00 0. -1.
        -12    1    6    6    0    0 -0.36669290800E+02 -0.15684698039E+02  0.11487844381E+03  0.12160470177E+03  0.00000000000E+00 0.  1.
         -5    1    5    5    0  503  0.76119918909E+01 -0.13395255065E+03  0.14352655386E+03  0.19652783495E+03  0.47000000000E+01 0.  1.
<mgrwt>
<rscale>  2 0.21695073E+03</rscale>
<asrwt>0</asrwt>
<pdfrwt beam="1">  1       21 0.78618948E-01 0.21698531E+03</pdfrwt>
<pdfrwt beam="2">  1       21 0.14822495E-01 0.21698531E+03</pdfrwt>
<totfact> 0.56687514E+04</totfact>
</mgrwt>
</event>
<event>
12    1  0.1473662E-001  0.1976177E+03  0.7546771E-02  0.1152659E+00
         21   -1    0    0  504  503  0.00000000000E+00  0.00000000000E+00  0.23702218322E+03  0.23702218322E+03  0.00000000000E+00 0. -1.
         21   -1    0    0  502  504 -0.00000000000E+00 -0.00000000000E+00 -0.16393824286E+03  0.16393824286E+03  0.00000000000E+00 0.  1.
          6    2    1    2  502    0  0.58814360328E+02 -0.77393483757E+02  0.61392936896E+02  0.20299724148E+03  0.16730184410E+03 0.  0.
         24    2    3    3    0    0 -0.15312938635E+02 -0.51555909300E+02  0.75524594813E+02  0.12309586189E+03  0.80969926020E+02 0.  0.
         -6    2    1    2    0  503 -0.58814360328E+02  0.77393483757E+02  0.11691003461E+02  0.19796318460E+03  0.17205773038E+03 0.  0.
        -24    2    5    5    0    0  0.32917234330E+02  0.41483363209E+02  0.23945267531E+02  0.98582707620E+02  0.79628893409E+02 0.  0.
          4    1    4    4  501    0 -0.35183453431E+02 -0.56775648234E+01  0.61650021861E+02  0.71209798014E+02  0.00000000000E+00 0. -1.
         -3    1    4    4    0  501  0.19870514796E+02 -0.45878344476E+02  0.13874572952E+02  0.51886063878E+02  0.00000000000E+00 0.  1.
          5    1    3    3  502    0  0.74127298963E+02 -0.25837574458E+02 -0.14131657917E+02  0.79901379593E+02  0.47000000000E+01 0. -1.
         13    1    6    6    0    0 -0.15272359766E+02  0.41476637907E+02  0.24204117671E+02  0.50392417854E+02  0.00000000000E+00 0. -1.
        -14    1    6    6    0    0  0.48189594096E+02  0.67253016904E-02 -0.25885014011E+00  0.48190289766E+02  0.00000000000E+00 0.  1.
         -5    1    5    5    0  503 -0.91731594658E+02  0.35910120548E+02 -0.12254264069E+02  0.99380476977E+02  0.47000000000E+01 0.  1.
<mgrwt>
<rscale>  2 0.19657784E+03</rscale>
<asrwt>0</asrwt>
<pdfrwt beam="1">  1       21 0.36464951E-01 0.19761767E+03</pdfrwt>
<pdfrwt beam="2">  1       21 0.25221268E-01 0.19761767E+03</pdfrwt>
<totfact> 0.10781411E+05</totfact>
</mgrwt>
</event>
<event>
12    1  0.1473662E-001  0.2008306E+03  0.7546771E-02  0.1149928E+00
         21   -1    0    0  504  503  0.00000000000E+00  0.00000000000E+00  0.10214112039E+04  0.10214112039E+04  0.00000000000E+00 0. -1.
         21   -1    0    0  502  504 -0.00000000000E+00 -0.00000000000E+00 -0.86944119175E+02  0.86944119175E+02  0.00000000000E+00 0. -1.
          6    2    1    2  502    0  0.60825405543E+02 -0.77669330751E+02  0.52109801304E+02  0.20343140149E+03  0.17010775650E+03 0.  0.
         24    2    3    3    0    0  0.39191349903E+02 -0.10841705574E+02  0.86516263253E+02  0.12507415247E+03  0.80653427215E+02 0.  0.
         -6    2    1    2    0  503 -0.60825405543E+02  0.77669330751E+02  0.88235728343E+03  0.90492392160E+03  0.17493048150E+03 0.  0.
        -24    2    5    5    0    0 -0.82985303560E+02  0.44902034525E+01  0.37286184393E+03  0.38970169903E+03  0.77037244472E+02 0.  0.
          4    1    4    4  501    0 -0.18999676224E+02  0.11136672388E+02  0.50836626634E+01  0.22602141371E+02  0.00000000000E+00 0. -1.
         -3    1    4    4    0  501  0.58191026127E+02 -0.21978377961E+02  0.81432600589E+02  0.10247201110E+03  0.00000000000E+00 0.  1.
          5    1    3    3  502    0  0.21634055640E+02 -0.66827625177E+02 -0.34406461948E+02  0.78357249020E+02  0.47000000000E+01 0. -1.
         11    1    6    6    0    0 -0.22278807042E+02 -0.11549479227E+02  0.25433995492E+03  0.25557493692E+03  0.00000000000E+00 0. -1.
        -12    1    6    6    0    0 -0.60706496518E+02  0.16039682680E+02  0.11852188901E+03  0.13412676211E+03  0.00000000000E+00 0.  1.
         -5    1    5    5    0  503  0.22159898017E+02  0.73179127298E+02  0.50949543950E+03  0.51522222257E+03  0.47000000000E+01 0.  1.
<mgrwt>
<rscale>  2 0.19977569E+03</rscale>
<asrwt>0</asrwt>
<pdfrwt beam="1">  1       21 0.15714018E+00 0.20083060E+03</pdfrwt>
<pdfrwt beam="2">  1       21 0.13376019E-01 0.20083060E+03</pdfrwt>
<totfact> 0.12680048E+04</totfact>
</mgrwt>
</event>
<event>
12    1  0.1473662E-001  0.1822584E+03  0.7546771E-02  0.1166830E+00
         21   -1    0    0  504  503  0.00000000000E+00  0.00000000000E+00  0.53928232758E+03  0.53928232758E+03  0.00000000000E+00 0.  1.
         21   -1    0    0  502  504 -0.00000000000E+00 -0.00000000000E+00 -0.88093228174E+02  0.88093228174E+02  0.00000000000E+00 0.  1.
          6    2    1    2  502    0  0.39029049406E+02 -0.75893799731E+01  0.50372338631E+02  0.18909120944E+03  0.17786862456E+03 0.  0.
         24    2    3    3    0    0  0.29531934833E+02  0.62511093120E+02  0.60086808915E+02  0.11753191622E+03  0.73644787915E+02 0.  0.
         -6    2    1    2    0  503 -0.39029049406E+02  0.75893799731E+01  0.40081676077E+03  0.43828434631E+03  0.17279533303E+03 0.  0.
        -24    2    5    5    0    0  0.22440594312E+02  0.33017857308E+02  0.32471073110E+03  0.33709471091E+03  0.81252852648E+02 0.  0.
          4    1    4    4  501    0  0.39010180683E+02  0.66749850681E+02  0.69168082853E+02  0.10373794122E+03  0.00000000000E+00 0. -1.
         -3    1    4    4    0  501 -0.94782458501E+01 -0.42387575604E+01 -0.90812739377E+01  0.13793975003E+02  0.00000000000E+00 0.  1.
          5    1    3    3  502    0  0.94971145734E+01 -0.70100473093E+02 -0.97144702837E+01  0.71559293219E+02  0.47000000000E+01 0. -1.
         13    1    6    6    0    0 -0.38953088733E+01  0.39153148076E+02  0.65008515925E+02  0.75988483195E+02  0.00000000000E+00 0. -1.
        -14    1    6    6    0    0  0.26335903185E+02 -0.61352907679E+01  0.25970221517E+03  0.26110622772E+03  0.00000000000E+00 0.  1.
         -5    1    5    5    0  503 -0.61469643718E+02 -0.25428477335E+02  0.76106029674E+02  0.10118963539E+03  0.47000000000E+01 0.  1.
<mgrwt>
<rscale>  2 0.18100866E+03</rscale>
<asrwt>0</asrwt>
<pdfrwt beam="1">  1       21 0.82966510E-01 0.18225837E+03</pdfrwt>
<pdfrwt beam="2">  1       21 0.13552805E-01 0.18225837E+03</pdfrwt>
<totfact> 0.59998050E+04</totfact>
</mgrwt>
</event>
<event>
12    1  0.1473662E-001  0.1907281E+03  0.7546771E-02  0.1157865E+00
         21   -1    0    0  504  503  0.00000000000E+00  0.00000000000E+00  0.21951379524E+03  0.21951379524E+03  0.00000000000E+00 0.  1.
         21   -1    0    0  502  504 -0.00000000000E+00 -0.00000000000E+00 -0.24243482155E+03  0.24243482155E+03  0.00000000000E+00 0.  1.
          6    2    1    2  502    0 -0.41965810106E+02  0.68540169219E+02 -0.14159012555E+03  0.23753944425E+03  0.17296918774E+03 0.  0.
         24    2    3    3    0    0 -0.79814959949E+01  0.10522903725E+03 -0.13043882580E+03  0.18608608548E+03  0.80479123844E+02 0.  0.
         -6    2    1    2    0  503  0.41965810106E+02 -0.68540169219E+02  0.11866909924E+03  0.22440917254E+03  0.17267958070E+03 0.  0.
        -24    2    5    5    0    0  0.58401518105E+02 -0.59420344140E+01  0.12273930276E+03  0.15939136317E+03  0.83033879360E+02 0.  0.
          4    1    4    4  501    0  0.17946213952E+02  0.60567256282E+02 -0.11661526512E+03  0.13262571088E+03  0.00000000000E+00 0. -1.
         -3    1    4    4    0  501 -0.25927709947E+02  0.44661780965E+02 -0.13823560682E+02  0.53460374596E+02  0.00000000000E+00 0.  1.
          5    1    3    3  502    0 -0.33984314111E+02 -0.36688868028E+02 -0.11151299753E+02  0.51453358772E+02  0.47000000000E+01 0. -1.
         13    1    6    6    0    0 -0.12444079946E+02  0.21579002735E+02  0.39264896261E+02  0.46499898528E+02  0.00000000000E+00 0. -1.
        -14    1    6    6    0    0  0.70845598051E+02 -0.27521037149E+02  0.83474406503E+02  0.11289146465E+03  0.00000000000E+00 0.  1.
         -5    1    5    5    0  503 -0.16435707999E+02 -0.62598134805E+02 -0.40702035196E+01  0.65017809369E+02  0.47000000000E+01 0.  1.
<mgrwt>
<rscale>  2 0.19066246E+03</rscale>
<asrwt>0</asrwt>
<pdfrwt beam="1">  1       21 0.33771353E-01 0.19072814E+03</pdfrwt>
<pdfrwt beam="2">  1       21 0.37297665E-01 0.19072814E+03</pdfrwt>
<totfact> 0.58611199E+04</totfact>
</mgrwt>
</event>
<event>
12    1  0.1473662E-001  0.1913879E+03  0.7546771E-02  0.1159491E+00
         21   -1    0    0  504  503  0.00000000000E+00  0.00000000000E+00  0.16046002744E+03  0.16046002744E+03  0.00000000000E+00 0. -1.
         21   -1    0    0  502  504 -0.00000000000E+00 -0.00000000000E+00 -0.22174139876E+03  0.22174139876E+03  0.00000000000E+00 0. -1.
          6    2    1    2  502    0 -0.58185996625E+02  0.14873839082E+01 -0.81384522209E+00  0.18148859804E+03  0.17190004758E+03 0.  0.
         24    2    3    3    0    0 -0.70976140261E+02  0.26020232933E+02 -0.40403240096E+02  0.13296171227E+03  0.10164511849E+03 0.  0.
         -6    2    1    2    0  503  0.58185996625E+02 -0.14873839082E+01 -0.60467526092E+02  0.20071282816E+03  0.18232250317E+03 0.  0.
        -24    2    5    5    0    0  0.21718250765E+01 -0.30160005956E+02 -0.93312111864E+02  0.12957519056E+03  0.84665441617E+02 0.  0.
          4    1    4    4  501    0 -0.33525366829E+02  0.62411399747E+02 -0.38672195382E+02  0.80713516434E+02  0.00000000000E+00 0. -1.
         -3    1    4    4    0  501 -0.37450773432E+02 -0.36391166815E+02 -0.17310447140E+01  0.52248195840E+02  0.00000000000E+00 0.  1.
          5    1    3    3  502    0  0.12790143635E+02 -0.24532849024E+02  0.39589394874E+02  0.48526885764E+02  0.47000000000E+01 0. -1.
         11    1    6    6    0    0 -0.18113347308E+02 -0.25489418181E+02  0.26494461575E+01  0.31381895335E+02  0.00000000000E+00 0. -1.
        -12    1    6    6    0    0  0.20285172384E+02 -0.46705877754E+01 -0.95961558022E+02  0.98193295223E+02  0.00000000000E+00 0.  1.
         -5    1    5    5    0  503  0.56014171549E+02  0.28672622048E+02  0.32844585772E+02  0.71137637605E+02  0.47000000000E+01 0.  1.
<mgrwt>
<rscale>  2 0.18886307E+03</rscale>
<asrwt>0</asrwt>
<pdfrwt beam="1">  1       21 0.24686158E-01 0.19138787E+03</pdfrwt>
<pdfrwt beam="2">  1       21 0.34114062E-01 0.19138787E+03</pdfrwt>
<totfact> 0.12852917E+05</totfact>
</mgrwt>
</event>
<event>
12    1  0.1473662E-001  0.1847885E+03  0.7546771E-02  0.1163647E+00
         21   -1    0    0  504  503  0.00000000000E+00  0.00000000000E+00  0.41861441681E+02  0.41861441681E+02  0.00000000000E+00 0.  1.
         21   -1    0    0  502  504 -0.00000000000E+00 -0.00000000000E+00 -0.82795481312E+03  0.82795481312E+03  0.00000000000E+00 0.  1.
          6    2    1    2  502    0  0.41250232081E+02  0.36601125200E+02 -0.46197401458E+03  0.49756083385E+03  0.17636771028E+03 0.  0.
         24    2    3    3    0    0  0.78449213608E+02  0.60374951946E+02 -0.24206977749E+03  0.27321974855E+03  0.79068577118E+02 0.  0.
         -6    2    1    2    0  503 -0.41250232081E+02 -0.36601125200E+02 -0.32411935686E+03  0.37225542094E+03  0.17458383922E+03 0.  0.
        -24    2    5    5    0    0  0.44133621412E+02 -0.18430642166E+02 -0.14474762861E+03  0.17271375665E+03  0.81183130272E+02 0.  0.
          2    1    4    4  501    0  0.73813564053E+02  0.68857521564E+02 -0.15097131560E+03  0.18160985284E+03  0.00000000000E+00 0. -1.
         -1    1    4    4    0  501  0.46356495551E+01 -0.84825696183E+01 -0.91098461889E+02  0.91609895714E+02  0.00000000000E+00 0.  1.
          5    1    3    3  502    0 -0.37198981526E+02 -0.23773826745E+02 -0.21990423709E+03  0.22434108530E+03  0.47000000000E+01 0. -1.
         11    1    6    6    0    0  0.56688212630E+02  0.14878092083E+02 -0.88333177213E+02  0.10600783590E+03  0.00000000000E+00 0. -1.
        -12    1    6    6    0    0 -0.12554591218E+02 -0.33308734249E+02 -0.56414451393E+02  0.66705920756E+02  0.00000000000E+00 0.  1.
         -5    1    5    5    0  503 -0.85383853493E+02 -0.18170483034E+02 -0.17937172825E+03  0.19954166429E+03  0.47000000000E+01 0.  1.
<mgrwt>
<rscale>  2 0.18436158E+03</rscale>
<asrwt>0</asrwt>
<pdfrwt beam="1">  1       21 0.64402225E-02 0.18478851E+03</pdfrwt>
<pdfrwt beam="2">  1       21 0.12737765E+00 0.18478851E+03</pdfrwt>
<totfact> 0.79749926E+04</totfact>
</mgrwt>
</event>
<event>
12    1  0.1473662E-001  0.2248713E+03  0.7546771E-02  0.1130960E+00
         21   -1    0    0  504  503  0.00000000000E+00  0.00000000000E+00  0.52896028005E+03  0.52896028005E+03  0.00000000000E+00 0. -1.
         21   -1    0    0  502  504 -0.00000000000E+00 -0.00000000000E+00 -0.95063394110E+02  0.95063394110E+02  0.00000000000E+00 0.  1.
          6    2    1    2  502    0  0.37152399544E+02  0.13481867570E+03  0.25053061873E+03  0.33664917963E+03  0.17609856080E+03 0.  0.
         24    2    3    3    0    0  0.37016838489E+02  0.85248814648E+02  0.73726010105E+02  0.15296698362E+03  0.96570009737E+02 0.  0.
         -6    2    1    2    0  503 -0.37152399544E+02 -0.13481867570E+03  0.18336626721E+03  0.28737449453E+03  0.17147750886E+03 0.  0.
        -24    2    5    5    0    0 -0.45248099089E+02 -0.10391445345E+03  0.47151355091E+02  0.14738448207E+03  0.81567954254E+02 0.  0.
          2    1    4    4  501    0  0.61959093295E+02  0.87371760057E+02  0.49017866245E+02  0.11779433309E+03  0.00000000000E+00 0. -1.
         -1    1    4    4    0  501 -0.24942254806E+02 -0.21229454090E+01  0.24708143861E+02  0.35172650527E+02  0.00000000000E+00 0.  1.
          5    1    3    3  502    0  0.13556105555E+00  0.49569861053E+02  0.17680460862E+03  0.18368219601E+03  0.47000000000E+01 0. -1.
         13    1    6    6    0    0 -0.23271366923E+02 -0.36828028067E+02  0.61480441021E+02  0.75350546102E+02  0.00000000000E+00 0. -1.
        -14    1    6    6    0    0 -0.21976732165E+02 -0.67086425385E+02 -0.14329085930E+02  0.72033935969E+02  0.00000000000E+00 0.  1.
         -5    1    5    5    0  503  0.80956995446E+01 -0.30904222248E+02  0.13621491212E+03  0.13999001246E+03  0.47000000000E+01 0.  1.
<mgrwt>
<rscale>  2 0.22396577E+03</rscale>
<asrwt>0</asrwt>
<pdfrwt beam="1">  1       21 0.81378503E-01 0.22487125E+03</pdfrwt>
<pdfrwt beam="2">  1       21 0.14625138E-01 0.22487125E+03</pdfrwt>
<totfact> 0.53528302E+04</totfact>
</mgrwt>
</event>
<event>
12    1  0.1473662E-001  0.2110547E+03  0.7546771E-02  0.1140944E+00
         21   -1    0    0  504  503  0.00000000000E+00  0.00000000000E+00  0.48090168688E+02  0.48090168688E+02  0.00000000000E+00 0.  1.
         21   -1    0    0  502  504 -0.00000000000E+00 -0.00000000000E+00 -0.10817132073E+04  0.10817132073E+04  0.00000000000E+00 0.  1.
          6    2    1    2  502    0  0.66672833221E+02  0.10048555228E+03 -0.73526751919E+03  0.76495909919E+03  0.17320936968E+03 0.  0.
         24    2    3    3    0    0  0.41219874343E+01  0.12253197687E+03 -0.49797680329E+03  0.51852933841E+03  0.76555222143E+02 0.  0.
         -6    2    1    2    0  503 -0.66672833221E+02 -0.10048555228E+03 -0.29835551943E+03  0.36484427681E+03  0.17190903827E+03 0.  0.
        -24    2    5    5    0    0 -0.50335435500E+01  0.12742414972E+02 -0.10922749461E+03  0.13590875232E+03  0.79704690447E+02 0.  0.
          2    1    4    4  501    0 -0.33559451525E+02  0.45471323917E+02 -0.24393558464E+03  0.25039658052E+03  0.00000000000E+00 0. -1.
         -1    1    4    4    0  501  0.37681438959E+02  0.77060652953E+02 -0.25404121865E+03  0.26813275789E+03  0.00000000000E+00 0.  1.
          5    1    3    3  502    0  0.62550845787E+02 -0.22046424588E+02 -0.23729071590E+03  0.24642976078E+03  0.47000000000E+01 0. -1.
         13    1    6    6    0    0 -0.15327439689E+02  0.44180114909E+02 -0.74392095004E+02  0.87869202568E+02  0.00000000000E+00 0. -1.
        -14    1    6    6    0    0  0.10293896139E+02 -0.31437699937E+02 -0.34835399608E+02  0.48039549757E+02  0.00000000000E+00 0.  1.
         -5    1    5    5    0  503 -0.61639289671E+02 -0.11322796725E+03 -0.18912802482E+03  0.22893552448E+03  0.47000000000E+01 0.  1.
<mgrwt>
<rscale>  2 0.21078776E+03</rscale>
<asrwt>0</asrwt>
<pdfrwt beam="1">  1       21 0.73984878E-02 0.21105473E+03</pdfrwt>
<pdfrwt beam="2">  1       21 0.16641741E+00 0.21105473E+03</pdfrwt>
<totfact> 0.30728773E+04</totfact>
</mgrwt>
</event>
<event>
12    1  0.1473662E-001  0.1871377E+03  0.7546771E-02  0.1162513E+00
         21   -1    0    0  504  503  0.00000000000E+00  0.00000000000E+00  0.17652345165E+04  0.17652345165E+04  0.00000000000E+00 0. -1.
         21   -1    0    0  502  504 -0.00000000000E+00 -0.00000000000E+00 -0.48287916987E+02  0.48287916987E+02  0.00000000000E+00 0. -1.
          6    2    1    2  502    0 -0.49446993769E+02  0.19683064060E+02  0.16034493549E+03  0.24643665664E+03  0.17941042109E+03 0.  0.
         24    2    3    3    0    0 -0.35220506298E+02  0.75262898377E+02  0.15237011467E+03  0.18832298617E+03  0.73102033759E+02 0.  0.
         -6    2    1    2    0  503  0.49446993769E+02 -0.19683064060E+02  0.15566016640E+04  0.15670857768E+04  0.17296434130E+03 0.  0.
        -24    2    5    5    0    0 -0.55266618926E+01 -0.50098902133E+02  0.12121420093E+04  0.12169118632E+04  0.95109348968E+02 0.  0.
          2    1    4    4  501    0 -0.21088730368E+01 -0.99558336609E+01  0.50193310745E+02  0.51214591797E+02  0.00000000000E+00 0. -1.
         -1    1    4    4    0  501 -0.33111633261E+02  0.85218732038E+02  0.10217680392E+03  0.13710839437E+03  0.00000000000E+00 0.  1.
          5    1    3    3  502    0 -0.14226487471E+02 -0.55579834317E+02  0.79748208249E+01  0.58113670471E+02  0.47000000000E+01 0. -1.
         11    1    6    6    0    0  0.44085021329E+01  0.92367356553E+01  0.83000256016E+03  0.83006566129E+03  0.00000000000E+00 0. -1.
        -12    1    6    6    0    0 -0.99351640256E+01 -0.59335637788E+02  0.38213944911E+03  0.38684620195E+03  0.00000000000E+00 0.  1.
         -5    1    5    5    0  503  0.54973655662E+02  0.30415838072E+02  0.34445965473E+03  0.35017391359E+03  0.47000000000E+01 0.  1.
<mgrwt>
<rscale>  2 0.18557562E+03</rscale>
<asrwt>0</asrwt>
<pdfrwt beam="1">  1       21 0.27157449E+00 0.18713772E+03</pdfrwt>
<pdfrwt beam="2">  1       21 0.74289117E-02 0.18713772E+03</pdfrwt>
<totfact> 0.68336587E+03</totfact>
</mgrwt>
</event>
<event>
12    1  0.1473662E-001  0.1756828E+03  0.7546771E-02  0.1172180E+00
         21   -1    0    0  504  503  0.00000000000E+00  0.00000000000E+00  0.13511748996E+04  0.13511748996E+04  0.00000000000E+00 0.  1.
         21   -1    0    0  502  504 -0.00000000000E+00 -0.00000000000E+00 -0.51152035432E+02  0.51152035432E+02  0.00000000000E+00 0.  1.
          6    2    1    2  502    0  0.29907344750E+02 -0.98411581818E+01  0.12732236825E+03  0.21653990353E+03  0.17229987435E+03 0.  0.
         24    2    3    3    0    0  0.79147756485E+02 -0.22903819176E+02  0.11697660151E+03  0.16434434673E+03  0.80849160247E+02 0.  0.
         -6    2    1    2    0  503 -0.29907344750E+02  0.98411581818E+01  0.11727004959E+04  0.11857870315E+04  0.17283846010E+03 0.  0.
        -24    2    5    5    0    0  0.45520701848E+02  0.15572998374E+02  0.48758142979E+03  0.49648849750E+03  0.80315159834E+02 0.  0.
          2    1    4    4  501    0  0.28119342750E+02 -0.82325178824E+01  0.10619798431E+03  0.11016571000E+03  0.00000000000E+00 0. -1.
         -1    1    4    4    0  501  0.51028413735E+02 -0.14671301294E+02  0.10778617202E+02  0.54178636737E+02  0.00000000000E+00 0.  1.
          5    1    3    3  502    0 -0.49240411736E+02  0.13062660994E+02  0.10345766741E+02  0.52195556799E+02  0.47000000000E+01 0. -1.
         13    1    6    6    0    0  0.14575867137E+02  0.26358084579E+02  0.55332542616E+02  0.62999165057E+02  0.00000000000E+00 0. -1.
        -14    1    6    6    0    0  0.30944834711E+02 -0.10785086205E+02  0.43224888717E+03  0.43348933244E+03  0.00000000000E+00 0.  1.
         -5    1    5    5    0  503 -0.75428046598E+02 -0.57318401926E+01  0.68511906612E+03  0.68929853399E+03  0.47000000000E+01 0.  1.
<mgrwt>
<rscale>  2 0.17555015E+03</rscale>
<asrwt>0</asrwt>
<pdfrwt beam="1">  1       21 0.20787303E+00 0.17568276E+03</pdfrwt>
<pdfrwt beam="2">  1       21 0.78695449E-02 0.17568276E+03</pdfrwt>
<totfact> 0.14986994E+04</totfact>
</mgrwt>
</event>
<event>
12    1  0.1473662E-001  0.2011738E+03  0.7546771E-02  0.1150009E+00
         21   -1    0    0  504  503  0.00000000000E+00  0.00000000000E+00  0.31945289436E+03  0.31945289436E+03  0.00000000000E+00 0. -1.
         21   -1    0    0  502  504 -0.00000000000E+00 -0.00000000000E+00 -0.17989995375E+03  0.17989995375E+03  0.00000000000E+00 0.  1.
          6    2    1    2  502    0  0.76868141756E+02  0.67577491303E+02 -0.71344133546E+02  0.20789365820E+03  0.16629599869E+03 0.  0.
         24    2    3    3    0    0  0.70915301640E+02  0.91578105999E+02 -0.97646055263E+02  0.17148834406E+03  0.80361499090E+02 0.  0.
         -6    2    1    2    0  503 -0.76868141756E+02 -0.67577491303E+02  0.21089707415E+03  0.29145918991E+03  0.17319195983E+03 0.  0.
        -24    2    5    5    0    0 -0.19941892582E+02  0.17079474959E+02  0.14900962512E+03  0.17204584841E+03  0.81893333258E+02 0.  0.
          4    1    4    4  501    0  0.81452950383E+02  0.65112921603E+02 -0.49235595444E+02  0.11531877360E+03  0.00000000000E+00 0. -1.
         -3    1    4    4    0  501 -0.10537648743E+02  0.26465184397E+02 -0.48410459819E+02  0.56169570464E+02  0.00000000000E+00 0.  1.
          5    1    3    3  502    0  0.59528401156E+01 -0.24000614697E+02  0.26301921717E+02  0.36405314135E+02  0.47000000000E+01 0. -1.
         13    1    6    6    0    0 -0.50174868917E+02  0.16416905495E+02  0.71752314537E+02  0.89081013119E+02  0.00000000000E+00 0. -1.
        -14    1    6    6    0    0  0.30232976335E+02  0.66256946334E+00  0.77257310578E+02  0.82964835287E+02  0.00000000000E+00 0.  1.
         -5    1    5    5    0  503 -0.56926249174E+02 -0.84656966261E+02  0.61887449035E+02  0.11941334151E+03  0.47000000000E+01 0.  1.
<mgrwt>
<rscale>  2 0.19968091E+03</rscale>
<asrwt>0</asrwt>
<pdfrwt beam="1">  1       21 0.49146599E-01 0.20117376E+03</pdfrwt>
<pdfrwt beam="2">  1       21 0.27676916E-01 0.20117376E+03</pdfrwt>
<totfact> 0.49004725E+04</totfact>
</mgrwt>
</event>
<event>
12    1  0.1473662E-001  0.1826561E+03  0.7546771E-02  0.1165275E+00
         21   -1    0    0  504  503  0.00000000000E+00  0.00000000000E+00  0.17159925244E+03  0.17159925244E+03  0.00000000000E+00 0. -1.
         21   -1    0    0  502  504 -0.00000000000E+00 -0.00000000000E+00 -0.51460416603E+03  0.51460416603E+03  0.00000000000E+00 0. -1.
          6    2    1    2  502    0 -0.42598862790E+01 -0.58786377432E+02 -0.44215774614E+03  0.47837047418E+03  0.17280293198E+03 0.  0.
         24    2    3    3    0    0  0.30045128407E+02 -0.41377729665E+02 -0.12764771965E+03  0.16148162646E+03  0.84661379034E+02 0.  0.
         -6    2    1    2    0  503  0.42598862790E+01  0.58786377432E+02  0.99152832548E+02  0.20783294428E+03  0.17288511713E+03 0.  0.
        -24    2    5    5    0    0 -0.54327934747E+02  0.71569249506E+02  0.79372821990E+02  0.14451412079E+03  0.80688315559E+02 0.  0.
          2    1    4    4  501    0  0.30021560899E+02 -0.37069924562E+02 -0.14026222396E+03  0.14815183055E+03  0.00000000000E+00 0. -1.
         -1    1    4    4    0  501  0.23567508194E-01 -0.43078051032E+01  0.12614504306E+02  0.13329795914E+02  0.00000000000E+00 0.  1.
          5    1    3    3  502    0 -0.34305014686E+02 -0.17408647767E+02 -0.31451002649E+03  0.31688884772E+03  0.47000000000E+01 0. -1.
         13    1    6    6    0    0  0.10320996686E+02  0.76693955170E+01  0.45868548133E+02  0.47636816728E+02  0.00000000000E+00 0. -1.
        -14    1    6    6    0    0 -0.64648931433E+02  0.63899853989E+02  0.33504273858E+02  0.96877304060E+02  0.00000000000E+00 0.  1.
         -5    1    5    5    0  503  0.58587821026E+02 -0.12782872074E+02  0.19780010558E+02  0.63318823494E+02  0.47000000000E+01 0.  1.
<mgrwt>
<rscale>  2 0.18263664E+03</rscale>
<asrwt>0</asrwt>
<pdfrwt beam="1">  1       21 0.26399886E-01 0.18265609E+03</pdfrwt>
<pdfrwt beam="2">  1       21 0.79169870E-01 0.18265609E+03</pdfrwt>
<totfact> 0.19332775E+04</totfact>
</mgrwt>
</event>
<event>
12    1  0.1473662E-001  0.2716549E+03  0.7546771E-02  0.1100358E+00
         21   -1    0    0  504  503  0.00000000000E+00  0.00000000000E+00  0.10628873995E+03  0.10628873995E+03  0.00000000000E+00 0.  1.
         21   -1    0    0  502  504 -0.00000000000E+00 -0.00000000000E+00 -0.70171293308E+03  0.70171293308E+03  0.00000000000E+00 0. -1.
          6    2    1    2  502    0 -0.19092345042E+03 -0.86370730795E+02 -0.34037674135E+03  0.43549131687E+03  0.17287190044E+03 0.  0.
         24    2    3    3    0    0 -0.88027690906E+02 -0.99651721878E+02 -0.13933788316E+03  0.20921132538E+03  0.81700630005E+02 0.  0.
         -6    2    1    2    0  503  0.19092345042E+03  0.86370730795E+02 -0.25504745179E+03  0.37251035615E+03  0.17263573128E+03 0.  0.
        -24    2    5    5    0    0  0.19902950058E+03  0.72825891734E+02 -0.26817436197E+03  0.35144910060E+03  0.81747350321E+02 0.  0.
          4    1    4    4  501    0 -0.44982905507E+02 -0.48423516315E+01 -0.16444899151E+02  0.48138808307E+02  0.00000000000E+00 0. -1.
         -3    1    4    4    0  501 -0.43044785399E+02 -0.94809370246E+02 -0.12289298401E+03  0.16107251707E+03  0.00000000000E+00 0.  1.
          5    1    3    3  502    0 -0.10289575952E+03  0.13280991082E+02 -0.20103885818E+03  0.22627999149E+03  0.47000000000E+01 0. -1.
         11    1    6    6    0    0  0.12270198897E+03  0.36033025818E+02 -0.21865791730E+03  0.25330898493E+03  0.00000000000E+00 0. -1.
        -12    1    6    6    0    0  0.76327511613E+02  0.36792865917E+02 -0.49516444672E+02  0.98140115673E+02  0.00000000000E+00 0.  1.
         -5    1    5    5    0  503 -0.81060501583E+01  0.13544839061E+02  0.13126910185E+02  0.21061255550E+02  0.47000000000E+01 0.  1.
<mgrwt>
<rscale>  2 0.27161729E+03</rscale>
<asrwt>0</asrwt>
<pdfrwt beam="1">  1       21 0.16352114E-01 0.27165486E+03</pdfrwt>
<pdfrwt beam="2">  1       21 0.10795584E+00 0.27165486E+03</pdfrwt>
<totfact> 0.21948559E+04</totfact>
</mgrwt>
</event>
<event>
12    1  0.1473662E-001  0.1788905E+03  0.7546771E-02  0.1169002E+00
         21   -1    0    0  504  503  0.00000000000E+00  0.00000000000E+00  0.22593695691E+04  0.22593695691E+04  0.00000000000E+00 0. -1.
         21   -1    0    0  502  504 -0.00000000000E+00 -0.00000000000E+00 -0.25465753008E+02  0.25465753008E+02  0.00000000000E+00 0. -1.
          6    2    1    2  502    0 -0.42760993310E+02  0.16114533136E+02  0.35543193649E+03  0.39791163619E+03  0.17295556658E+03 0.  0.
         24    2    3    3    0    0 -0.47185516323E+02  0.65820542938E+02  0.16220404896E+03  0.19828856554E+03  0.80308062507E+02 0.  0.
         -6    2    1    2    0  503  0.42760993310E+02 -0.16114533136E+02  0.18784718796E+04  0.18869236859E+04  0.17244191282E+03 0.  0.
        -24    2    5    5    0    0  0.80703620453E+02 -0.22258139431E+02  0.17174407826E+04  0.17213021563E+04  0.79181895735E+02 0.  0.
          2    1    4    4  501    0 -0.41414891067E+02  0.63814695921E+02  0.62663619798E+02  0.98560833315E+02  0.00000000000E+00 0. -1.
         -1    1    4    4    0  501 -0.57706252562E+01  0.20058470172E+01  0.99540429160E+02  0.99727732228E+02  0.00000000000E+00 0.  1.
          5    1    3    3  502    0  0.44245230138E+01 -0.49706009801E+02  0.19322788753E+03  0.19962307065E+03  0.47000000000E+01 0. -1.
         13    1    6    6    0    0  0.88125868315E+02 -0.39220327798E+02  0.14805922860E+04  0.14837310808E+04  0.00000000000E+00 0. -1.
        -14    1    6    6    0    0 -0.74222478619E+01  0.16962188366E+02  0.23684849657E+03  0.23757107552E+03  0.00000000000E+00 0.  1.
         -5    1    5    5    0  503 -0.37942627144E+02  0.61436062952E+01  0.16103109699E+03  0.16562152955E+03  0.47000000000E+01 0.  1.
<mgrwt>
<rscale>  2 0.17876622E+03</rscale>
<asrwt>0</asrwt>
<pdfrwt beam="1">  1       21 0.34759516E+00 0.17889049E+03</pdfrwt>
<pdfrwt beam="2">  1       21 0.39178099E-02 0.17889049E+03</pdfrwt>
<totfact> 0.74597281E+03</totfact>
</mgrwt>
</event>
<event>
12    1  0.1473662E-001  0.2072625E+03  0.7546771E-02  0.1146562E+00
         21   -1    0    0  504  503  0.00000000000E+00  0.00000000000E+00  0.30480651463E+03  0.30480651463E+03  0.00000000000E+00 0. -1.
         21   -1    0    0  502  504 -0.00000000000E+00 -0.00000000000E+00 -0.21231206441E+03  0.21231206441E+03  0.00000000000E+00 0. -1.
          6    2    1    2  502    0  0.63026621486E+02  0.56410183281E+02 -0.11375400176E+03  0.22472133095E+03  0.17437098346E+03 0.  0.
         24    2    3    3    0    0 -0.32634257625E+02  0.31982055742E+02 -0.64540012072E+02  0.11430464748E+03  0.82536613796E+02 0.  0.
         -6    2    1    2    0  503 -0.63026621486E+02 -0.56410183281E+02  0.20624845197E+03  0.29239724809E+03  0.18921750172E+03 0.  0.
        -24    2    5    5    0    0 -0.98730587747E+00 -0.25155253888E+00  0.12830867210E+02  0.81600852056E+02  0.80579338861E+02 0.  0.
          2    1    4    4  501    0  0.47179692423E+01  0.11022445375E+01 -0.65649487737E+02  0.65828029113E+02  0.00000000000E+00 0. -1.
         -1    1    4    4    0  501 -0.37352226867E+02  0.30879811205E+02  0.11094756645E+01  0.48476618366E+02  0.00000000000E+00 0.  1.
          5    1    3    3  502    0  0.95660879110E+02  0.24428127539E+02 -0.49213989684E+02  0.11041668347E+03  0.47000000000E+01 0. -1.
         11    1    6    6    0    0  0.44136267040E+01  0.29805867804E+02  0.33244766420E+02  0.44867408556E+02  0.00000000000E+00 0. -1.
        -12    1    6    6    0    0 -0.54009325815E+01 -0.30057420342E+02 -0.20413899210E+02  0.36733443500E+02  0.00000000000E+00 0.  1.
         -5    1    5    5    0  503 -0.62039315608E+02 -0.56158630742E+02  0.19341758476E+03  0.21079639604E+03  0.47000000000E+01 0.  1.
<mgrwt>
<rscale>  2 0.20381247E+03</rscale>
<asrwt>0</asrwt>
<pdfrwt beam="1">  1       21 0.46893310E-01 0.20726246E+03</pdfrwt>
<pdfrwt beam="2">  1       21 0.32663394E-01 0.20726246E+03</pdfrwt>
<totfact> 0.38973513E+04</totfact>
</mgrwt>
</event>
<event>
12    1  0.1473662E-001  0.2143959E+03  0.7546771E-02  0.1138217E+00
         21   -1    0    0  504  503  0.00000000000E+00  0.00000000000E+00  0.11628424908E+04  0.11628424908E+04  0.00000000000E+00 0. -1.
         21   -1    0    0  502  504 -0.00000000000E+00 -0.00000000000E+00 -0.50735489369E+02  0.50735489369E+02  0.00000000000E+00 0. -1.
          6    2    1    2  502    0  0.11700476495E+03 -0.49340342845E+02  0.84182629396E+03  0.86858918202E+03  0.17219487063E+03 0.  0.
         24    2    3    3    0    0  0.10184854004E+03 -0.13360837910E+02  0.34931664764E+03  0.37451218635E+03  0.87667669718E+02 0.  0.
         -6    2    1    2    0  503 -0.11700476495E+03  0.49340342845E+02  0.27028070746E+03  0.34498879813E+03  0.17274555149E+03 0.  0.
        -24    2    5    5    0    0 -0.80396550614E+02  0.98693202506E+02  0.20920748074E+03  0.25822535459E+03  0.81906105896E+02 0.  0.
          2    1    4    4  501    0  0.85816201276E+02  0.27713969631E+02  0.25272092702E+03  0.26832881222E+03  0.00000000000E+00 0. -1.
         -1    1    4    4    0  501  0.16032338762E+02 -0.41074807541E+02  0.96595720616E+02  0.10618337413E+03  0.00000000000E+00 0.  1.
          5    1    3    3  502    0  0.15156224914E+02 -0.35979504935E+02  0.49250964632E+03  0.49407699567E+03  0.47000000000E+01 0. -1.
         11    1    6    6    0    0 -0.11912121752E+02  0.65769429556E+02  0.55957583819E+02  0.87170910834E+02  0.00000000000E+00 0. -1.
        -12    1    6    6    0    0 -0.68484428862E+02  0.32923772951E+02  0.15324989692E+03  0.17105444376E+03  0.00000000000E+00 0.  1.
         -5    1    5    5    0  503 -0.36608214337E+02 -0.49352859661E+02  0.61073226714E+02  0.86763443540E+02  0.47000000000E+01 0.  1.
<mgrwt>
<rscale>  2 0.21428497E+03</rscale>
<asrwt>0</asrwt>
<pdfrwt beam="1">  1       21 0.17889883E+00 0.21439592E+03</pdfrwt>
<pdfrwt beam="2">  1       21 0.78054607E-02 0.21439592E+03</pdfrwt>
<totfact> 0.22843615E+04</totfact>
</mgrwt>
</event>
<event>
12    1  0.1473662E-001  0.1979124E+03  0.7546771E-02  0.1151692E+00
         21   -1    0    0  504  503  0.00000000000E+00  0.00000000000E+00  0.84985744425E+03  0.84985744425E+03  0.00000000000E+00 0.  1.
         21   -1    0    0  502  504 -0.00000000000E+00 -0.00000000000E+00 -0.61798077795E+02  0.61798077795E+02  0.00000000000E+00 0.  1.
          6    2    1    2  502    0  0.94435023239E+02 -0.26104788574E+02  0.16216810568E+03  0.25521879522E+03  0.17099329032E+03 0.  0.
         24    2    3    3    0    0  0.10561634441E+03  0.33243347352E+02  0.10783248610E+03  0.17384513403E+03  0.79588650044E+02 0.  0.
         -6    2    1    2    0  503 -0.94435023239E+02  0.26104788574E+02  0.62589126077E+03  0.65643672682E+03  0.17195892652E+03 0.  0.
        -24    2    5    5    0    0 -0.31508027232E+02 -0.38357776040E+02  0.22922406666E+03  0.24964171462E+03  0.85517472967E+02 0.  0.
          2    1    4    4  501    0  0.65148620775E+02  0.44700754291E+02  0.10538754003E+03  0.13171573109E+03  0.00000000000E+00 0. -1.
         -1    1    4    4    0  501  0.40467723638E+02 -0.11457406939E+02  0.24449460656E+01  0.42129402933E+02  0.00000000000E+00 0.  1.
          5    1    3    3  502    0 -0.11181321174E+02 -0.59348135925E+02  0.54335619586E+02  0.81373661198E+02  0.47000000000E+01 0. -1.
         11    1    6    6    0    0  0.24126922366E+02 -0.15270231525E+02  0.13367732842E+03  0.13669278140E+03  0.00000000000E+00 0. -1.
        -12    1    6    6    0    0 -0.55634949598E+02 -0.23087544515E+02  0.95546738241E+02  0.11294893323E+03  0.00000000000E+00 0.  1.
         -5    1    5    5    0  503 -0.62926996007E+02  0.64462564614E+02  0.39666719411E+03  0.40679501219E+03  0.47000000000E+01 0.  1.
<mgrwt>
<rscale>  2 0.19770243E+03</rscale>
<asrwt>0</asrwt>
<pdfrwt beam="1">  1       21 0.13074729E+00 0.19791237E+03</pdfrwt>
<pdfrwt beam="2">  1       21 0.95073972E-02 0.19791237E+03</pdfrwt>
<totfact> 0.37678173E+04</totfact>
</mgrwt>
</event>
<event>
12    1  0.1473662E-001  0.1957545E+03  0.7546771E-02  0.1153686E+00
         21   -1    0    0  504  503  0.00000000000E+00  0.00000000000E+00  0.35221951310E+03  0.35221951310E+03  0.00000000000E+00 0.  1.
         21   -1    0    0  502  504 -0.00000000000E+00 -0.00000000000E+00 -0.40551760904E+03  0.40551760904E+03  0.00000000000E+00 0. -1.
          6    2    1    2  502    0  0.36227114712E+01 -0.89439539423E+02 -0.35119803688E+03  0.40206951191E+03  0.17408985051E+03 0.  0.
         24    2    3    3    0    0  0.35299656439E+02 -0.11808239137E+01 -0.24728492046E+03  0.26202289300E+03  0.79111974289E+02 0.  0.
         -6    2    1    2    0  503 -0.36227114712E+01  0.89439539423E+02  0.29789994094E+03  0.35566761023E+03  0.17246019514E+03 0.  0.
        -24    2    5    5    0    0  0.25143063342E+02  0.11363383935E+03  0.28072530948E+03  0.31407564087E+03  0.79322038086E+02 0.  0.
          2    1    4    4  501    0  0.20500675421E+02 -0.96167130911E+01 -0.24352866547E+03  0.24457916871E+03  0.00000000000E+00 0. -1.
         -1    1    4    4    0  501  0.14798981018E+02  0.84358891775E+01 -0.37562549977E+01  0.17443724287E+02  0.00000000000E+00 0.  1.
          5    1    3    3  502    0 -0.31676944968E+02 -0.88258715510E+02 -0.10391311641E+03  0.14004661891E+03  0.47000000000E+01 0. -1.
         11    1    6    6    0    0  0.48729190135E+01  0.68540398076E+02  0.71806506085E+02  0.99386648119E+02  0.00000000000E+00 0. -1.
        -12    1    6    6    0    0  0.20270144328E+02  0.45093441275E+02  0.20891880339E+03  0.21468899275E+03  0.00000000000E+00 0.  1.
         -5    1    5    5    0  503 -0.28765774813E+02 -0.24194299928E+02  0.17174631460E+02  0.41591969362E+02  0.47000000000E+01 0.  1.
<mgrwt>
<rscale>  2 0.19539154E+03</rscale>
<asrwt>0</asrwt>
<pdfrwt beam="1">  1       21 0.54187617E-01 0.19575452E+03</pdfrwt>
<pdfrwt beam="2">  1       21 0.62387325E-01 0.19575452E+03</pdfrwt>
<totfact> 0.76511848E+03</totfact>
</mgrwt>
</event>
<event>
12    1  0.1473662E-001  0.1984472E+03  0.7546771E-02  0.1154214E+00
         21   -1    0    0  504  503  0.00000000000E+00  0.00000000000E+00  0.11847734692E+03  0.11847734692E+03  0.00000000000E+00 0.  1.
         21   -1    0    0  502  504 -0.00000000000E+00 -0.00000000000E+00 -0.83147514266E+03  0.83147514266E+03  0.00000000000E+00 0.  1.
          6    2    1    2  502    0 -0.27803035658E+02  0.53341200591E+02 -0.72799625916E+03  0.75093927952E+03  0.17410616217E+03 0.  0.
         24    2    3    3    0    0  0.96442568788E+01 -0.35073228469E+02 -0.32688926220E+03  0.33847313061E+03  0.79901985962E+02 0.  0.
         -6    2    1    2    0  503  0.27803035658E+02 -0.53341200591E+02  0.14998463417E+02  0.19901321006E+03  0.18911110862E+03 0.  0.
        -24    2    5    5    0    0  0.39436156157E+02 -0.65091549600E+02  0.78046517568E+02  0.13366378522E+03  0.77347452021E+02 0.  0.
          4    1    4    4  501    0  0.22416717671E+02 -0.20165339011E+02 -0.36159822643E+02  0.47081662058E+02  0.00000000000E+00 0. -1.
         -3    1    4    4    0  501 -0.12772460792E+02 -0.14907889458E+02 -0.29072943955E+03  0.29139146855E+03  0.00000000000E+00 0.  1.
          5    1    3    3  502    0 -0.37447292537E+02  0.88414429060E+02 -0.40110699696E+03  0.41246614891E+03  0.47000000000E+01 0. -1.
         13    1    6    6    0    0  0.16188128082E+02 -0.41232412058E+02 -0.46209076541E+01  0.44536727343E+02  0.00000000000E+00 0. -1.
        -14    1    6    6    0    0  0.23248028076E+02 -0.23859137542E+02  0.82667425222E+02  0.89127057881E+02  0.00000000000E+00 0.  1.
         -5    1    5    5    0  503 -0.11633120499E+02  0.11750349009E+02 -0.63048054150E+02  0.65349424837E+02  0.47000000000E+01 0.  1.
<mgrwt>
<rscale>  2 0.19478646E+03</rscale>
<asrwt>0</asrwt>
<pdfrwt beam="1">  1       21 0.18227284E-01 0.19844723E+03</pdfrwt>
<pdfrwt beam="2">  1       21 0.12791925E+00 0.19844723E+03</pdfrwt>
<totfact> 0.12298758E+04</totfact>
</mgrwt>
</event>
<event>
12    1  0.1473662E-001  0.1739498E+03  0.7546771E-02  0.1178082E+00
         21   -1    0    0  504  503  0.00000000000E+00  0.00000000000E+00  0.65083843400E+03  0.65083843400E+03  0.00000000000E+00 0. -1.
         21   -1    0    0  502  504 -0.00000000000E+00 -0.00000000000E+00 -0.80119957456E+02  0.80119957456E+02  0.00000000000E+00 0. -1.
          6    2    1    2  502    0 -0.53455997295E+01  0.44086808190E+01  0.27056990341E+02  0.16014638557E+03  0.15769201686E+03 0.  0.
         24    2    3    3    0    0 -0.47639984760E+02 -0.11120715078E+02  0.44156105102E+02  0.11172689706E+03  0.90221391346E+02 0.  0.
         -6    2    1    2    0  503  0.53455997295E+01 -0.44086808190E+01  0.54366148620E+03  0.57081200588E+03  0.17381174466E+03 0.  0.
        -24    2    5    5    0    0 -0.36234217090E+01 -0.31225797096E+01  0.10712967843E+03  0.13416087902E+03  0.80619437911E+02 0.  0.
          4    1    4    4  501    0 -0.42777051949E+02 -0.47897100157E+02  0.19236984684E+02  0.67037824820E+02  0.00000000000E+00 0. -1.
         -3    1    4    4    0  501 -0.48629328114E+01  0.36776385079E+02  0.24919120418E+02  0.44689072237E+02  0.00000000000E+00 0.  1.
          5    1    3    3  502    0  0.42294385031E+02  0.15529395897E+02 -0.17099114760E+02  0.48419488511E+02  0.47000000000E+01 0. -1.
         11    1    6    6    0    0 -0.77468230324E+01  0.16865046643E+02  0.11171290253E+03  0.11324405352E+03  0.00000000000E+00 0. -1.
        -12    1    6    6    0    0  0.41234013234E+01 -0.19987626353E+02 -0.45832241019E+01  0.20916825497E+02  0.00000000000E+00 0.  1.
         -5    1    5    5    0  503  0.89690214385E+01 -0.12861011094E+01  0.43653180777E+03  0.43665112687E+03  0.47000000000E+01 0.  1.
<mgrwt>
<rscale>  2 0.16977553E+03</rscale>
<asrwt>0</asrwt>
<pdfrwt beam="1">  1       21 0.10012899E+00 0.17394980E+03</pdfrwt>
<pdfrwt beam="2">  1       21 0.12326148E-01 0.17394980E+03</pdfrwt>
<totfact> 0.46221070E+04</totfact>
</mgrwt>
</event>
<event>
12    1  0.1473662E-001  0.1992952E+03  0.7546771E-02  0.1154113E+00
         21   -1    0    0  504  503  0.00000000000E+00  0.00000000000E+00  0.13443096775E+03  0.13443096775E+03  0.00000000000E+00 0.  1.
         21   -1    0    0  502  504 -0.00000000000E+00 -0.00000000000E+00 -0.28606917359E+03  0.28606917359E+03  0.00000000000E+00 0.  1.
          6    2    1    2  502    0 -0.61719087001E+02  0.10355529698E+02 -0.12755869713E+03  0.23662164797E+03  0.18921442962E+03 0.  0.
         24    2    3    3    0    0  0.19174216314E+02 -0.50384430652E+02 -0.44999402118E+02  0.10596485902E+03  0.79355930675E+02 0.  0.
         -6    2    1    2    0  503  0.61719087001E+02 -0.10355529698E+02 -0.24079508713E+02  0.18387849337E+03  0.17121622262E+03 0.  0.
        -24    2    5    5    0    0  0.35597754846E+02 -0.38437723360E+02 -0.74322856643E+02  0.12049539148E+03  0.79060695806E+02 0.  0.
          2    1    4    4  501    0 -0.19220661922E+02 -0.53273864605E+02 -0.20025037439E+02  0.60071129664E+02  0.00000000000E+00 0. -1.
         -1    1    4    4    0  501  0.38394878236E+02  0.28894339528E+01 -0.24974364678E+02  0.45893729358E+02  0.00000000000E+00 0.  1.
          5    1    3    3  502    0 -0.80893303315E+02  0.60739960350E+02 -0.82559295013E+02  0.13065678895E+03  0.47000000000E+01 0. -1.
         11    1    6    6    0    0  0.74232455844E+01 -0.49170574914E+02 -0.75405599612E+02  0.90326377461E+02  0.00000000000E+00 0. -1.
        -12    1    6    6    0    0  0.28174509261E+02  0.10732851554E+02  0.10827429692E+01  0.30169014020E+02  0.00000000000E+00 0.  1.
         -5    1    5    5    0  503  0.26121332155E+02  0.28082193662E+02  0.50243347929E+02  0.63383101893E+02  0.47000000000E+01 0.  1.
<mgrwt>
<rscale>  2 0.19490203E+03</rscale>
<asrwt>0</asrwt>
<pdfrwt beam="1">  1       21 0.20681688E-01 0.19929522E+03</pdfrwt>
<pdfrwt beam="2">  1       21 0.44010642E-01 0.19929522E+03</pdfrwt>
<totfact> 0.10724449E+05</totfact>
</mgrwt>
</event>
<event>
12    1  0.1473662E-001  0.2035386E+03  0.7546771E-02  0.1146948E+00
         21   -1    0    0  504  503  0.00000000000E+00  0.00000000000E+00  0.90517208021E+02  0.90517208021E+02  0.00000000000E+00 0.  1.
         21   -1    0    0  502  504 -0.00000000000E+00 -0.00000000000E+00 -0.99981152288E+03  0.99981152288E+03  0.00000000000E+00 0.  1.
          6    2    1    2  502    0  0.10085019041E+03  0.16379248050E+02 -0.85712858178E+03  0.88096389641E+03  0.17603675867E+03 0.  0.
         24    2    3    3    0    0  0.11615762587E+03 -0.34046019167E+02 -0.70868579289E+03  0.72337463051E+03  0.79897293753E+02 0.  0.
         -6    2    1    2    0  503 -0.10085019041E+03 -0.16379248050E+02 -0.52165733078E+02  0.20936483449E+03  0.17513802997E+03 0.  0.
        -24    2    5    5    0    0  0.61852678541E+01  0.28581590827E+02 -0.69414744759E+01  0.84683681448E+02  0.79170556162E+02 0.  0.
          4    1    4    4  501    0  0.85277780096E+02 -0.35119012636E+02 -0.30831390941E+03  0.32181223029E+03  0.00000000000E+00 0. -1.
         -3    1    4    4    0  501  0.30879845777E+02  0.10729934690E+01 -0.40037188347E+03  0.40156240022E+03  0.00000000000E+00 0.  1.
          5    1    3    3  502    0 -0.15307435466E+02  0.50425267217E+02 -0.14844278889E+03  0.15758926591E+03  0.47000000000E+01 0. -1.
         13    1    6    6    0    0  0.42136370644E+02  0.82348381133E+01 -0.61079226957E+01  0.43365804610E+02  0.00000000000E+00 0. -1.
        -14    1    6    6    0    0 -0.35951102790E+02  0.20346752714E+02 -0.83355178020E+00  0.41317876838E+02  0.00000000000E+00 0.  1.
         -5    1    5    5    0  503 -0.10703545826E+03 -0.44960838877E+02 -0.45224258602E+02  0.12468115304E+03  0.47000000000E+01 0.  1.
<mgrwt>
<rscale>  2 0.20334417E+03</rscale>
<asrwt>0</asrwt>
<pdfrwt beam="1">  1       21 0.13925725E-01 0.20353865E+03</pdfrwt>
<pdfrwt beam="2">  1       21 0.15381715E+00 0.20353865E+03</pdfrwt>
<totfact> 0.12457323E+04</totfact>
</mgrwt>
</event>
<event>
12    1  0.1473662E-001  0.3016024E+03  0.7546771E-02  0.1085176E+00
         21   -1    0    0  504  503  0.00000000000E+00  0.00000000000E+00  0.69963344987E+03  0.69963344987E+03  0.00000000000E+00 0.  1.
         21   -1    0    0  502  504 -0.00000000000E+00 -0.00000000000E+00 -0.13918356569E+03  0.13918356569E+03  0.00000000000E+00 0. -1.
          6    2    1    2  502    0  0.17358859801E+03  0.16472107598E+03  0.15624635665E+03  0.33449123385E+03  0.17379708665E+03 0.  0.
         24    2    3    3    0    0  0.17096230104E+03  0.19043206993E+03  0.13455077576E+03  0.30042158643E+03  0.81588827070E+02 0.  0.
         -6    2    1    2    0  503 -0.17358859801E+03 -0.16472107598E+03  0.40420352753E+03  0.50432578171E+03  0.18357006346E+03 0.  0.
        -24    2    5    5    0    0 -0.40772480380E+02 -0.18414390918E+02  0.68681545692E+02  0.11491230288E+03  0.80536933676E+02 0.  0.
          4    1    4    4  501    0  0.13046432858E+03  0.18675488764E+03  0.11078120049E+03  0.25331956788E+03  0.00000000000E+00 0. -1.
         -3    1    4    4    0  501  0.40497972463E+02  0.36771822867E+01  0.23769575262E+02  0.47102018548E+02  0.00000000000E+00 0.  1.
          5    1    3    3  502    0  0.26262969683E+01 -0.25710993945E+02  0.21695580889E+02  0.34069647423E+02  0.47000000000E+01 0. -1.
         13    1    6    6    0    0  0.19618053254E+02  0.12315614314E+02  0.26042562566E+02  0.34853370488E+02  0.00000000000E+00 0. -1.
        -14    1    6    6    0    0 -0.60390533634E+02 -0.30730005232E+02  0.42638983127E+02  0.80058932395E+02  0.00000000000E+00 0.  1.
         -5    1    5    5    0  503 -0.13281611763E+03 -0.14630668506E+03  0.33552198184E+03  0.38941347883E+03  0.47000000000E+01 0.  1.
<mgrwt>
<rscale>  2 0.30012998E+03</rscale>
<asrwt>0</asrwt>
<pdfrwt beam="1">  1       21 0.10763591E+00 0.30160239E+03</pdfrwt>
<pdfrwt beam="2">  1       21 0.21412857E-01 0.30160239E+03</pdfrwt>
<totfact> 0.13163146E+04</totfact>
</mgrwt>
</event>
<event>
12    1  0.1473662E-001  0.2066196E+03  0.7546771E-02  0.1145206E+00
         21   -1    0    0  504  503  0.00000000000E+00  0.00000000000E+00  0.13242666276E+04  0.13242666276E+04  0.00000000000E+00 0.  1.
         21   -1    0    0  502  504 -0.00000000000E+00 -0.00000000000E+00 -0.38657992091E+02  0.38657992091E+02  0.00000000000E+00 0. -1.
          6    2    1    2  502    0  0.34758068629E+02  0.10258558883E+03  0.35603633993E+03  0.41164736195E+03  0.17595382599E+03 0.  0.
         24    2    3    3    0    0  0.34246289103E+02  0.23293827673E+02  0.30275253646E+03  0.31599853018E+03  0.80501938001E+02 0.  0.
         -6    2    1    2    0  503 -0.34758068629E+02 -0.10258558883E+03  0.92957229558E+03  0.95127725774E+03  0.17056330793E+03 0.  0.
        -24    2    5    5    0    0  0.14855702418E+02  0.42842978849E+01  0.33760356751E+03  0.34767824848E+03  0.81639136259E+02 0.  0.
          4    1    4    4  501    0  0.49747729188E+02  0.42027509881E+02  0.19694911987E+03  0.20743698793E+03  0.00000000000E+00 0. -1.
         -3    1    4    4    0  501 -0.15501440085E+02 -0.18733682207E+02  0.10580341659E+03  0.10856154225E+03  0.00000000000E+00 0.  1.
          5    1    3    3  502    0  0.51177952572E+00  0.79291761159E+02  0.53283803470E+02  0.95648831766E+02  0.47000000000E+01 0. -1.
         11    1    6    6    0    0 -0.15849371085E+02  0.17994866983E+02  0.30784002217E+02  0.39021437621E+02  0.00000000000E+00 0. -1.
        -12    1    6    6    0    0  0.30705073503E+02 -0.13710569098E+02  0.30681956529E+03  0.30865681086E+03  0.00000000000E+00 0.  1.
         -5    1    5    5    0  503 -0.49613771047E+02 -0.10686988672E+03  0.59196872807E+03  0.60359900926E+03  0.47000000000E+01 0.  1.
<mgrwt>
<rscale>  2 0.20546736E+03</rscale>
<asrwt>0</asrwt>
<pdfrwt beam="1">  1       21 0.20373329E+00 0.20661964E+03</pdfrwt>
<pdfrwt beam="2">  1       21 0.59473844E-02 0.20661964E+03</pdfrwt>
<totfact> 0.25181902E+04</totfact>
</mgrwt>
</event>
<event>
12    1  0.1473662E-001  0.1756705E+03  0.7546771E-02  0.1172072E+00
         21   -1    0    0  504  503  0.00000000000E+00  0.00000000000E+00  0.58507522809E+02  0.58507522809E+02  0.00000000000E+00 0. -1.
         21   -1    0    0  502  504 -0.00000000000E+00 -0.00000000000E+00 -0.10995463131E+04  0.10995463131E+04  0.00000000000E+00 0. -1.
          6    2    1    2  502    0 -0.28342879588E+02  0.42277166980E+01 -0.93819932640E+03  0.95449526487E+03  0.17326869936E+03 0.  0.
         24    2    3    3    0    0 -0.37158827983E+02  0.24597653870E+02 -0.23762850333E+03  0.25355716244E+03  0.76407499362E+02 0.  0.
         -6    2    1    2    0  503  0.28342879588E+02 -0.42277166980E+01 -0.10283946392E+03  0.20355857107E+03  0.17331746625E+03 0.  0.
        -24    2    5    5    0    0  0.73026187146E+02 -0.81756841597E+00 -0.11518216052E+03  0.15683963224E+03  0.77448355130E+02 0.  0.
          4    1    4    4  501    0 -0.39247097024E+02  0.49655317028E+02 -0.17219563714E+03  0.18345932134E+03  0.00000000000E+00 0. -1.
         -3    1    4    4    0  501  0.20882690416E+01 -0.25057663158E+02 -0.65432866183E+02  0.70097841104E+02  0.00000000000E+00 0.  1.
          5    1    3    3  502    0  0.88159483948E+01 -0.20369937172E+02 -0.70057082308E+03  0.70093810243E+03  0.47000000000E+01 0. -1.
         13    1    6    6    0    0  0.54734879412E+02 -0.36064599033E+02 -0.60060481993E+02  0.88903452266E+02  0.00000000000E+00 0. -1.
        -14    1    6    6    0    0  0.18291307734E+02  0.35247030617E+02 -0.55121678531E+02  0.67936179978E+02  0.00000000000E+00 0.  1.
         -5    1    5    5    0  503 -0.44683307558E+02 -0.34101482820E+01  0.12342696607E+02  0.46718938827E+02  0.47000000000E+01 0.  1.
<mgrwt>
<rscale>  2 0.17565850E+03</rscale>
<asrwt>0</asrwt>
<pdfrwt beam="1">  1       21 0.90011579E-02 0.17567053E+03</pdfrwt>
<pdfrwt beam="2">  1       21 0.16916096E+00 0.17567053E+03</pdfrwt>
<totfact> 0.21379917E+04</totfact>
</mgrwt>
</event>
<event>
12    1  0.1473662E-001  0.2335102E+03  0.7546771E-02  0.1124301E+00
         21   -1    0    0  504  503  0.00000000000E+00  0.00000000000E+00  0.24289879807E+03  0.24289879807E+03  0.00000000000E+00 0. -1.
         21   -1    0    0  502  504 -0.00000000000E+00 -0.00000000000E+00 -0.37690919248E+03  0.37690919248E+03  0.00000000000E+00 0.  1.
          6    2    1    2  502    0  0.12127940138E+03 -0.98066236554E+02 -0.26452200921E+03  0.35284402735E+03  0.17378531103E+03 0.  0.
         24    2    3    3    0    0  0.76369371113E+02 -0.13471732423E+03 -0.21092200388E+03  0.27375380281E+03  0.80448831813E+02 0.  0.
         -6    2    1    2    0  503 -0.12127940138E+03  0.98066236554E+02  0.13051161481E+03  0.26696396320E+03  0.17294737955E+03 0.  0.
        -24    2    5    5    0    0  0.87726249284E+01  0.44122213671E+02  0.61787859656E+02  0.11022044124E+03  0.79417110118E+02 0.  0.
          4    1    4    4  501    0  0.90520167559E+02 -0.12130441589E+03 -0.16522608124E+03  0.22407213118E+03  0.00000000000E+00 0. -1.
         -3    1    4    4    0  501 -0.14150796447E+02 -0.13412908341E+02 -0.45695922632E+02  0.49681671625E+02  0.00000000000E+00 0.  1.
          5    1    3    3  502    0  0.44910030269E+02  0.36651087676E+02 -0.53600005340E+02  0.79090224547E+02  0.47000000000E+01 0. -1.
         13    1    6    6    0    0 -0.12137524378E+02 -0.15533461324E+02  0.37755588585E+02  0.42592163459E+02  0.00000000000E+00 0. -1.
        -14    1    6    6    0    0  0.20910149306E+02  0.59655674995E+02  0.24032271071E+02  0.67628277784E+02  0.00000000000E+00 0.  1.
         -5    1    5    5    0  503 -0.13005202631E+03  0.53944022883E+02  0.68723755150E+02  0.15674352195E+03  0.47000000000E+01 0.  1.
<mgrwt>
<rscale>  2 0.23335431E+03</rscale>
<asrwt>0</asrwt>
<pdfrwt beam="1">  1       21 0.37369046E-01 0.23351020E+03</pdfrwt>
<pdfrwt beam="2">  1       21 0.57986029E-01 0.23351020E+03</pdfrwt>
<totfact> 0.18807065E+04</totfact>
</mgrwt>
</event>
<event>
12    1  0.1473662E-001  0.2744045E+03  0.7546771E-02  0.1099070E+00
         21   -1    0    0  504  503  0.00000000000E+00  0.00000000000E+00  0.44747624590E+03  0.44747624590E+03  0.00000000000E+00 0. -1.
         21   -1    0    0  502  504 -0.00000000000E+00 -0.00000000000E+00 -0.16870528409E+03  0.16870528409E+03  0.00000000000E+00 0. -1.
          6    2    1    2  502    0  0.17444331227E+03  0.12245387110E+03  0.10922316062E+03  0.29534305703E+03  0.17283634681E+03 0.  0.
         24    2    3    3    0    0  0.12718139502E+03  0.99071993267E+02  0.14461232074E+03  0.23166508841E+03  0.82253405954E+02 0.  0.
         -6    2    1    2    0  503 -0.17444331227E+03 -0.12245387110E+03  0.16954780120E+03  0.32083847296E+03  0.16960380036E+03 0.  0.
        -24    2    5    5    0    0 -0.13262404982E+03 -0.13836078546E+03  0.84578652291E+02  0.22469417046E+03  0.81247007774E+02 0.  0.
          2    1    4    4  501    0  0.15035225864E+02  0.60580189100E+02  0.49931928732E+02  0.79932564297E+02  0.00000000000E+00 0. -1.
         -1    1    4    4    0  501  0.11214616915E+03  0.38491804167E+02  0.94680392006E+02  0.15173252412E+03  0.00000000000E+00 0.  1.
          5    1    3    3  502    0  0.47261917251E+02  0.23381877830E+02 -0.35389160123E+02  0.63677968618E+02  0.47000000000E+01 0. -1.
         11    1    6    6    0    0 -0.97898983875E+02 -0.80659640486E+02  0.92349240584E+02  0.15690306206E+03  0.00000000000E+00 0. -1.
        -12    1    6    6    0    0 -0.34725065949E+02 -0.57701144970E+02 -0.77705882930E+01  0.67791108403E+02  0.00000000000E+00 0.  1.
         -5    1    5    5    0  503 -0.41819262445E+02  0.15906914358E+02  0.84969148913E+02  0.96144302498E+02  0.47000000000E+01 0.  1.
<mgrwt>
<rscale>  2 0.27389696E+03</rscale>
<asrwt>0</asrwt>
<pdfrwt beam="1">  1       21 0.68842499E-01 0.27440449E+03</pdfrwt>
<pdfrwt beam="2">  1       21 0.25954659E-01 0.27440449E+03</pdfrwt>
<totfact> 0.26026726E+04</totfact>
</mgrwt>
</event>
<event>
12    1  0.1473662E-001  0.2106995E+03  0.7546771E-02  0.1141476E+00
         21   -1    0    0  504  503  0.00000000000E+00  0.00000000000E+00  0.97443390706E+03  0.97443390706E+03  0.00000000000E+00 0.  1.
         21   -1    0    0  502  504 -0.00000000000E+00 -0.00000000000E+00 -0.10945150184E+03  0.10945150184E+03  0.00000000000E+00 0.  1.
          6    2    1    2  502    0  0.26045645107E+02 -0.11428426828E+03  0.15809356267E+02  0.20896303978E+03  0.17226824038E+03 0.  0.
         24    2    3    3    0    0 -0.90762678987E+01 -0.14151903648E+03  0.54102405245E+01  0.16307717071E+03  0.80342246546E+02 0.  0.
         -6    2    1    2    0  503 -0.26045645107E+02  0.11428426828E+03  0.84917304896E+03  0.87492236911E+03  0.17508573696E+03 0.  0.
        -24    2    5    5    0    0 -0.32364303546E+02 -0.55605570118E+01  0.26626068111E+03  0.27976556105E+03  0.79345137875E+02 0.  0.
          2    1    4    4  501    0 -0.40454718909E+02 -0.10985337844E+03 -0.54557333335E+01  0.11719263656E+03  0.00000000000E+00 0. -1.
         -1    1    4    4    0  501  0.31378451010E+02 -0.31665658037E+02  0.10865973858E+02  0.45884534155E+02  0.00000000000E+00 0.  1.
          5    1    3    3  502    0  0.35121913006E+02  0.27234768199E+02  0.10399115742E+02  0.45885869069E+02  0.47000000000E+01 0. -1.
         11    1    6    6    0    0  0.21664720214E+01 -0.13864650881E+02  0.32977716271E+01  0.14415180983E+02  0.00000000000E+00 0. -1.
        -12    1    6    6    0    0 -0.34530775568E+02  0.83040938694E+01  0.26296290948E+03  0.26535038006E+03  0.00000000000E+00 0.  1.
         -5    1    5    5    0  503  0.63186584390E+01  0.11984482529E+03  0.58291236785E+03  0.59515680807E+03  0.47000000000E+01 0.  1.
<mgrwt>
<rscale>  2 0.21011323E+03</rscale>
<asrwt>0</asrwt>
<pdfrwt beam="1">  1       21 0.14991290E+00 0.21069951E+03</pdfrwt>
<pdfrwt beam="2">  1       21 0.16838693E-01 0.21069951E+03</pdfrwt>
<totfact> 0.93761443E+03</totfact>
</mgrwt>
</event>
<event>
12    1  0.1473662E-001  0.1845162E+03  0.7546771E-02  0.1163527E+00
         21   -1    0    0  504  503  0.00000000000E+00  0.00000000000E+00  0.11329188723E+03  0.11329188723E+03  0.00000000000E+00 0.  1.
         21   -1    0    0  502  504 -0.00000000000E+00 -0.00000000000E+00 -0.30310188511E+03  0.30310188511E+03  0.00000000000E+00 0. -1.
          6    2    1    2  502    0  0.36661249189E+02 -0.53669278070E+02 -0.11472928707E+03  0.21718698615E+03  0.17257734219E+03 0.  0.
         24    2    3    3    0    0  0.36110095055E+02 -0.44885577847E+02 -0.15028077666E+03  0.18026198686E+03  0.81187548372E+02 0.  0.
         -6    2    1    2    0  503 -0.36661249189E+02  0.53669278070E+02 -0.75080710801E+02  0.19920678619E+03  0.17268987211E+03 0.  0.
        -24    2    5    5    0    0 -0.38380367901E+02  0.40241625283E+02  0.15406025234E+02  0.10759239525E+03  0.90809343448E+02 0.  0.
          4    1    4    4  501    0  0.56660697990E+02 -0.49588540774E+02 -0.95828339351E+02  0.12187095099E+03  0.00000000000E+00 0. -1.
         -3    1    4    4    0  501 -0.20550602935E+02  0.47029629266E+01 -0.54452437307E+02  0.58391035870E+02  0.00000000000E+00 0.  1.
          5    1    3    3  502    0  0.55115413395E+00 -0.87837002231E+01  0.35551489584E+02  0.36924999284E+02  0.47000000000E+01 0. -1.
         11    1    6    6    0    0 -0.50035118216E+02 -0.72070053483E+01 -0.11459819912E+02  0.51834172641E+02  0.00000000000E+00 0. -1.
        -12    1    6    6    0    0  0.11654750314E+02  0.47448630631E+02  0.26865845146E+02  0.55758222614E+02  0.00000000000E+00 0.  1.
         -5    1    5    5    0  503  0.17191187126E+01  0.13427652787E+02 -0.90486736035E+02  0.91614390937E+02  0.47000000000E+01 0.  1.
<mgrwt>
<rscale>  2 0.18448987E+03</rscale>
<asrwt>0</asrwt>
<pdfrwt beam="1">  1       21 0.17429521E-01 0.18451621E+03</pdfrwt>
<pdfrwt beam="2">  1       21 0.46631059E-01 0.18451621E+03</pdfrwt>
<totfact> 0.13157605E+05</totfact>
</mgrwt>
</event>
<event>
12    1  0.1473662E-001  0.1825488E+03  0.7546771E-02  0.1165610E+00
         21   -1    0    0  504  503  0.00000000000E+00  0.00000000000E+00  0.20041790879E+03  0.20041790879E+03  0.00000000000E+00 0.  1.
         21   -1    0    0  502  504 -0.00000000000E+00 -0.00000000000E+00 -0.39277676465E+03  0.39277676465E+03  0.00000000000E+00 0. -1.
          6    2    1    2  502    0 -0.54907685118E+02  0.19999530451E+02 -0.32177112049E+03  0.36942782284E+03  0.17182964589E+03 0.  0.
         24    2    3    3    0    0 -0.22151254248E+02 -0.53101578550E+02 -0.21115520587E+03  0.23277231996E+03  0.79284148891E+02 0.  0.
         -6    2    1    2    0  503  0.54907685118E+02 -0.19999530451E+02  0.12941226463E+03  0.22376685060E+03  0.17294286365E+03 0.  0.
        -24    2    5    5    0    0 -0.31940725620E+02 -0.13372987864E+02  0.32542979563E+02  0.93412311346E+02  0.80422432409E+02 0.  0.
          4    1    4    4  501    0 -0.51362311504E+02 -0.40806083537E+02 -0.12912909432E+03  0.14483627479E+03  0.00000000000E+00 0. -1.
         -3    1    4    4    0  501  0.29211057256E+02 -0.12295495013E+02 -0.82026111552E+02  0.87936045169E+02  0.00000000000E+00 0.  1.
          5    1    3    3  502    0 -0.32756430870E+02  0.73101109001E+02 -0.11061591462E+03  0.13665550288E+03  0.47000000000E+01 0. -1.
         13    1    6    6    0    0 -0.27645853614E+02 -0.32308769412E+02  0.51151814446E+02  0.66518102228E+02  0.00000000000E+00 0. -1.
        -14    1    6    6    0    0 -0.42948720058E+01  0.18935781548E+02 -0.18608834883E+02  0.26894209118E+02  0.00000000000E+00 0.  1.
         -5    1    5    5    0  503  0.86848410738E+02 -0.66265425870E+01  0.96869285064E+02  0.13035453925E+03  0.47000000000E+01 0.  1.
<mgrwt>
<rscale>  2 0.18228467E+03</rscale>
<asrwt>0</asrwt>
<pdfrwt beam="1">  1       21 0.30833525E-01 0.18254881E+03</pdfrwt>
<pdfrwt beam="2">  1       21 0.60427193E-01 0.18254881E+03</pdfrwt>
<totfact> 0.25924373E+04</totfact>
</mgrwt>
</event>
<event>
12    1  0.1473662E-001  0.1934648E+03  0.7546771E-02  0.1155619E+00
         21   -1    0    0  504  503  0.00000000000E+00  0.00000000000E+00  0.54253345153E+02  0.54253345153E+02  0.00000000000E+00 0. -1.
         21   -1    0    0  502  504 -0.00000000000E+00 -0.00000000000E+00 -0.14184850212E+04  0.14184850212E+04  0.00000000000E+00 0. -1.
          6    2    1    2  502    0  0.82379003655E+02  0.24995046224E+02 -0.12122481391E+04  0.12275887622E+04  0.17325578104E+03 0.  0.
         24    2    3    3    0    0  0.11999519743E+03  0.41536375113E+02 -0.88019891360E+03  0.89297350288E+03  0.80792521117E+02 0.  0.
         -6    2    1    2    0  503 -0.82379003655E+02 -0.24995046224E+02 -0.15198353695E+03  0.24514960419E+03  0.17201244243E+03 0.  0.
        -24    2    5    5    0    0 -0.38887752137E+01 -0.61917249979E+02 -0.10763839574E+03  0.14761731907E+03  0.79724401758E+02 0.  0.
          2    1    4    4  501    0  0.12067592885E+03  0.27694062318E+02 -0.85739444332E+03  0.86628798464E+03  0.00000000000E+00 0. -1.
         -1    1    4    4    0  501 -0.68073142036E+00  0.13842312795E+02 -0.22804470280E+02  0.26685518236E+02  0.00000000000E+00 0.  1.
          5    1    3    3  502    0 -0.37616193776E+02 -0.16541328889E+02 -0.33204922551E+03  0.33461525931E+03  0.47000000000E+01 0. -1.
         13    1    6    6    0    0 -0.49431335789E+01 -0.40902483131E+02 -0.34709737266E+01  0.41346044000E+02  0.00000000000E+00 0. -1.
        -14    1    6    6    0    0  0.10543583652E+01 -0.21014766848E+02 -0.10416742201E+03  0.10627127507E+03  0.00000000000E+00 0.  1.
         -5    1    5    5    0  503 -0.78490228441E+02  0.36922203755E+02 -0.44345141212E+02  0.97532285116E+02  0.47000000000E+01 0.  1.
<mgrwt>
<rscale>  2 0.19318600E+03</rscale>
<asrwt>0</asrwt>
<pdfrwt beam="1">  1       21 0.83466697E-02 0.19346477E+03</pdfrwt>
<pdfrwt beam="2">  1       21 0.21822843E+00 0.19346477E+03</pdfrwt>
<totfact> 0.11488409E+04</totfact>
</mgrwt>
</event>
<event>
12    1  0.1473662E-001  0.2549954E+03  0.7546771E-02  0.1110716E+00
         21   -1    0    0  504  503  0.00000000000E+00  0.00000000000E+00  0.96153003835E+02  0.96153003835E+02  0.00000000000E+00 0. -1.
         21   -1    0    0  502  504 -0.00000000000E+00 -0.00000000000E+00 -0.90603358437E+03  0.90603358437E+03  0.00000000000E+00 0.  1.
          6    2    1    2  502    0  0.14424182415E+03  0.11189101601E+03 -0.66017918101E+03  0.70649556674E+03  0.17313038869E+03 0.  0.
         24    2    3    3    0    0  0.16149200339E+03  0.49560250715E+02 -0.48066861333E+03  0.51563219442E+03  0.79362197969E+02 0.  0.
         -6    2    1    2    0  503 -0.14424182415E+03 -0.11189101601E+03 -0.14970139952E+03  0.29569102146E+03  0.17803754620E+03 0.  0.
        -24    2    5    5    0    0 -0.55403545426E+02 -0.11568970254E+03 -0.39272215364E+02  0.15383417637E+03  0.75292674275E+02 0.  0.
          2    1    4    4  501    0  0.45600087605E+02 -0.84736585283E+01 -0.21610431669E+03  0.22102544326E+03  0.00000000000E+00 0. -1.
         -1    1    4    4    0  501  0.11589191579E+03  0.58033909243E+02 -0.26456429664E+03  0.29460675115E+03  0.00000000000E+00 0.  1.
          5    1    3    3  502    0 -0.17250179249E+02  0.62330765297E+02 -0.17951056768E+03  0.19086337233E+03  0.47000000000E+01 0. -1.
         13    1    6    6    0    0 -0.33598300414E+02 -0.41630377377E+01 -0.81541159092E+00  0.33865049387E+02  0.00000000000E+00 0. -1.
        -14    1    6    6    0    0 -0.21805245013E+02 -0.11152666481E+03 -0.38456803773E+02  0.11996912698E+03  0.00000000000E+00 0.  1.
         -5    1    5    5    0  503 -0.88838278720E+02  0.37986865325E+01 -0.11042918416E+03  0.14185684509E+03  0.47000000000E+01 0.  1.
<mgrwt>
<rscale>  2 0.25414073E+03</rscale>
<asrwt>0</asrwt>
<pdfrwt beam="1">  1       21 0.14792770E-01 0.25499543E+03</pdfrwt>
<pdfrwt beam="2">  1       21 0.13938978E+00 0.25499543E+03</pdfrwt>
<totfact> 0.14000549E+04</totfact>
</mgrwt>
</event>
<event>
12    1  0.1473662E-001  0.1907275E+03  0.7546771E-02  0.1158021E+00
         21   -1    0    0  504  503  0.00000000000E+00  0.00000000000E+00  0.17673737894E+03  0.17673737894E+03  0.00000000000E+00 0.  1.
         21   -1    0    0  502  504 -0.00000000000E+00 -0.00000000000E+00 -0.31755947392E+03  0.31755947392E+03  0.00000000000E+00 0.  1.
          6    2    1    2  502    0 -0.11820244186E+02 -0.79980255611E+02 -0.21757037177E+03  0.28870678173E+03  0.17169210723E+03 0.  0.
         24    2    3    3    0    0  0.55786630801E+01  0.22618585442E+01 -0.17934389553E+03  0.19624143254E+03  0.79436952970E+02 0.  0.
         -6    2    1    2    0  503  0.11820244186E+02  0.79980255611E+02  0.76748276786E+02  0.20559007113E+03  0.17274379843E+03 0.  0.
        -24    2    5    5    0    0  0.24287459547E+02 -0.17314115022E+02  0.34486923414E+02  0.98680118346E+02  0.87514333683E+02 0.  0.
          2    1    4    4  501    0  0.41229644774E+02  0.80952275834E+01 -0.11521791585E+03  0.12264006055E+03  0.00000000000E+00 0. -1.
         -1    1    4    4    0  501 -0.35650981694E+02 -0.58333690391E+01 -0.64125979676E+02  0.73601371995E+02  0.00000000000E+00 0.  1.
          5    1    3    3  502    0 -0.17398907266E+02 -0.82242114155E+02 -0.38226476246E+02  0.92465349190E+02  0.47000000000E+01 0. -1.
         13    1    6    6    0    0  0.45228301127E+02 -0.26932731738E+02 -0.50874393372E+01  0.52885284349E+02  0.00000000000E+00 0. -1.
        -14    1    6    6    0    0 -0.20940841580E+02  0.96186167164E+01  0.39574362751E+02  0.45794833997E+02  0.00000000000E+00 0.  1.
         -5    1    5    5    0  503 -0.12467215361E+02  0.97294370632E+02  0.42261353373E+02  0.10690995278E+03  0.47000000000E+01 0.  1.
<mgrwt>
<rscale>  2 0.19048905E+03</rscale>
<asrwt>0</asrwt>
<pdfrwt beam="1">  1       21 0.27190366E-01 0.19072750E+03</pdfrwt>
<pdfrwt beam="2">  1       21 0.48855303E-01 0.19072750E+03</pdfrwt>
<totfact> 0.51604747E+04</totfact>
</mgrwt>
</event>
<event>
12    1  0.1473662E-001  0.1968131E+03  0.7546771E-02  0.1152712E+00
         21   -1    0    0  504  503  0.00000000000E+00  0.00000000000E+00  0.10548427299E+04  0.10548427299E+04  0.00000000000E+00 0. -1.
         21   -1    0    0  502  504 -0.00000000000E+00 -0.00000000000E+00 -0.13337120168E+03  0.13337120168E+03  0.00000000000E+00 0.  1.
          6    2    1    2  502    0 -0.61982861625E+02 -0.69566845033E+02 -0.45969793050E+02  0.20095604967E+03  0.17201363598E+03 0.  0.
         24    2    3    3    0    0  0.79781645703E+01 -0.69534476572E+02 -0.69304157533E+02  0.12705659906E+03  0.80259694564E+02 0.  0.
         -6    2    1    2    0  503  0.61982861625E+02  0.69566845033E+02  0.96744132126E+03  0.98725788190E+03  0.17336087859E+03 0.  0.
        -24    2    5    5    0    0  0.30255076609E+02 -0.25995123184E+02  0.34165581559E+03  0.35340590295E+03  0.81092045370E+02 0.  0.
          2    1    4    4  501    0  0.10559983011E+02 -0.70769769249E+02 -0.15546396652E+02  0.73222700917E+02  0.00000000000E+00 0. -1.
         -1    1    4    4    0  501 -0.25818184409E+01  0.12352926764E+01 -0.53757760881E+02  0.53833898144E+02  0.00000000000E+00 0.  1.
          5    1    3    3  502    0 -0.69961026195E+02 -0.32368460542E-01  0.23334364483E+02  0.73899450606E+02  0.47000000000E+01 0. -1.
         13    1    6    6    0    0  0.43311813930E+02  0.12489682863E+02  0.23470011524E+03  0.23898964307E+03  0.00000000000E+00 0. -1.
        -14    1    6    6    0    0 -0.13056737321E+02 -0.38484806046E+02  0.10695570036E+03  0.11441625988E+03  0.00000000000E+00 0.  1.
         -5    1    5    5    0  503  0.31727785015E+02  0.95561968216E+02  0.62578550566E+03  0.63385197894E+03  0.47000000000E+01 0.  1.
<mgrwt>
<rscale>  2 0.19651606E+03</rscale>
<asrwt>0</asrwt>
<pdfrwt beam="1">  1       21 0.16228349E+00 0.19681315E+03</pdfrwt>
<pdfrwt beam="2">  1       21 0.20518647E-01 0.19681315E+03</pdfrwt>
<totfact> 0.53112720E+03</totfact>
</mgrwt>
</event>
<event>
12    1  0.1473662E-001  0.1937140E+03  0.7546771E-02  0.1155998E+00
         21   -1    0    0  504  503  0.00000000000E+00  0.00000000000E+00  0.33672988013E+02  0.33672988013E+02  0.00000000000E+00 0.  1.
         21   -1    0    0  502  504 -0.00000000000E+00 -0.00000000000E+00 -0.10961937710E+04  0.10961937710E+04  0.00000000000E+00 0.  1.
          6    2    1    2  502    0 -0.82271317411E+02  0.30095523945E+02 -0.56861444839E+03  0.60070585399E+03  0.17277390391E+03 0.  0.
         24    2    3    3    0    0 -0.11871071447E+03  0.45168482206E+02 -0.39398044636E+03  0.42161328464E+03  0.80029645519E+02 0.  0.
         -6    2    1    2    0  503  0.82271317411E+02 -0.30095523945E+02 -0.49390633458E+03  0.52916090501E+03  0.16850366707E+03 0.  0.
        -24    2    5    5    0    0  0.49453844785E+02  0.16767659632E+02 -0.13302886119E+03  0.16374636604E+03  0.79933455504E+02 0.  0.
          4    1    4    4  501    0 -0.11958389611E+03  0.59691806431E+02 -0.33081957076E+03  0.35679827404E+03  0.00000000000E+00 0. -1.
         -3    1    4    4    0  501  0.87318163918E+00 -0.14523324226E+02 -0.63160875600E+02  0.64815010601E+02  0.00000000000E+00 0.  1.
          5    1    3    3  502    0  0.36439397061E+02 -0.15072958260E+02 -0.17463400203E+03  0.17909256935E+03  0.47000000000E+01 0. -1.
         11    1    6    6    0    0 -0.14897684206E+02 -0.99667836560E+01 -0.60757274044E+01  0.18925967205E+02  0.00000000000E+00 0. -1.
        -12    1    6    6    0    0  0.64351528991E+02  0.26734443288E+02 -0.12695313378E+03  0.14482039883E+03  0.00000000000E+00 0.  1.
         -5    1    5    5    0  503  0.32817472626E+02 -0.46863183577E+02 -0.36087747340E+03  0.36541453897E+03  0.47000000000E+01 0.  1.
<mgrwt>
<rscale>  2 0.19275728E+03</rscale>
<asrwt>0</asrwt>
<pdfrwt beam="1">  1       21 0.51804592E-02 0.19371405E+03</pdfrwt>
<pdfrwt beam="2">  1       21 0.16864521E+00 0.19371405E+03</pdfrwt>
<totfact> 0.55214576E+04</totfact>
</mgrwt>
</event>
<event>
12    1  0.1473662E-001  0.2137864E+03  0.7546771E-02  0.1138696E+00
         21   -1    0    0  504  503  0.00000000000E+00  0.00000000000E+00  0.17624356630E+03  0.17624356630E+03  0.00000000000E+00 0.  1.
         21   -1    0    0  502  504 -0.00000000000E+00 -0.00000000000E+00 -0.32505709072E+03  0.32505709072E+03  0.00000000000E+00 0.  1.
          6    2    1    2  502    0  0.53807067323E+02  0.11291403887E+03  0.38741724222E+02  0.21726838700E+03  0.17337776711E+03 0.  0.
         24    2    3    3    0    0  0.76273971205E+02  0.13713032288E+03  0.27828951252E+02  0.18216327633E+03  0.88241512779E+02 0.  0.
         -6    2    1    2    0  503 -0.53807067323E+02 -0.11291403887E+03 -0.18755524864E+03  0.28403227002E+03  0.17277898731E+03 0.  0.
        -24    2    5    5    0    0  0.55474394257E+01  0.13651948458E+01 -0.45063509534E+02  0.91915934322E+02  0.79907329136E+02 0.  0.
          2    1    4    4  501    0  0.82128348480E+01 -0.10829807957E+02 -0.74831272414E+01  0.15515559608E+02  0.00000000000E+00 0. -1.
         -1    1    4    4    0  501  0.68061136357E+02  0.14796013084E+03  0.35312078493E+02  0.16664771672E+03  0.00000000000E+00 0.  1.
          5    1    3    3  502    0 -0.22466903882E+02 -0.24216284017E+02  0.10912772970E+02  0.35105110676E+02  0.47000000000E+01 0. -1.
         13    1    6    6    0    0  0.36145453684E+02  0.12855163901E+02 -0.45129145646E+02  0.59231654102E+02  0.00000000000E+00 0. -1.
        -14    1    6    6    0    0 -0.30598014258E+02 -0.11489969055E+02  0.65636111927E-01  0.32684280220E+02  0.00000000000E+00 0.  1.
         -5    1    5    5    0  503 -0.59354506748E+02 -0.11427923371E+03 -0.14249173910E+03  0.19211633570E+03  0.47000000000E+01 0.  1.
<mgrwt>
<rscale>  2 0.21366498E+03</rscale>
<asrwt>0</asrwt>
<pdfrwt beam="1">  1       21 0.27114395E-01 0.21378641E+03</pdfrwt>
<pdfrwt beam="2">  1       21 0.50008782E-01 0.21378641E+03</pdfrwt>
<totfact> 0.48876082E+04</totfact>
</mgrwt>
</event>
<event>
12    1  0.1473662E-001  0.1867839E+03  0.7546771E-02  0.1163372E+00
         21   -1    0    0  504  503  0.00000000000E+00  0.00000000000E+00  0.11972960739E+03  0.11972960739E+03  0.00000000000E+00 0.  1.
         21   -1    0    0  502  504 -0.00000000000E+00 -0.00000000000E+00 -0.28897252635E+03  0.28897252635E+03  0.00000000000E+00 0.  1.
          6    2    1    2  502    0 -0.29770198466E+02 -0.32736482190E+02 -0.47564059078E+02  0.19274478774E+03  0.18146699838E+03 0.  0.
         24    2    3    3    0    0 -0.60959777133E+02 -0.10899212483E+02  0.30610830935E+02  0.10566402296E+03  0.79956084928E+02 0.  0.
         -6    2    1    2    0  503  0.29770198466E+02  0.32736482190E+02 -0.12167885988E+03  0.21595734601E+03  0.17284064444E+03 0.  0.
        -24    2    5    5    0    0  0.21834374180E+02  0.80311560750E+02 -0.43938290573E+02  0.12434920487E+03  0.81274009906E+02 0.  0.
          2    1    4    4  501    0 -0.31048140835E+02 -0.41252263391E+02  0.35664007029E+02  0.62750758414E+02  0.00000000000E+00 0. -1.
         -1    1    4    4    0  501 -0.29911636298E+02  0.30353050908E+02 -0.50531760940E+01  0.42913264547E+02  0.00000000000E+00 0.  1.
          5    1    3    3  502    0  0.31189578667E+02 -0.21837269707E+02 -0.78174890013E+02  0.87080764778E+02  0.47000000000E+01 0. -1.
         11    1    6    6    0    0  0.12878942237E+02  0.28097023424E+02  0.23329929464E+02  0.38724610873E+02  0.00000000000E+00 0. -1.
        -12    1    6    6    0    0  0.89554319436E+01  0.52214537326E+02 -0.67268220037E+02  0.85624593993E+02  0.00000000000E+00 0.  1.
         -5    1    5    5    0  503  0.79358242856E+01 -0.47575078560E+02 -0.77740569309E+02  0.91608141142E+02  0.47000000000E+01 0.  1.
<mgrwt>
<rscale>  2 0.18465549E+03</rscale>
<asrwt>0</asrwt>
<pdfrwt beam="1">  1       21 0.18419940E-01 0.18678387E+03</pdfrwt>
<pdfrwt beam="2">  1       21 0.44457311E-01 0.18678387E+03</pdfrwt>
<totfact> 0.13095739E+05</totfact>
</mgrwt>
</event>
<event>
12    1  0.1473662E-001  0.2594899E+03  0.7546771E-02  0.1107822E+00
         21   -1    0    0  504  503  0.00000000000E+00  0.00000000000E+00  0.75577692209E+03  0.75577692209E+03  0.00000000000E+00 0.  1.
         21   -1    0    0  502  504 -0.00000000000E+00 -0.00000000000E+00 -0.18565912149E+03  0.18565912149E+03  0.00000000000E+00 0. -1.
          6    2    1    2  502    0  0.15998726966E+03  0.11164799710E+03 -0.55251209631E+02  0.26530679198E+03  0.17109586785E+03 0.  0.
         24    2    3    3    0    0  0.84231581291E+02  0.90126215205E+02  0.28916513358E+02  0.14994472279E+03  0.80184544599E+02 0.  0.
         -6    2    1    2    0  503 -0.15998726966E+03 -0.11164799710E+03  0.62536901023E+03  0.67612925159E+03  0.16734145989E+03 0.  0.
        -24    2    5    5    0    0 -0.65233847458E+02 -0.18882656496E+02  0.40678038842E+03  0.42042102916E+03  0.81679543256E+02 0.  0.
          2    1    4    4  501    0  0.11764554107E+02  0.67291690094E+02  0.28354349506E+02  0.73963135581E+02  0.00000000000E+00 0. -1.
         -1    1    4    4    0  501  0.72467027185E+02  0.22834525111E+02  0.56216385208E+00  0.75981587205E+02  0.00000000000E+00 0.  1.
          5    1    3    3  502    0  0.75755688372E+02  0.21521781895E+02 -0.84167722989E+02  0.11536206920E+03  0.47000000000E+01 0. -1.
         11    1    6    6    0    0  0.38939882681E+01 -0.34569373188E+02  0.15473813091E+03  0.15860042202E+03  0.00000000000E+00 0. -1.
        -12    1    6    6    0    0 -0.69127835726E+02  0.15686716692E+02  0.25204225751E+03  0.26182060714E+03  0.00000000000E+00 0.  1.
         -5    1    5    5    0  503 -0.94753422205E+02 -0.92765340604E+02  0.21858862181E+03  0.25570822243E+03  0.47000000000E+01 0.  1.
<mgrwt>
<rscale>  2 0.25887268E+03</rscale>
<asrwt>0</asrwt>
<pdfrwt beam="1">  1       21 0.11627337E+00 0.25948988E+03</pdfrwt>
<pdfrwt beam="2">  1       21 0.28562942E-01 0.25948988E+03</pdfrwt>
<totfact> 0.63918149E+03</totfact>
</mgrwt>
</event>
<event>
12    1  0.1473662E-001  0.1794616E+03  0.7546771E-02  0.1168832E+00
         21   -1    0    0  504  503  0.00000000000E+00  0.00000000000E+00  0.84519814622E+02  0.84519814622E+02  0.00000000000E+00 0. -1.
         21   -1    0    0  502  504 -0.00000000000E+00 -0.00000000000E+00 -0.53646738985E+03  0.53646738985E+03  0.00000000000E+00 0. -1.
          6    2    1    2  502    0  0.48337000363E+02 -0.24306704808E+01 -0.39635580601E+03  0.43509126439E+03  0.17281235379E+03 0.  0.
         24    2    3    3    0    0  0.88816879880E+02  0.33436711031E+02 -0.29033397813E+03  0.31597868030E+03  0.80884211974E+02 0.  0.
         -6    2    1    2    0  503 -0.48337000363E+02  0.24306704808E+01 -0.55591769215E+02  0.18589594008E+03  0.17065896394E+03 0.  0.
        -24    2    5    5    0    0 -0.46981929605E+02 -0.47980282801E+02  0.11775787446E+02  0.10161321280E+03  0.75346974716E+02 0.  0.
          4    1    4    4  501    0  0.91298074508E+02  0.44282204350E+02 -0.28693033443E+03  0.30434399755E+03  0.00000000000E+00 0. -1.
         -3    1    4    4    0  501 -0.24811946288E+01 -0.10845493318E+02 -0.34036437074E+01  0.11634682746E+02  0.00000000000E+00 0.  1.
          5    1    3    3  502    0 -0.40479879516E+02 -0.35867381512E+02 -0.10602182788E+03  0.11911258409E+03  0.47000000000E+01 0. -1.
         11    1    6    6    0    0 -0.59827850310E+02 -0.17092334371E+02 -0.80292883103E+01  0.62737461199E+02  0.00000000000E+00 0. -1.
        -12    1    6    6    0    0  0.12845920705E+02 -0.30887948430E+02  0.19805075756E+02  0.38875751603E+02  0.00000000000E+00 0.  1.
         -5    1    5    5    0  503 -0.13550707585E+01  0.50410953282E+02 -0.67367556661E+02  0.84282727282E+02  0.47000000000E+01 0.  1.
<mgrwt>
<rscale>  2 0.17894123E+03</rscale>
<asrwt>0</asrwt>
<pdfrwt beam="1">  1       21 0.13003049E-01 0.17946165E+03</pdfrwt>
<pdfrwt beam="2">  1       21 0.82533443E-01 0.17946165E+03</pdfrwt>
<totfact> 0.65500902E+04</totfact>
</mgrwt>
</event>
<event>
12    1  0.1473662E-001  0.2525864E+03  0.7546771E-02  0.1111791E+00
         21   -1    0    0  504  503  0.00000000000E+00  0.00000000000E+00  0.93094649426E+02  0.93094649426E+02  0.00000000000E+00 0. -1.
         21   -1    0    0  502  504 -0.00000000000E+00 -0.00000000000E+00 -0.69302117063E+03  0.69302117063E+03  0.00000000000E+00 0.  1.
          6    2    1    2  502    0 -0.77434311092E+02 -0.16654202658E+03 -0.25328565231E+03  0.35721047208E+03  0.17237569593E+03 0.  0.
         24    2    3    3    0    0 -0.59901358836E+02 -0.18932530883E+03 -0.24750665185E+03  0.32751250563E+03  0.81071901887E+02 0.  0.
         -6    2    1    2    0  503  0.77434311092E+02  0.16654202658E+03 -0.34664086890E+03  0.42890534798E+03  0.17340007607E+03 0.  0.
        -24    2    5    5    0    0  0.57672534462E+02  0.19183000983E+03 -0.26965893054E+03  0.34536901608E+03  0.80243034265E+02 0.  0.
          4    1    4    4  501    0 -0.77275788083E+02 -0.17393986037E+03 -0.22938990118E+03  0.29807104726E+03  0.00000000000E+00 0. -1.
         -3    1    4    4    0  501  0.17374429247E+02 -0.15385448463E+02 -0.18116750676E+02  0.29441458373E+02  0.00000000000E+00 0.  1.
          5    1    3    3  502    0 -0.17532952256E+02  0.22783282254E+02 -0.57790004503E+01  0.29697966450E+02  0.47000000000E+01 0. -1.
         11    1    6    6    0    0 -0.13293601667E+02  0.82363492146E+02 -0.83389411907E+02  0.11795871609E+03  0.00000000000E+00 0. -1.
        -12    1    6    6    0    0  0.70966136129E+02  0.10946651769E+03 -0.18626951863E+03  0.22741029999E+03  0.00000000000E+00 0.  1.
         -5    1    5    5    0  503  0.19761776630E+02 -0.25287983252E+02 -0.76981938360E+02  0.83536331893E+02  0.47000000000E+01 0.  1.
<mgrwt>
<rscale>  2 0.25241072E+03</rscale>
<asrwt>0</asrwt>
<pdfrwt beam="1">  1       21 0.14322254E-01 0.25258643E+03</pdfrwt>
<pdfrwt beam="2">  1       21 0.10661864E+00 0.25258643E+03</pdfrwt>
<totfact> 0.29114725E+04</totfact>
</mgrwt>
</event>
<event>
12    1  0.1473662E-001  0.3040308E+03  0.7546771E-02  0.1083269E+00
         21   -1    0    0  504  503  0.00000000000E+00  0.00000000000E+00  0.23960366412E+03  0.23960366412E+03  0.00000000000E+00 0. -1.
         21   -1    0    0  502  504 -0.00000000000E+00 -0.00000000000E+00 -0.38714359653E+03  0.38714359653E+03  0.00000000000E+00 0.  1.
          6    2    1    2  502    0  0.13198133431E+03 -0.21215074256E+03 -0.94134110972E+02  0.31827026683E+03  0.17322737003E+03 0.  0.
         24    2    3    3    0    0  0.16364048393E+03 -0.19631461994E+03 -0.88472091203E+02  0.28211458951E+03  0.80272614935E+02 0.  0.
         -6    2    1    2    0  503 -0.13198133431E+03  0.21215074256E+03 -0.53405821437E+02  0.30847699381E+03  0.17285503688E+03 0.  0.
        -24    2    5    5    0    0 -0.93199432849E+02  0.12619290692E+03  0.34127572726E+02  0.17972540943E+03  0.80782099087E+02 0.  0.
          4    1    4    4  501    0  0.39730811886E+02 -0.74005897175E+02  0.56668016806E+01  0.84187427037E+02  0.00000000000E+00 0. -1.
         -3    1    4    4    0  501  0.12390967205E+03 -0.12230872276E+03 -0.94138892883E+02  0.19792716247E+03  0.00000000000E+00 0.  1.
          5    1    3    3  502    0 -0.31659149628E+02 -0.15836122625E+02 -0.56620197696E+01  0.36155677325E+02  0.47000000000E+01 0. -1.
         13    1    6    6    0    0 -0.99248562559E+02  0.83590131189E+02  0.94079508921E+01  0.13010033337E+03  0.00000000000E+00 0. -1.
        -14    1    6    6    0    0  0.60491297097E+01  0.42602775733E+02  0.24719621834E+02  0.49625076061E+02  0.00000000000E+00 0.  1.
         -5    1    5    5    0  503 -0.38781901458E+02  0.85957835637E+02 -0.87533394164E+02  0.12875158439E+03  0.47000000000E+01 0.  1.
<mgrwt>
<rscale>  2 0.30397780E+03</rscale>
<asrwt>0</asrwt>
<pdfrwt beam="1">  1       21 0.36862103E-01 0.30403081E+03</pdfrwt>
<pdfrwt beam="2">  1       21 0.59560553E-01 0.30403081E+03</pdfrwt>
<totfact> 0.17667801E+04</totfact>
</mgrwt>
</event>
<event>
12    1  0.1473662E-001  0.2795643E+03  0.7546771E-02  0.1096038E+00
         21   -1    0    0  504  503  0.00000000000E+00  0.00000000000E+00  0.28248146313E+04  0.28248146313E+04  0.00000000000E+00 0.  1.
         21   -1    0    0  502  504 -0.00000000000E+00 -0.00000000000E+00 -0.36812834843E+02  0.36812834843E+02  0.00000000000E+00 0.  1.
          6    2    1    2  502    0  0.10565703454E+03  0.19250532299E+03  0.67925363562E+03  0.73453501296E+03  0.17301582425E+03 0.  0.
         24    2    3    3    0    0  0.32715383286E+02  0.54109913791E+02  0.14283336176E+03  0.17574831485E+03  0.80547637262E+02 0.  0.
         -6    2    1    2    0  503 -0.10565703454E+03 -0.19250532299E+03  0.21087481608E+04  0.21270924532E+04  0.17170262144E+03 0.  0.
        -24    2    5    5    0    0  0.61067138645E+01 -0.12333945182E+03  0.10956127588E+04  0.11054562723E+04  0.80102062536E+02 0.  0.
          4    1    4    4  501    0  0.22554025895E+02 -0.16196832289E+02  0.21375549545E+02  0.35041911743E+02  0.00000000000E+00 0. -1.
         -3    1    4    4    0  501  0.10161357391E+02  0.70306746080E+02  0.12145781221E+03  0.14070640311E+03  0.00000000000E+00 0.  1.
          5    1    3    3  502    0  0.72941651249E+02  0.13839540920E+03  0.53642027386E+03  0.55878669811E+03  0.47000000000E+01 0. -1.
         11    1    6    6    0    0  0.37631986466E+02 -0.28721598601E+02  0.33188877119E+03  0.33524804708E+03  0.00000000000E+00 0. -1.
        -12    1    6    6    0    0 -0.31525272602E+02 -0.94617853220E+02  0.76372398759E+03  0.77020822521E+03  0.00000000000E+00 0.  1.
         -5    1    5    5    0  503 -0.11176374840E+03 -0.69165871173E+02  0.10131354021E+04  0.10216361809E+04  0.47000000000E+01 0.  1.
<mgrwt>
<rscale>  2 0.27936135E+03</rscale>
<asrwt>0</asrwt>
<pdfrwt beam="1">  1       21 0.43458670E+00 0.27956427E+03</pdfrwt>
<pdfrwt beam="2">  1       21 0.56635153E-02 0.27956427E+03</pdfrwt>
<totfact> 0.10211664E+03</totfact>
</mgrwt>
</event>
<event>
12    1  0.1473662E-001  0.1846785E+03  0.7546771E-02  0.1163473E+00
         21   -1    0    0  504  503  0.00000000000E+00  0.00000000000E+00  0.91417867713E+02  0.91417867713E+02  0.00000000000E+00 0. -1.
         21   -1    0    0  502  504 -0.00000000000E+00 -0.00000000000E+00 -0.53385013092E+03  0.53385013092E+03  0.00000000000E+00 0. -1.
          6    2    1    2  502    0  0.59030875184E+02  0.25029898545E+02 -0.39355995386E+03  0.43473620570E+03  0.17319062104E+03 0.  0.
         24    2    3    3    0    0 -0.30018443136E+02  0.19531799910E+02 -0.25257299999E+03  0.26782478804E+03  0.81574497429E+02 0.  0.
         -6    2    1    2    0  503 -0.59030875184E+02 -0.25029898545E+02 -0.48872309344E+02  0.19053179293E+03  0.17263464731E+03 0.  0.
        -24    2    5    5    0    0 -0.70215951521E+01 -0.76554197187E+02 -0.47316068923E+02  0.11715447733E+03  0.74676055571E+02 0.  0.
          2    1    4    4  501    0 -0.12730357320E+02  0.43995163143E+02 -0.76036121524E+02  0.88764453211E+02  0.00000000000E+00 0. -1.
         -1    1    4    4    0  501 -0.17288085817E+02 -0.24463363233E+02 -0.17653687847E+03  0.17906033483E+03  0.00000000000E+00 0.  1.
          5    1    3    3  502    0  0.89049318320E+02  0.54980986353E+01 -0.14098695387E+03  0.16691141765E+03  0.47000000000E+01 0. -1.
         13    1    6    6    0    0 -0.12873048647E+02 -0.34600614475E+02  0.16598206018E+02  0.40477380677E+02  0.00000000000E+00 0. -1.
        -14    1    6    6    0    0  0.58514534950E+01 -0.41953582713E+02 -0.63914274941E+02  0.76677096657E+02  0.00000000000E+00 0.  1.
         -5    1    5    5    0  503 -0.52009280032E+02  0.51524298642E+02 -0.15562404210E+01  0.73377315597E+02  0.47000000000E+01 0.  1.
<mgrwt>
<rscale>  2 0.18454799E+03</rscale>
<asrwt>0</asrwt>
<pdfrwt beam="1">  1       21 0.14064287E-01 0.18467845E+03</pdfrwt>
<pdfrwt beam="2">  1       21 0.82130791E-01 0.18467845E+03</pdfrwt>
<totfact> 0.57353739E+04</totfact>
</mgrwt>
</event>
<event>
12    1  0.1473662E-001  0.2388962E+03  0.7546771E-02  0.1120656E+00
         21   -1    0    0  504  503  0.00000000000E+00  0.00000000000E+00  0.59307038294E+02  0.59307038294E+02  0.00000000000E+00 0. -1.
         21   -1    0    0  502  504 -0.00000000000E+00 -0.00000000000E+00 -0.95981052180E+03  0.95981052180E+03  0.00000000000E+00 0. -1.
          6    2    1    2  502    0 -0.10820451691E+03  0.12286190312E+03 -0.43910592621E+03  0.49988539813E+03  0.17397738965E+03 0.  0.
         24    2    3    3    0    0 -0.34165785397E+02 -0.47584598519E+00 -0.10583128162E+03  0.13685921058E+03  0.79766258716E+02 0.  0.
         -6    2    1    2    0  503  0.10820451691E+03 -0.12286190312E+03 -0.46139755729E+03  0.51923216197E+03  0.17294816398E+03 0.  0.
        -24    2    5    5    0    0  0.63467158740E+01  0.14898065286E+01 -0.16940259740E+03  0.18588323677E+03  0.76241966010E+02 0.  0.
          2    1    4    4  501    0 -0.51021874430E+02 -0.24747507675E+01 -0.30188888273E+02  0.59335697829E+02  0.00000000000E+00 0. -1.
         -1    1    4    4    0  501  0.16856089033E+02  0.19989047823E+01 -0.75642393344E+02  0.77523512747E+02  0.00000000000E+00 0.  1.
          5    1    3    3  502    0 -0.74038731511E+02  0.12333774911E+03 -0.33327464459E+03  0.36302618755E+03  0.47000000000E+01 0. -1.
         13    1    6    6    0    0  0.37717879755E+00  0.60532466892E+01 -0.17586677740E+03  0.17597132565E+03  0.00000000000E+00 0. -1.
        -14    1    6    6    0    0  0.59695370764E+01 -0.45634401606E+01  0.64641799978E+01  0.99119111200E+01  0.00000000000E+00 0.  1.
         -5    1    5    5    0  503  0.10185780103E+03 -0.12435170965E+03 -0.29199495989E+03  0.33334892519E+03  0.47000000000E+01 0.  1.
<mgrwt>
<rscale>  2 0.23870886E+03</rscale>
<asrwt>0</asrwt>
<pdfrwt beam="1">  1       21 0.91241596E-02 0.23889621E+03</pdfrwt>
<pdfrwt beam="2">  1       21 0.14766316E+00 0.23889621E+03</pdfrwt>
<totfact> 0.28910813E+04</totfact>
</mgrwt>
</event>
<event>
12    1  0.1473662E-001  0.2027729E+03  0.7546771E-02  0.1147489E+00
         21   -1    0    0  504  503  0.00000000000E+00  0.00000000000E+00  0.34171703794E+03  0.34171703794E+03  0.00000000000E+00 0. -1.
         21   -1    0    0  502  504 -0.00000000000E+00 -0.00000000000E+00 -0.12161643511E+03  0.12161643511E+03  0.00000000000E+00 0. -1.
          6    2    1    2  502    0 -0.88077405357E+02 -0.57457581999E+02  0.13558365167E+03  0.24365194130E+03  0.17298652789E+03 0.  0.
         24    2    3    3    0    0 -0.12819515214E+03 -0.52285653602E+02  0.12250562837E+03  0.20088154097E+03  0.78600113960E+02 0.  0.
         -6    2    1    2    0  503  0.88077405357E+02  0.57457581999E+02  0.84516951160E+02  0.21968153175E+03  0.17337201994E+03 0.  0.
        -24    2    5    5    0    0  0.81384156372E+02 -0.34697475648E+01  0.10571262727E+03  0.15465626162E+03  0.78153564463E+02 0.  0.
          4    1    4    4  501    0 -0.91373374990E+02 -0.60156134215E+01  0.41367587930E+02  0.10048163311E+03  0.00000000000E+00 0. -1.
         -3    1    4    4    0  501 -0.36821777152E+02 -0.46270040181E+02  0.81138040444E+02  0.10039990786E+03  0.00000000000E+00 0.  1.
          5    1    3    3  502    0  0.40117746785E+02 -0.51719283971E+01  0.13078023296E+02  0.42770400323E+02  0.47000000000E+01 0. -1.
         11    1    6    6    0    0  0.77502533806E+02  0.13087984297E+02  0.42824296711E+02  0.89508985405E+02  0.00000000000E+00 0. -1.
        -12    1    6    6    0    0  0.38816225658E+01 -0.16557731862E+02  0.62888330558E+02  0.65147276218E+02  0.00000000000E+00 0.  1.
         -5    1    5    5    0  503  0.66932489844E+01  0.60927329564E+02 -0.21195676109E+02  0.65025270130E+02  0.47000000000E+01 0.  1.
<mgrwt>
<rscale>  2 0.20269050E+03</rscale>
<asrwt>0</asrwt>
<pdfrwt beam="1">  1       21 0.52571851E-01 0.20277293E+03</pdfrwt>
<pdfrwt beam="2">  1       21 0.18710221E-01 0.20277293E+03</pdfrwt>
<totfact> 0.89277178E+04</totfact>
</mgrwt>
</event>
<event>
12    1  0.1473662E-001  0.2586402E+03  0.7546771E-02  0.1108382E+00
         21   -1    0    0  504  503  0.00000000000E+00  0.00000000000E+00  0.46913593661E+03  0.46913593661E+03  0.00000000000E+00 0. -1.
         21   -1    0    0  502  504 -0.00000000000E+00 -0.00000000000E+00 -0.17729520755E+03  0.17729520755E+03  0.00000000000E+00 0. -1.
          6    2    1    2  502    0 -0.19152662966E+03  0.62005557670E+01  0.45709701386E+00  0.25864057195E+03  0.17370618803E+03 0.  0.
         24    2    3    3    0    0 -0.17620394419E+03  0.40826953575E+02 -0.33709460239E+02  0.20742323358E+03  0.95777868188E+02 0.  0.
         -6    2    1    2    0  503  0.19152662966E+03 -0.62005557670E+01  0.29138363204E+03  0.38779057221E+03  0.16957656120E+03 0.  0.
        -24    2    5    5    0    0  0.21493688192E+03 -0.15396613024E+02  0.27047223576E+03  0.35474539292E+03  0.79083149766E+02 0.  0.
          4    1    4    4  501    0 -0.16160528160E+03  0.31570828297E+01 -0.13358554559E+02  0.16218719183E+03  0.00000000000E+00 0. -1.
         -3    1    4    4    0  501 -0.14598662582E+02  0.37669870745E+02 -0.20350905680E+02  0.45236041749E+02  0.00000000000E+00 0.  1.
          5    1    3    3  502    0 -0.15322685474E+02 -0.34626397808E+02  0.34166557253E+02  0.51217338371E+02  0.47000000000E+01 0. -1.
         11    1    6    6    0    0  0.12668514326E+03  0.29947013858E+02  0.14720983985E+03  0.19651128749E+03  0.00000000000E+00 0. -1.
        -12    1    6    6    0    0  0.88251738658E+02 -0.45343626882E+02  0.12326239591E+03  0.15823410543E+03  0.00000000000E+00 0.  1.
         -5    1    5    5    0  503 -0.23410252257E+02  0.91960572566E+01  0.20911396282E+02  0.33045179289E+02  0.47000000000E+01 0.  1.
<mgrwt>
<rscale>  2 0.25794859E+03</rscale>
<asrwt>0</asrwt>
<pdfrwt beam="1">  1       21 0.72174759E-01 0.25864017E+03</pdfrwt>
<pdfrwt beam="2">  1       21 0.27276186E-01 0.25864017E+03</pdfrwt>
<totfact> 0.21427060E+04</totfact>
</mgrwt>
</event>
<event>
12    1  0.1473662E-001  0.1864492E+03  0.7546771E-02  0.1161755E+00
         21   -1    0    0  504  503  0.00000000000E+00  0.00000000000E+00  0.13112808553E+03  0.13112808553E+03  0.00000000000E+00 0.  1.
         21   -1    0    0  502  504 -0.00000000000E+00 -0.00000000000E+00 -0.26849698137E+03  0.26849698137E+03  0.00000000000E+00 0. -1.
          6    2    1    2  502    0 -0.79068248718E+01  0.70182417111E+02 -0.45258185935E+02  0.19186354505E+03  0.17255499695E+03 0.  0.
         24    2    3    3    0    0 -0.41572975897E+01 -0.33648605151E+01 -0.77284110355E+02  0.11142095163E+03  0.80082390941E+02 0.  0.
         -6    2    1    2    0  503  0.79068248718E+01 -0.70182417111E+02 -0.92110709901E+02  0.20776152186E+03  0.17231476296E+03 0.  0.
        -24    2    5    5    0    0 -0.47191921825E+02 -0.52659846961E+01 -0.14558925756E+02  0.92494942534E+02  0.78029122735E+02 0.  0.
          4    1    4    4  501    0  0.18744436498E+02 -0.35048370184E+02 -0.49386524662E+02  0.63393777063E+02  0.00000000000E+00 0. -1.
         -3    1    4    4    0  501 -0.22901734088E+02  0.31683509669E+02 -0.27897585693E+02  0.48027174565E+02  0.00000000000E+00 0.  1.
          5    1    3    3  502    0 -0.37495272820E+01  0.73547277626E+02  0.32025924420E+02  0.80442593419E+02  0.47000000000E+01 0. -1.
         11    1    6    6    0    0  0.88178410119E+00  0.25447389947E+02  0.13610229459E+02  0.28871881550E+02  0.00000000000E+00 0. -1.
        -12    1    6    6    0    0 -0.48073705926E+02 -0.30713374643E+02 -0.28169155215E+02  0.63623060984E+02  0.00000000000E+00 0.  1.
         -5    1    5    5    0  503  0.55098746697E+02 -0.64916432415E+02 -0.77551784145E+02  0.11526657932E+03  0.47000000000E+01 0.  1.
<mgrwt>
<rscale>  2 0.18639363E+03</rscale>
<asrwt>0</asrwt>
<pdfrwt beam="1">  1       21 0.20173552E-01 0.18644923E+03</pdfrwt>
<pdfrwt beam="2">  1       21 0.41307227E-01 0.18644923E+03</pdfrwt>
<totfact> 0.12846152E+05</totfact>
</mgrwt>
</event>
<event>
12    1  0.1473662E-001  0.1879134E+03  0.7546771E-02  0.1163411E+00
         21   -1    0    0  504  503  0.00000000000E+00  0.00000000000E+00  0.52580671071E+03  0.52580671071E+03  0.00000000000E+00 0.  1.
         21   -1    0    0  502  504 -0.00000000000E+00 -0.00000000000E+00 -0.18000427741E+03  0.18000427741E+03  0.00000000000E+00 0.  1.
          6    2    1    2  502    0 -0.27118690658E+02 -0.80165280909E+01 -0.11412726702E+03  0.20897423743E+03  0.17275853301E+03 0.  0.
         24    2    3    3    0    0 -0.58695707901E+02 -0.51679441714E+02 -0.44560621856E+02  0.12085405721E+03  0.80648021061E+02 0.  0.
         -6    2    1    2    0  503  0.27118690658E+02  0.80165280909E+01  0.45992970031E+03  0.49683675069E+03  0.18577335520E+03 0.  0.
        -24    2    5    5    0    0 -0.19241879654E+02 -0.27274932697E+02  0.10093406509E+03  0.13311330383E+03  0.80108016302E+02 0.  0.
          4    1    4    4  501    0 -0.43001815411E+02 -0.63910099115E+02 -0.57550880585E+01  0.77244921749E+02  0.00000000000E+00 0. -1.
         -3    1    4    4    0  501 -0.15693892490E+02  0.12230657401E+02 -0.38805533797E+02  0.43609135456E+02  0.00000000000E+00 0.  1.
          5    1    3    3  502    0  0.31577017243E+02  0.43662913623E+02 -0.69566645162E+02  0.88120180226E+02  0.47000000000E+01 0. -1.
         11    1    6    6    0    0 -0.30639147820E+02  0.48030397741E+00  0.31205947559E+01  0.30801399037E+02  0.00000000000E+00 0. -1.
        -12    1    6    6    0    0  0.11397268165E+02 -0.27755236674E+02  0.97813470332E+02  0.10231190480E+03  0.00000000000E+00 0.  1.
         -5    1    5    5    0  503  0.46360570312E+02  0.35291460788E+02  0.35899563522E+03  0.36372344685E+03  0.47000000000E+01 0.  1.
<mgrwt>
<rscale>  2 0.18461353E+03</rscale>
<asrwt>0</asrwt>
<pdfrwt beam="1">  1       21 0.80893340E-01 0.18791335E+03</pdfrwt>
<pdfrwt beam="2">  1       21 0.27692966E-01 0.18791335E+03</pdfrwt>
<totfact> 0.16742387E+04</totfact>
</mgrwt>
</event>
<event>
12    1  0.1473662E-001  0.1940354E+03  0.7546771E-02  0.1155150E+00
         21   -1    0    0  504  503  0.00000000000E+00  0.00000000000E+00  0.17590622285E+04  0.17590622285E+04  0.00000000000E+00 0. -1.
         21   -1    0    0  502  504 -0.00000000000E+00 -0.00000000000E+00 -0.47365039243E+02  0.47365039243E+02  0.00000000000E+00 0. -1.
          6    2    1    2  502    0 -0.82821849162E+02  0.91470583586E+01  0.18661926510E+03  0.26921457981E+03  0.17523302343E+03 0.  0.
         24    2    3    3    0    0 -0.52119855903E+02 -0.47038547256E+02  0.17305940480E+03  0.20359907494E+03  0.81079722607E+02 0.  0.
         -6    2    1    2    0  503  0.82821849162E+02 -0.91470583586E+01  0.15250779242E+04  0.15372126880E+04  0.17383050891E+03 0.  0.
        -24    2    5    5    0    0  0.55027017984E+02 -0.44863256221E+02  0.14020009725E+04  0.14059944519E+04  0.78568362094E+02 0.  0.
          4    1    4    4  501    0  0.11343644807E+01 -0.29751541854E+02  0.12889083287E+03  0.13228487375E+03  0.00000000000E+00 0. -1.
         -3    1    4    4    0  501 -0.53254220384E+02 -0.17287005402E+02  0.44168571932E+02  0.71314201187E+02  0.00000000000E+00 0.  1.
          5    1    3    3  502    0 -0.30701993259E+02  0.56185605615E+02  0.13559860304E+02  0.65615504873E+02  0.47000000000E+01 0. -1.
         11    1    6    6    0    0 -0.65852915890E+01 -0.19611867206E+02  0.80939640891E+03  0.80966075498E+03  0.00000000000E+00 0. -1.
        -12    1    6    6    0    0  0.61612309573E+02 -0.25251389014E+02  0.59260456360E+03  0.59633369697E+03  0.00000000000E+00 0.  1.
         -5    1    5    5    0  503  0.27794831178E+02  0.35716197862E+02  0.12307695168E+03  0.13121823602E+03  0.47000000000E+01 0.  1.
<mgrwt>
<rscale>  2 0.19371822E+03</rscale>
<asrwt>0</asrwt>
<pdfrwt beam="1">  1       21 0.27062491E+00 0.19403541E+03</pdfrwt>
<pdfrwt beam="2">  1       21 0.72869305E-02 0.19403541E+03</pdfrwt>
<totfact> 0.71036063E+03</totfact>
</mgrwt>
</event>
<event>
12    1  0.1473662E-001  0.1894679E+03  0.7546771E-02  0.1160722E+00
         21   -1    0    0  504  503  0.00000000000E+00  0.00000000000E+00  0.75808290288E+02  0.75808290288E+02  0.00000000000E+00 0. -1.
         21   -1    0    0  502  504 -0.00000000000E+00 -0.00000000000E+00 -0.97445957898E+03  0.97445957898E+03  0.00000000000E+00 0.  1.
          6    2    1    2  502    0  0.52816015675E+02 -0.13267701545E+02 -0.82853666307E+03  0.84824273914E+03  0.17342773436E+03 0.  0.
         24    2    3    3    0    0  0.70215887401E+02  0.17952992515E+02 -0.78112657044E+03  0.78868357397E+03  0.81304858469E+02 0.  0.
         -6    2    1    2    0  503 -0.52816015675E+02  0.13267701545E+02 -0.70114625626E+02  0.20202513013E+03  0.18147321857E+03 0.  0.
        -24    2    5    5    0    0 -0.99733828565E+02  0.30611819278E+02 -0.75971213787E+02  0.15144361956E+03  0.79244082060E+02 0.  0.
          2    1    4    4  501    0  0.41056330030E+02  0.28866070031E+02 -0.18329806204E+03  0.19004486782E+03  0.00000000000E+00 0. -1.
         -1    1    4    4    0  501  0.29159557371E+02 -0.10913077516E+02 -0.59782850840E+03  0.59863870615E+03  0.00000000000E+00 0.  1.
          5    1    3    3  502    0 -0.17399871726E+02 -0.31220694060E+02 -0.47410092624E+02  0.59559165175E+02  0.47000000000E+01 0. -1.
         13    1    6    6    0    0  0.11832463714E+02 -0.62024672495E+01 -0.10152413578E+02  0.16779430830E+02  0.00000000000E+00 0. -1.
        -14    1    6    6    0    0 -0.11156629228E+03  0.36814286527E+02 -0.65818800209E+02  0.13466418873E+03  0.00000000000E+00 0.  1.
         -5    1    5    5    0  503  0.46917812890E+02 -0.17344117732E+02  0.58565881608E+01  0.50581510566E+02  0.47000000000E+01 0.  1.
<mgrwt>
<rscale>  2 0.18751511E+03</rscale>
<asrwt>0</asrwt>
<pdfrwt beam="1">  1       21 0.11662815E-01 0.18946792E+03</pdfrwt>
<pdfrwt beam="2">  1       21 0.14991684E+00 0.18946792E+03</pdfrwt>
<totfact> 0.18523958E+04</totfact>
</mgrwt>
</event>
<event>
12    1  0.1473662E-001  0.1748204E+03  0.7546771E-02  0.1173104E+00
         21   -1    0    0  504  503  0.00000000000E+00  0.00000000000E+00  0.34919836948E+02  0.34919836948E+02  0.00000000000E+00 0.  1.
         21   -1    0    0  502  504 -0.00000000000E+00 -0.00000000000E+00 -0.88970571449E+03  0.88970571449E+03  0.00000000000E+00 0.  1.
          6    2    1    2  502    0  0.75405072001E+01  0.27228709808E+02 -0.36017506811E+03  0.40002853026E+03  0.17175122546E+03 0.  0.
         24    2    3    3    0    0  0.70072617609E+02 -0.21520879406E+01 -0.21843390806E+03  0.24227510697E+03  0.77904120839E+02 0.  0.
         -6    2    1    2    0  503 -0.75405072001E+01 -0.27228709808E+02 -0.49461080943E+03  0.52459702118E+03  0.17252223027E+03 0.  0.
        -24    2    5    5    0    0  0.25198285332E+02 -0.19513348399E+02 -0.11541812772E+03  0.14388645500E+03  0.79788742162E+02 0.  0.
          2    1    4    4  501    0  0.22440803963E+02  0.50984046348E+01 -0.51037409599E+01  0.23571838794E+02  0.00000000000E+00 0. -1.
         -1    1    4    4    0  501  0.47631813646E+02 -0.72504925754E+01 -0.21333016710E+03  0.21870326818E+03  0.00000000000E+00 0.  1.
          5    1    3    3  502    0 -0.62532110409E+02  0.29380797748E+02 -0.14174116005E+03  0.15775342329E+03  0.47000000000E+01 0. -1.
         11    1    6    6    0    0 -0.19137502896E+01  0.21733194178E+02 -0.80553272084E+02  0.83455519966E+02  0.00000000000E+00 0. -1.
        -12    1    6    6    0    0  0.27112035622E+02 -0.41246542578E+02 -0.34864855635E+02  0.60430935030E+02  0.00000000000E+00 0.  1.
         -5    1    5    5    0  503 -0.32738792532E+02 -0.77153614081E+01 -0.37919268171E+03  0.38071056618E+03  0.47000000000E+01 0.  1.
<mgrwt>
<rscale>  2 0.17462991E+03</rscale>
<asrwt>0</asrwt>
<pdfrwt beam="1">  1       21 0.53722836E-02 0.17482043E+03</pdfrwt>
<pdfrwt beam="2">  1       21 0.13687778E+00 0.17482043E+03</pdfrwt>
<totfact> 0.91061033E+04</totfact>
</mgrwt>
</event>
<event>
12    1  0.1473662E-001  0.2094304E+03  0.7546771E-02  0.1142086E+00
         21   -1    0    0  504  503  0.00000000000E+00  0.00000000000E+00  0.23511205139E+02  0.23511205139E+02  0.00000000000E+00 0.  1.
         21   -1    0    0  502  504 -0.00000000000E+00 -0.00000000000E+00 -0.19414558881E+04  0.19414558881E+04  0.00000000000E+00 0. -1.
          6    2    1    2  502    0  0.11342210143E+03  0.27633933440E+02 -0.76158298001E+03  0.78985425796E+03  0.17387612258E+03 0.  0.
         24    2    3    3    0    0 -0.14109947999E+01 -0.24399327535E+02 -0.27832471620E+03  0.29039981582E+03  0.79183882746E+02 0.  0.
         -6    2    1    2    0  503 -0.11342210143E+03 -0.27633933440E+02 -0.11563617030E+04  0.11751128353E+04  0.17346348382E+03 0.  0.
        -24    2    5    5    0    0 -0.53602567071E+02 -0.43381720602E+02 -0.35874051790E+03  0.37508282688E+03  0.85071493234E+02 0.  0.
          2    1    4    4  501    0 -0.12827332386E+02 -0.48481227960E+02 -0.12342683071E+03  0.13322594515E+03  0.00000000000E+00 0. -1.
         -1    1    4    4    0  501  0.11416337586E+02  0.24081900425E+02 -0.15489788549E+03  0.15717387067E+03  0.00000000000E+00 0.  1.
          5    1    3    3  502    0  0.11483309623E+03  0.52033260975E+02 -0.48325826381E+03  0.49945444214E+03  0.47000000000E+01 0. -1.
         13    1    6    6    0    0 -0.40509077753E+02  0.19666997404E+02 -0.15494577845E+03  0.16135665598E+03  0.00000000000E+00 0. -1.
        -14    1    6    6    0    0 -0.13093489318E+02 -0.63048718006E+02 -0.20379473945E+03  0.21372617091E+03  0.00000000000E+00 0.  1.
         -5    1    5    5    0  503 -0.59819534358E+02  0.15747787161E+02 -0.79762118507E+03  0.80003000842E+03  0.47000000000E+01 0.  1.
<mgrwt>
<rscale>  2 0.20934478E+03</rscale>
<asrwt>0</asrwt>
<pdfrwt beam="1">  1       21 0.36171073E-02 0.20943045E+03</pdfrwt>
<pdfrwt beam="2">  1       21 0.29868562E+00 0.20943045E+03</pdfrwt>
<totfact> 0.15841029E+04</totfact>
</mgrwt>
</event>
<event>
12    1  0.1473662E-001  0.2472121E+03  0.7546771E-02  0.1115635E+00
         21   -1    0    0  504  503  0.00000000000E+00  0.00000000000E+00  0.24392582979E+03  0.24392582979E+03  0.00000000000E+00 0.  1.
         21   -1    0    0  502  504 -0.00000000000E+00 -0.00000000000E+00 -0.42726213119E+03  0.42726213119E+03  0.00000000000E+00 0.  1.
          6    2    1    2  502    0 -0.15462268966E+03  0.75331685646E+02 -0.30923360429E+03  0.39376420576E+03  0.17274776033E+03 0.  0.
         24    2    3    3    0    0 -0.17886655466E+03  0.83897153247E+02 -0.29459599088E+03  0.36380620262E+03  0.80846635819E+02 0.  0.
         -6    2    1    2    0  503  0.15462268966E+03 -0.75331685646E+02  0.12589730289E+03  0.27742375522E+03  0.17756905717E+03 0.  0.
        -24    2    5    5    0    0  0.72376131468E+02 -0.39516304983E+02 -0.86606651175E+01  0.11563631881E+03  0.80603401551E+02 0.  0.
          4    1    4    4  501    0 -0.71621953357E+02  0.70110572956E+02 -0.18152780272E+03  0.20735848139E+03  0.00000000000E+00 0. -1.
         -3    1    4    4    0  501 -0.10724460131E+03  0.13786580291E+02 -0.11306818816E+03  0.15644772123E+03  0.00000000000E+00 0.  1.
          5    1    3    3  502    0  0.24243865009E+02 -0.85654676005E+01 -0.14637613409E+02  0.29958003140E+02  0.47000000000E+01 0. -1.
         11    1    6    6    0    0  0.20234765891E+02  0.23265174003E+02 -0.13975759191E+02  0.33853152246E+02  0.00000000000E+00 0. -1.
        -12    1    6    6    0    0  0.52141365577E+02 -0.62781478986E+02  0.53150940732E+01  0.81783166562E+02  0.00000000000E+00 0.  1.
         -5    1    5    5    0  503  0.82246558188E+02 -0.35815380663E+02  0.13455796801E+03  0.16178743641E+03  0.47000000000E+01 0.  1.
<mgrwt>
<rscale>  2 0.24634755E+03</rscale>
<asrwt>0</asrwt>
<pdfrwt beam="1">  1       21 0.37527051E-01 0.24721207E+03</pdfrwt>
<pdfrwt beam="2">  1       21 0.65732634E-01 0.24721207E+03</pdfrwt>
<totfact> 0.14104961E+04</totfact>
</mgrwt>
</event>
<event>
12    1  0.1473662E-001  0.2376130E+03  0.7546771E-02  0.1121746E+00
         21   -1    0    0  504  503  0.00000000000E+00  0.00000000000E+00  0.91871318052E+02  0.91871318052E+02  0.00000000000E+00 0. -1.
         21   -1    0    0  502  504 -0.00000000000E+00 -0.00000000000E+00 -0.84608776252E+03  0.84608776252E+03  0.00000000000E+00 0. -1.
          6    2    1    2  502    0  0.56027299902E+02  0.15256277393E+03 -0.62407426691E+03  0.66704037992E+03  0.17046911597E+03 0.  0.
         24    2    3    3    0    0  0.96100637001E+01  0.26348044991E+02 -0.11234567208E+03  0.13791566647E+03  0.74917342606E+02 0.  0.
         -6    2    1    2    0  503 -0.56027299902E+02 -0.15256277393E+03 -0.13014217755E+03  0.27091870065E+03  0.17333637142E+03 0.  0.
        -24    2    5    5    0    0 -0.10150039896E+02 -0.16988552365E+03 -0.11176720932E+03  0.21833990168E+03  0.78843446980E+02 0.  0.
          2    1    4    4  501    0  0.21516659994E+02  0.16602177301E+02 -0.28297069553E+01  0.27324095409E+02  0.00000000000E+00 0. -1.
         -1    1    4    4    0  501 -0.11906596294E+02  0.97458676895E+01 -0.10951596512E+03  0.11059157106E+03  0.00000000000E+00 0.  1.
          5    1    3    3  502    0  0.46417236202E+02  0.12621472894E+03 -0.51172859484E+03  0.52912471346E+03  0.47000000000E+01 0. -1.
         13    1    6    6    0    0 -0.31088786515E+02 -0.63093593587E+02 -0.13309208896E+02  0.71585258539E+02  0.00000000000E+00 0. -1.
        -14    1    6    6    0    0  0.20938746619E+02 -0.10679193006E+03 -0.98458000421E+02  0.14675464314E+03  0.00000000000E+00 0.  1.
         -5    1    5    5    0  503 -0.45877260006E+02  0.17322749715E+02 -0.18374968234E+02  0.52578798968E+02  0.47000000000E+01 0.  1.
<mgrwt>
<rscale>  2 0.23709045E+03</rscale>
<asrwt>0</asrwt>
<pdfrwt beam="1">  1       21 0.14134050E-01 0.23761304E+03</pdfrwt>
<pdfrwt beam="2">  1       21 0.13016734E+00 0.23761304E+03</pdfrwt>
<totfact> 0.18315758E+04</totfact>
</mgrwt>
</event>
<event>
12    1  0.1473662E-001  0.2682872E+03  0.7546771E-02  0.1103840E+00
         21   -1    0    0  504  503  0.00000000000E+00  0.00000000000E+00  0.17915299381E+04  0.17915299381E+04  0.00000000000E+00 0.  1.
         21   -1    0    0  502  504 -0.00000000000E+00 -0.00000000000E+00 -0.39166202737E+02  0.39166202737E+02  0.00000000000E+00 0.  1.
          6    2    1    2  502    0  0.11896599618E+03 -0.15083841503E+03  0.74782963261E+03  0.79095251484E+03  0.17161464281E+03 0.  0.
         24    2    3    3    0    0  0.93732690711E+02 -0.31422338363E+02  0.49321864873E+03  0.50855959321E+03  0.74800025006E+02 0.  0.
         -6    2    1    2    0  503 -0.11896599618E+03  0.15083841503E+03  0.10045341027E+04  0.10397436260E+04  0.18727762415E+03 0.  0.
        -24    2    5    5    0    0  0.96749621649E+01  0.49626656539E+02  0.23607480277E+03  0.25403114554E+03  0.79019620773E+02 0.  0.
          2    1    4    4  501    0  0.49828580618E+02  0.21124849964E+02  0.25585095397E+03  0.26151263330E+03  0.00000000000E+00 0. -1.
         -1    1    4    4    0  501  0.43904110094E+02 -0.52547188327E+02  0.23736769476E+03  0.24704695991E+03  0.00000000000E+00 0.  1.
          5    1    3    3  502    0  0.25233305468E+02 -0.11941607667E+03  0.25461098388E+03  0.28239292163E+03  0.47000000000E+01 0. -1.
         13    1    6    6    0    0 -0.20823762900E+01 -0.17422649131E+02  0.10375244860E+03  0.10522573632E+03  0.00000000000E+00 0. -1.
        -14    1    6    6    0    0  0.11757338455E+02  0.67049305670E+02  0.13232235417E+03  0.14880540921E+03  0.00000000000E+00 0.  1.
         -5    1    5    5    0  503 -0.12864095834E+03  0.10121175849E+03  0.76845929998E+03  0.78571248045E+03  0.47000000000E+01 0.  1.
<mgrwt>
<rscale>  2 0.26557405E+03</rscale>
<asrwt>0</asrwt>
<pdfrwt beam="1">  1       21 0.27561993E+00 0.26828724E+03</pdfrwt>
<pdfrwt beam="2">  1       21 0.60255710E-02 0.26828724E+03</pdfrwt>
<totfact> 0.86367983E+03</totfact>
</mgrwt>
</event>
<event>
12    1  0.1473662E-001  0.1787834E+03  0.7546771E-02  0.1169866E+00
         21   -1    0    0  504  503  0.00000000000E+00  0.00000000000E+00  0.24289467244E+03  0.24289467244E+03  0.00000000000E+00 0.  1.
         21   -1    0    0  502  504 -0.00000000000E+00 -0.00000000000E+00 -0.41449234182E+03  0.41449234182E+03  0.00000000000E+00 0.  1.
          6    2    1    2  502    0  0.16952497842E+02 -0.30437972204E+02 -0.35886285623E+03  0.40093147775E+03  0.17535576106E+03 0.  0.
         24    2    3    3    0    0 -0.19425068167E+02  0.45953675852E+02 -0.20379354214E+03  0.22421816933E+03  0.79075318792E+02 0.  0.
         -6    2    1    2    0  503 -0.16952497842E+02  0.30437972204E+02  0.18726518684E+03  0.25645553651E+03  0.17171876622E+03 0.  0.
        -24    2    5    5    0    0  0.50422954311E+02  0.31050423895E+02  0.14779057811E+03  0.17822407619E+03  0.80094714002E+02 0.  0.
          4    1    4    4  501    0 -0.11985460618E+02  0.59329072927E+02 -0.84470417620E+02  0.10391747502E+03  0.00000000000E+00 0. -1.
         -3    1    4    4    0  501 -0.74396075493E+01 -0.13375397075E+02 -0.11932312452E+03  0.12030069431E+03  0.00000000000E+00 0.  1.
          5    1    3    3  502    0  0.36377566009E+02 -0.76391648056E+02 -0.15506931409E+03  0.17671330842E+03  0.47000000000E+01 0. -1.
         11    1    6    6    0    0 -0.32537695918E+01 -0.12941694163E+02 -0.16582661171E+01  0.13447093027E+02  0.00000000000E+00 0. -1.
        -12    1    6    6    0    0  0.53676723902E+02  0.43992118058E+02  0.14944884423E+03  0.16477698316E+03  0.00000000000E+00 0.  1.
         -5    1    5    5    0  503 -0.67375452153E+02 -0.61245169054E+00  0.39474608729E+02  0.78231460322E+02  0.47000000000E+01 0.  1.
<mgrwt>
<rscale>  2 0.17788518E+03</rscale>
<asrwt>0</asrwt>
<pdfrwt beam="1">  1       21 0.37368412E-01 0.17878339E+03</pdfrwt>
<pdfrwt beam="2">  1       21 0.63768052E-01 0.17878339E+03</pdfrwt>
<totfact> 0.15830299E+04</totfact>
</mgrwt>
</event>
<event>
12    1  0.1473662E-001  0.2034488E+03  0.7546771E-02  0.1146885E+00
         21   -1    0    0  504  503  0.00000000000E+00  0.00000000000E+00  0.13034609995E+03  0.13034609995E+03  0.00000000000E+00 0.  1.
         21   -1    0    0  502  504 -0.00000000000E+00 -0.00000000000E+00 -0.93206861513E+03  0.93206861513E+03  0.00000000000E+00 0.  1.
          6    2    1    2  502    0  0.77196877745E+02 -0.74920402140E+02 -0.83221313220E+03  0.85669381400E+03  0.17254903349E+03 0.  0.
         24    2    3    3    0    0  0.57541538063E+02 -0.40385066828E+02 -0.79515968696E+03  0.80215878336E+03  0.78979767858E+02 0.  0.
         -6    2    1    2    0  503 -0.77196877745E+02  0.74920402140E+02  0.30490617019E+02  0.20572090108E+03  0.17268175012E+03 0.  0.
        -24    2    5    5    0    0 -0.99379072793E+02  0.43758668025E+01  0.22252070523E+02  0.13116525145E+03  0.82545867414E+02 0.  0.
          2    1    4    4  501    0  0.43785688063E+02  0.11539396902E+02 -0.22744512906E+03  0.23190866929E+03  0.00000000000E+00 0. -1.
         -1    1    4    4    0  501  0.13755850000E+02 -0.51924463731E+02 -0.56771455790E+03  0.57025011407E+03  0.00000000000E+00 0.  1.
          5    1    3    3  502    0  0.19655339682E+02 -0.34535335312E+02 -0.37053445237E+02  0.54535030641E+02  0.47000000000E+01 0. -1.
         13    1    6    6    0    0  0.28724683181E+01 -0.20389987162E+02  0.15439770480E+02  0.25736922178E+02  0.00000000000E+00 0. -1.
        -14    1    6    6    0    0 -0.10225154111E+03  0.24765853965E+02  0.68123000428E+01  0.10542832928E+03  0.00000000000E+00 0.  1.
         -5    1    5    5    0  503  0.22182195048E+02  0.70544535338E+02  0.82385464959E+01  0.74555649628E+02  0.47000000000E+01 0.  1.
<mgrwt>
<rscale>  2 0.20342063E+03</rscale>
<asrwt>0</asrwt>
<pdfrwt beam="1">  1       21 0.20053246E-01 0.20344879E+03</pdfrwt>
<pdfrwt beam="2">  1       21 0.14339517E+00 0.20344879E+03</pdfrwt>
<totfact> 0.76592262E+03</totfact>
</mgrwt>
</event>
<event>
12    1  0.1473662E-001  0.2931782E+03  0.7546771E-02  0.1088716E+00
         21   -1    0    0  504  503  0.00000000000E+00  0.00000000000E+00  0.57467588391E+03  0.57467588391E+03  0.00000000000E+00 0. -1.
         21   -1    0    0  502  504 -0.00000000000E+00 -0.00000000000E+00 -0.22084810913E+03  0.22084810913E+03  0.00000000000E+00 0.  1.
          6    2    1    2  502    0  0.17920042556E+03  0.15469496606E+03  0.40299991199E+03  0.49835969875E+03  0.17294546893E+03 0.  0.
         24    2    3    3    0    0  0.15801373115E+02  0.39650094207E+02  0.70313210847E+02  0.11023973791E+03  0.73396449723E+02 0.  0.
         -6    2    1    2    0  503 -0.17920042556E+03 -0.15469496606E+03 -0.49172137222E+02  0.29716429429E+03  0.17275819423E+03 0.  0.
        -24    2    5    5    0    0 -0.17923879526E+02 -0.27482784357E+01 -0.19400298346E+02  0.73543247488E+02  0.68581478430E+02 0.  0.
          2    1    4    4  501    0  0.17030464457E+01  0.58799884757E+01  0.73270323638E+02  0.73525607496E+02  0.00000000000E+00 0. -1.
         -1    1    4    4    0  501  0.14098326669E+02  0.33770105731E+02 -0.29571127912E+01  0.36714130414E+02  0.00000000000E+00 0.  1.
          5    1    3    3  502    0  0.16339905245E+03  0.11504487186E+03  0.33268670115E+03  0.38811996084E+03  0.47000000000E+01 0. -1.
         11    1    6    6    0    0 -0.11394607171E+02 -0.13766520797E+02  0.23071136573E+02  0.29182726230E+02  0.00000000000E+00 0. -1.
        -12    1    6    6    0    0 -0.65292723550E+01  0.11018242361E+02 -0.42471434919E+02  0.44360521258E+02  0.00000000000E+00 0.  1.
         -5    1    5    5    0  503 -0.16127654604E+03 -0.15194668763E+03 -0.29771838876E+02  0.22362104680E+03  0.47000000000E+01 0.  1.
<mgrwt>
<rscale>  2 0.29315059E+03</rscale>
<asrwt>0</asrwt>
<pdfrwt beam="1">  1       21 0.88411674E-01 0.29317821E+03</pdfrwt>
<pdfrwt beam="2">  1       21 0.33976632E-01 0.29317821E+03</pdfrwt>
<totfact> 0.86080070E+03</totfact>
</mgrwt>
</event>
<event>
12    1  0.1473662E-001  0.3639342E+03  0.7546771E-02  0.1057110E+00
         21   -1    0    0  504  503  0.00000000000E+00  0.00000000000E+00  0.64714567508E+03  0.64714567508E+03  0.00000000000E+00 0. -1.
         21   -1    0    0  502  504 -0.00000000000E+00 -0.00000000000E+00 -0.22220558421E+03  0.22220558421E+03  0.00000000000E+00 0.  1.
          6    2    1    2  502    0 -0.22359452163E+03 -0.22807318692E+03  0.89088284730E+02  0.37467962561E+03  0.17445976808E+03 0.  0.
         24    2    3    3    0    0 -0.19007774192E+03 -0.24576753958E+03  0.59122434965E+02  0.32613576101E+03  0.79610557161E+02 0.  0.
         -6    2    1    2    0  503  0.22359452163E+03  0.22807318692E+03  0.33585180614E+03  0.49467163368E+03  0.17289216518E+03 0.  0.
        -24    2    5    5    0    0  0.20621112384E+03  0.24522980604E+03  0.33435652299E+03  0.46975461198E+03  0.78831628472E+02 0.  0.
          4    1    4    4  501    0 -0.12127443360E+03 -0.17883859264E+03  0.75241001815E+02  0.22880546064E+03  0.00000000000E+00 0. -1.
         -3    1    4    4    0  501 -0.68803308321E+02 -0.66928946932E+02 -0.16118566851E+02  0.97330300373E+02  0.00000000000E+00 0.  1.
          5    1    3    3  502    0 -0.33516779716E+02  0.17694352660E+02  0.29965849766E+02  0.48543864605E+02  0.47000000000E+01 0. -1.
         13    1    6    6    0    0  0.65435457912E+02  0.11588829550E+03  0.18105982467E+03  0.22470993813E+03  0.00000000000E+00 0. -1.
        -14    1    6    6    0    0  0.14077566593E+03  0.12934151054E+03  0.15329669832E+03  0.24504467385E+03  0.00000000000E+00 0.  1.
         -5    1    5    5    0  503  0.17383397789E+02 -0.17156619124E+02  0.14952831560E+01  0.24917021696E+02  0.47000000000E+01 0.  1.
<mgrwt>
<rscale>  2 0.36374684E+03</rscale>
<asrwt>0</asrwt>
<pdfrwt beam="1">  1       21 0.99560872E-01 0.36393420E+03</pdfrwt>
<pdfrwt beam="2">  1       21 0.34185475E-01 0.36393420E+03</pdfrwt>
<totfact> 0.62196907E+03</totfact>
</mgrwt>
</event>
<event>
12    1  0.1473662E-001  0.2664961E+03  0.7546771E-02  0.1103501E+00
         21   -1    0    0  504  503  0.00000000000E+00  0.00000000000E+00  0.56892426363E+03  0.56892426363E+03  0.00000000000E+00 0.  1.
         21   -1    0    0  502  504 -0.00000000000E+00 -0.00000000000E+00 -0.12956656680E+03  0.12956656680E+03  0.00000000000E+00 0.  1.
          6    2    1    2  502    0  0.10917726001E+03  0.16999044335E+03  0.14801014001E+03  0.30364458110E+03  0.17168752184E+03 0.  0.
         24    2    3    3    0    0  0.11041901792E+03  0.19636502468E+03  0.12852990731E+03  0.27049748517E+03  0.76794335555E+02 0.  0.
         -6    2    1    2    0  503 -0.10917726001E+03 -0.16999044335E+03  0.29134755682E+03  0.39484624933E+03  0.17379222311E+03 0.  0.
        -24    2    5    5    0    0 -0.52353018349E+02 -0.14600555783E+03  0.11948309288E+03  0.21218877443E+03  0.81788783221E+02 0.  0.
          2    1    4    4  501    0  0.60802451375E+02  0.38219914648E+02  0.46567523860E+02  0.85593424090E+02  0.00000000000E+00 0. -1.
         -1    1    4    4    0  501  0.49616566546E+02  0.15814511003E+03  0.81962383448E+02  0.18490406108E+03  0.00000000000E+00 0.  1.
          5    1    3    3  502    0 -0.12417579153E+01 -0.26374581326E+02  0.19480232703E+02  0.33147095936E+02  0.47000000000E+01 0. -1.
         11    1    6    6    0    0  0.35232045788E+01  0.81875991602E+01 -0.58135945145E+00  0.89323977365E+01  0.00000000000E+00 0. -1.
        -12    1    6    6    0    0 -0.55876222928E+02 -0.15419315699E+03  0.12006445233E+03  0.20325637669E+03  0.00000000000E+00 0.  1.
         -5    1    5    5    0  503 -0.56824241656E+02 -0.23984885521E+02  0.17186446394E+03  0.18265747490E+03  0.47000000000E+01 0.  1.
<mgrwt>
<rscale>  2 0.26615348E+03</rscale>
<asrwt>0</asrwt>
<pdfrwt beam="1">  1       21 0.87526808E-01 0.26649608E+03</pdfrwt>
<pdfrwt beam="2">  1       21 0.19933318E-01 0.26649608E+03</pdfrwt>
<totfact> 0.25053511E+04</totfact>
</mgrwt>
</event>
<event>
12    1  0.1473662E-001  0.2104447E+03  0.7546771E-02  0.1141567E+00
         21   -1    0    0  504  503  0.00000000000E+00  0.00000000000E+00  0.78770196080E+02  0.78770196080E+02  0.00000000000E+00 0.  1.
         21   -1    0    0  502  504 -0.00000000000E+00 -0.00000000000E+00 -0.11805301090E+04  0.11805301090E+04  0.00000000000E+00 0.  1.
          6    2    1    2  502    0  0.76701512852E+02 -0.88940818987E+02 -0.10071978184E+04  0.10285862473E+04  0.17247791568E+03 0.  0.
         24    2    3    3    0    0  0.27663479805E+01 -0.67364990985E+01 -0.24209316791E+03  0.25552016021E+03  0.81415092116E+02 0.  0.
         -6    2    1    2    0  503 -0.76701512852E+02  0.88940818987E+02 -0.94562094557E+02  0.23071405781E+03  0.17462358200E+03 0.  0.
        -24    2    5    5    0    0 -0.18615906101E+02 -0.21386670027E+02 -0.26935863603E+02  0.88793341718E+02  0.79716843707E+02 0.  0.
          2    1    4    4  501    0 -0.27046454227E+02 -0.38056805560E+01 -0.27191134466E+02  0.38540260563E+02  0.00000000000E+00 0. -1.
         -1    1    4    4    0  501  0.29812802207E+02 -0.29308185425E+01 -0.21490203345E+03  0.21697989965E+03  0.00000000000E+00 0.  1.
          5    1    3    3  502    0  0.73935164872E+02 -0.82204319889E+02 -0.76510465045E+03  0.77306608705E+03  0.47000000000E+01 0. -1.
         13    1    6    6    0    0 -0.23840550172E+02 -0.44534468021E+02 -0.37405905113E+02  0.62856124696E+02  0.00000000000E+00 0. -1.
        -14    1    6    6    0    0  0.52246440712E+01  0.23147797994E+02  0.10470041510E+02  0.25937217022E+02  0.00000000000E+00 0.  1.
         -5    1    5    5    0  503 -0.58085606751E+02  0.11032748901E+03 -0.67626230954E+02  0.14192071609E+03  0.47000000000E+01 0.  1.
<mgrwt>
<rscale>  2 0.20999907E+03</rscale>
<asrwt>0</asrwt>
<pdfrwt beam="1">  1       21 0.12118492E-01 0.21044474E+03</pdfrwt>
<pdfrwt beam="2">  1       21 0.18162002E+00 0.21044474E+03</pdfrwt>
<totfact> 0.10086356E+04</totfact>
</mgrwt>
</event>
<event>
12    1  0.1473662E-001  0.2486465E+03  0.7546771E-02  0.1114171E+00
         21   -1    0    0  504  503  0.00000000000E+00  0.00000000000E+00  0.13087456813E+04  0.13087456813E+04  0.00000000000E+00 0. -1.
         21   -1    0    0  502  504 -0.00000000000E+00 -0.00000000000E+00 -0.86398992017E+02  0.86398992017E+02  0.00000000000E+00 0.  1.
          6    2    1    2  502    0  0.98928171085E+02 -0.15098632837E+03  0.14145893344E+03  0.28602637571E+03  0.17092923495E+03 0.  0.
         24    2    3    3    0    0  0.69766637443E+02 -0.16641728051E+03  0.15453837723E+03  0.25022594026E+03  0.78541811744E+02 0.  0.
         -6    2    1    2    0  503 -0.98928171085E+02  0.15098632837E+03  0.10808877558E+04  0.11091182976E+04  0.17100117829E+03 0.  0.
        -24    2    5    5    0    0 -0.93861877907E+02  0.58771260818E+02  0.42053818967E+03  0.44232528209E+03  0.80840416738E+02 0.  0.
          2    1    4    4  501    0  0.24518676425E+02 -0.10772156849E+03  0.13330200698E+03  0.17313153057E+03  0.00000000000E+00 0. -1.
         -1    1    4    4    0  501  0.45247961017E+02 -0.58695712014E+02  0.21236370256E+02  0.77094409698E+02  0.00000000000E+00 0.  1.
          5    1    3    3  502    0  0.29161533643E+02  0.15430952133E+02 -0.13079443788E+02  0.35800435443E+02  0.47000000000E+01 0. -1.
         11    1    6    6    0    0 -0.82331237727E+02  0.25697496648E+02  0.37545919280E+03  0.38523810753E+03  0.00000000000E+00 0. -1.
        -12    1    6    6    0    0 -0.11530640181E+02  0.33073764169E+02  0.45078996874E+02  0.57087174553E+02  0.00000000000E+00 0.  1.
         -5    1    5    5    0  503 -0.50662931783E+01  0.92215067557E+02  0.66034956614E+03  0.66679301550E+03  0.47000000000E+01 0.  1.
<mgrwt>
<rscale>  2 0.24863408E+03</rscale>
<asrwt>0</asrwt>
<pdfrwt beam="1">  1       21 0.20134548E+00 0.24864645E+03</pdfrwt>
<pdfrwt beam="2">  1       21 0.13292154E-01 0.24864645E+03</pdfrwt>
<totfact> 0.61425393E+03</totfact>
</mgrwt>
</event>
<event>
12    1  0.1473662E-001  0.2128692E+03  0.7546771E-02  0.1139582E+00
         21   -1    0    0  504  503  0.00000000000E+00  0.00000000000E+00  0.22094818529E+03  0.22094818529E+03  0.00000000000E+00 0.  1.
         21   -1    0    0  502  504 -0.00000000000E+00 -0.00000000000E+00 -0.25784929118E+03  0.25784929118E+03  0.00000000000E+00 0.  1.
          6    2    1    2  502    0 -0.10891949851E+03 -0.51685713630E+02 -0.12804492791E+03  0.24723653062E+03  0.17376860580E+03 0.  0.
         24    2    3    3    0    0 -0.36942127541E+02 -0.61181662465E+02 -0.93837078016E+01  0.10804784526E+03  0.80488299049E+02 0.  0.
         -6    2    1    2    0  503  0.10891949851E+03  0.51685713630E+02  0.91143822010E+02  0.23156094585E+03  0.17543775308E+03 0.  0.
        -24    2    5    5    0    0  0.10820796059E+03  0.44671995438E+02  0.12980923656E+03  0.19197808578E+03  0.79376303840E+02 0.  0.
          4    1    4    4  501    0 -0.34404263297E+02 -0.78012404499E+01  0.26114365947E+02  0.43891602777E+02  0.00000000000E+00 0. -1.
         -3    1    4    4    0  501 -0.25378642441E+01 -0.53380422016E+02 -0.35498073749E+02  0.64156242482E+02  0.00000000000E+00 0.  1.
          5    1    3    3  502    0 -0.71977370965E+02  0.94959488356E+01 -0.11866122010E+03  0.13918868536E+03  0.47000000000E+01 0. -1.
         11    1    6    6    0    0 -0.10535128355E+02 -0.29565526841E+01  0.19747914547E+01  0.11118899879E+02  0.00000000000E+00 0. -1.
        -12    1    6    6    0    0  0.11874308895E+03  0.47628548122E+02  0.12783444511E+03  0.18085918590E+03  0.00000000000E+00 0.  1.
         -5    1    5    5    0  503  0.71153791138E+00  0.70137181923E+01 -0.38665414551E+02  0.39582860072E+02  0.47000000000E+01 0.  1.
<mgrwt>
<rscale>  2 0.21252493E+03</rscale>
<asrwt>0</asrwt>
<pdfrwt beam="1">  1       21 0.33992029E-01 0.21286915E+03</pdfrwt>
<pdfrwt beam="2">  1       21 0.39669121E-01 0.21286915E+03</pdfrwt>
<totfact> 0.50584878E+04</totfact>
</mgrwt>
</event>
<event>
12    1  0.1473662E-001  0.2157718E+03  0.7546771E-02  0.1137208E+00
         21   -1    0    0  504  503  0.00000000000E+00  0.00000000000E+00  0.39303242587E+03  0.39303242587E+03  0.00000000000E+00 0. -1.
         21   -1    0    0  502  504 -0.00000000000E+00 -0.00000000000E+00 -0.26899613175E+03  0.26899613175E+03  0.00000000000E+00 0. -1.
          6    2    1    2  502    0  0.11991173403E+03  0.48835329567E+02 -0.18587830941E+03  0.28479503398E+03  0.17260866750E+03 0.  0.
         24    2    3    3    0    0  0.69027181391E+01  0.26456353033E+02 -0.13163443794E+03  0.15737312120E+03  0.81799070236E+02 0.  0.
         -6    2    1    2    0  503 -0.11991173403E+03 -0.48835329567E+02  0.30991460352E+03  0.37723352365E+03  0.17173921077E+03 0.  0.
        -24    2    5    5    0    0 -0.29421537807E+02 -0.31482230981E+02  0.25240008958E+03  0.26851547107E+03  0.80857870543E+02 0.  0.
          4    1    4    4  501    0 -0.19232204993E+01  0.55246476340E+02 -0.74260020639E+02  0.92576576899E+02  0.00000000000E+00 0. -1.
         -3    1    4    4    0  501  0.88259386384E+01 -0.28790123307E+02 -0.57374417302E+02  0.64796544303E+02  0.00000000000E+00 0.  1.
          5    1    3    3  502    0  0.11300901589E+03  0.22378976535E+02 -0.54243871466E+02  0.12742191277E+03  0.47000000000E+01 0. -1.
         13    1    6    6    0    0  0.11442692247E+02  0.21546124497E+02  0.77055894750E+02  0.80825624665E+02  0.00000000000E+00 0. -1.
        -14    1    6    6    0    0 -0.40864230054E+02 -0.53028355478E+02  0.17534419483E+03  0.18768984640E+03  0.00000000000E+00 0.  1.
         -5    1    5    5    0  503 -0.90490196223E+02 -0.17353098587E+02  0.57514513948E+02  0.10871805258E+03  0.47000000000E+01 0.  1.
<mgrwt>
<rscale>  2 0.21559786E+03</rscale>
<asrwt>0</asrwt>
<pdfrwt beam="1">  1       21 0.60466527E-01 0.21577179E+03</pdfrwt>
<pdfrwt beam="2">  1       21 0.41384020E-01 0.21577179E+03</pdfrwt>
<totfact> 0.14121262E+04</totfact>
</mgrwt>
</event>
<event>
12    1  0.1473662E-001  0.2731044E+03  0.7546771E-02  0.1099628E+00
         21   -1    0    0  504  503  0.00000000000E+00  0.00000000000E+00  0.69451153187E+02  0.69451153187E+02  0.00000000000E+00 0.  1.
         21   -1    0    0  502  504 -0.00000000000E+00 -0.00000000000E+00 -0.10828186147E+04  0.10828186147E+04  0.00000000000E+00 0.  1.
          6    2    1    2  502    0  0.13360956045E+03  0.16402062532E+03 -0.56807623378E+03  0.63031469188E+03  0.17271862449E+03 0.  0.
         24    2    3    3    0    0  0.82420512609E+02  0.31987705578E+02 -0.34683755872E+03  0.36759497078E+03  0.83746141392E+02 0.  0.
         -6    2    1    2    0  503 -0.13360956045E+03 -0.16402062532E+03 -0.44529122772E+03  0.52195507599E+03  0.17146003528E+03 0.  0.
        -24    2    5    5    0    0 -0.72198106995E+02 -0.87181124261E+02 -0.37798683640E+03  0.40267537685E+03  0.80375963724E+02 0.  0.
          2    1    4    4  501    0  0.17704558391E+02  0.43592551418E+02 -0.21720032303E+03  0.22223803062E+03  0.00000000000E+00 0. -1.
         -1    1    4    4    0  501  0.64715954218E+02 -0.11604845841E+02 -0.12963723569E+03  0.14535694017E+03  0.00000000000E+00 0.  1.
          5    1    3    3  502    0  0.51189047836E+02  0.13203291974E+03 -0.22123867506E+03  0.26271972110E+03  0.47000000000E+01 0. -1.
         13    1    6    6    0    0 -0.52864078409E+02 -0.99165796235E+01 -0.10054344150E+03  0.11402601881E+03  0.00000000000E+00 0. -1.
        -14    1    6    6    0    0 -0.19334028586E+02 -0.77264544637E+02 -0.27744339490E+03  0.28864935803E+03  0.00000000000E+00 0.  1.
         -5    1    5    5    0  503 -0.61411453451E+02 -0.76839501055E+02 -0.67304391315E+02  0.11927969914E+03  0.47000000000E+01 0.  1.
<mgrwt>
<rscale>  2 0.27290561E+03</rscale>
<asrwt>0</asrwt>
<pdfrwt beam="1">  1       21 0.10684793E-01 0.27310438E+03</pdfrwt>
<pdfrwt beam="2">  1       21 0.16658748E+00 0.27310438E+03</pdfrwt>
<totfact> 0.15475758E+04</totfact>
</mgrwt>
</event>
<event>
12    1  0.1473662E-001  0.1844923E+03  0.7546771E-02  0.1164008E+00
         21   -1    0    0  504  503  0.00000000000E+00  0.00000000000E+00  0.10659379357E+04  0.10659379357E+04  0.00000000000E+00 0. -1.
         21   -1    0    0  502  504 -0.00000000000E+00 -0.00000000000E+00 -0.34098345591E+02  0.34098345591E+02  0.00000000000E+00 0. -1.
          6    2    1    2  502    0 -0.59738620885E+02  0.11214525724E+02  0.36371850997E+03  0.40691062181E+03  0.17201927577E+03 0.  0.
         24    2    3    3    0    0  0.28750760154E+02 -0.10629658801E+02  0.22738340253E+03  0.24284694371E+03  0.79572799769E+02 0.  0.
         -6    2    1    2    0  503  0.59738620885E+02 -0.11214525724E+02  0.66812108011E+03  0.69312565945E+03  0.17419223200E+03 0.  0.
        -24    2    5    5    0    0  0.69019637075E+01 -0.55432726496E+02  0.24903790263E+03  0.26839072886E+03  0.83025791892E+02 0.  0.
          4    1    4    4  501    0  0.55268981364E+02 -0.43406137661E+01  0.17810843821E+03  0.18653717322E+03  0.00000000000E+00 0. -1.
         -3    1    4    4    0  501 -0.26518221210E+02 -0.62890450351E+01  0.49274964322E+02  0.56309770490E+02  0.00000000000E+00 0.  1.
          5    1    3    3  502    0 -0.88489381039E+02  0.21844184525E+02  0.13633510744E+03  0.16406367811E+03  0.47000000000E+01 0. -1.
         13    1    6    6    0    0  0.43977255303E+02 -0.40466109744E+02  0.15963297966E+03  0.17045290616E+03  0.00000000000E+00 0. -1.
        -14    1    6    6    0    0 -0.37075291595E+02 -0.14966616752E+02  0.89404922970E+02  0.97937822699E+02  0.00000000000E+00 0.  1.
         -5    1    5    5    0  503  0.52836657177E+02  0.44218200771E+02  0.41908317748E+03  0.42473493060E+03  0.47000000000E+01 0.  1.
<mgrwt>
<rscale>  2 0.18397757E+03</rscale>
<asrwt>0</asrwt>
<pdfrwt beam="1">  1       21 0.16399043E+00 0.18449228E+03</pdfrwt>
<pdfrwt beam="2">  1       21 0.52459001E-02 0.18449228E+03</pdfrwt>
<totfact> 0.58646364E+04</totfact>
</mgrwt>
</event>
<event>
12    1  0.1473662E-001  0.2565198E+03  0.7546771E-02  0.1109522E+00
         21   -1    0    0  504  503  0.00000000000E+00  0.00000000000E+00  0.45724614176E+03  0.45724614176E+03  0.00000000000E+00 0.  1.
         21   -1    0    0  502  504 -0.00000000000E+00 -0.00000000000E+00 -0.18315421410E+03  0.18315421410E+03  0.00000000000E+00 0. -1.
          6    2    1    2  502    0 -0.96412656441E+02 -0.16289773377E+03 -0.13384608641E+02  0.25511456286E+03  0.17050871077E+03 0.  0.
         24    2    3    3    0    0 -0.19795544505E+02 -0.64903518805E+02  0.47834934388E+02  0.11639552864E+03  0.81580682782E+02 0.  0.
         -6    2    1    2    0  503  0.96412656441E+02  0.16289773377E+03  0.28747653630E+03  0.38528579300E+03  0.17312224404E+03 0.  0.
        -24    2    5    5    0    0  0.13176885829E+03  0.98739370637E+02  0.19190776581E+03  0.26477921036E+03  0.78529894492E+02 0.  0.
          4    1    4    4  501    0 -0.46760263686E+02 -0.63427160951E+02  0.39414687602E+02  0.88108141537E+02  0.00000000000E+00 0. -1.
         -3    1    4    4    0  501  0.26964719181E+02 -0.14763578543E+01  0.84202467856E+01  0.28287387100E+02  0.00000000000E+00 0.  1.
          5    1    3    3  502    0 -0.76617111937E+02 -0.97994214962E+02 -0.61219543029E+02  0.13871903422E+03  0.47000000000E+01 0. -1.
         11    1    6    6    0    0  0.16955575076E+02 -0.13645154652E+02  0.22924426838E+02  0.31610300812E+02  0.00000000000E+00 0. -1.
        -12    1    6    6    0    0  0.11481328322E+03  0.11238452529E+03  0.16898333897E+03  0.23316890954E+03  0.00000000000E+00 0.  1.
         -5    1    5    5    0  503 -0.35356201852E+02  0.64158363131E+02  0.95568770487E+02  0.12050658265E+03  0.47000000000E+01 0.  1.
<mgrwt>
<rscale>  2 0.25607948E+03</rscale>
<asrwt>0</asrwt>
<pdfrwt beam="1">  1       21 0.70345560E-01 0.25651975E+03</pdfrwt>
<pdfrwt beam="2">  1       21 0.28177572E-01 0.25651975E+03</pdfrwt>
<totfact> 0.21319236E+04</totfact>
</mgrwt>
</event>
<event>
12    1  0.1473662E-001  0.1872238E+03  0.7546771E-02  0.1161045E+00
         21   -1    0    0  504  503  0.00000000000E+00  0.00000000000E+00  0.75162416007E+03  0.75162416007E+03  0.00000000000E+00 0.  1.
         21   -1    0    0  502  504 -0.00000000000E+00 -0.00000000000E+00 -0.49431129124E+02  0.49431129124E+02  0.00000000000E+00 0.  1.
          6    2    1    2  502    0 -0.33797271856E+02  0.64358347713E+02  0.25504104484E+03  0.31638376761E+03  0.17253550751E+03 0.  0.
         24    2    3    3    0    0  0.32220684928E+02  0.55151461309E+02  0.83409703919E+02  0.13220302877E+03  0.80253385510E+02 0.  0.
         -6    2    1    2    0  503  0.33797271856E+02 -0.64358347713E+02  0.44715198611E+03  0.48467152158E+03  0.17227110218E+03 0.  0.
        -24    2    5    5    0    0 -0.12525654460E+02 -0.70601185479E+02  0.19818908696E+03  0.23131524738E+03  0.95322662937E+02 0.  0.
          2    1    4    4  501    0  0.26775232278E+02 -0.50826077990E+00 -0.53352067001E+01  0.27306333022E+02  0.00000000000E+00 0. -1.
         -1    1    4    4    0  501  0.54454526496E+01  0.55659722089E+02  0.88744910619E+02  0.10489669575E+03  0.00000000000E+00 0.  1.
          5    1    3    3  502    0 -0.66017956783E+02  0.92068864038E+01  0.17163134092E+03  0.18418073884E+03  0.47000000000E+01 0. -1.
         13    1    6    6    0    0 -0.32474652177E+02  0.11728292086E+02  0.60166707357E+02  0.69369939768E+02  0.00000000000E+00 0. -1.
        -14    1    6    6    0    0  0.19948997717E+02 -0.82329477564E+02  0.13802237960E+03  0.16194530761E+03  0.00000000000E+00 0.  1.
         -5    1    5    5    0  503  0.46322926316E+02  0.62428377656E+01  0.24896289915E+03  0.25335627421E+03  0.47000000000E+01 0.  1.
<mgrwt>
<rscale>  2 0.18716287E+03</rscale>
<asrwt>0</asrwt>
<pdfrwt beam="1">  1       21 0.11563448E+00 0.18722381E+03</pdfrwt>
<pdfrwt beam="2">  1       21 0.76047896E-02 0.18722381E+03</pdfrwt>
<totfact> 0.75993881E+04</totfact>
</mgrwt>
</event>
<event>
12    1  0.1473662E-001  0.2413258E+03  0.7546771E-02  0.1119038E+00
         21   -1    0    0  504  503  0.00000000000E+00  0.00000000000E+00  0.61810489088E+03  0.61810489088E+03  0.00000000000E+00 0.  1.
         21   -1    0    0  502  504 -0.00000000000E+00 -0.00000000000E+00 -0.10635341239E+03  0.10635341239E+03  0.00000000000E+00 0. -1.
          6    2    1    2  502    0 -0.90619635737E+02  0.13981881695E+03  0.13169281668E+03  0.27425534403E+03  0.17352744973E+03 0.  0.
         24    2    3    3    0    0 -0.62338006973E+02  0.16484715811E+03  0.13422081908E+03  0.23611416966E+03  0.81694921440E+02 0.  0.
         -6    2    1    2    0  503  0.90619635737E+02 -0.13981881695E+03  0.38005866181E+03  0.45020295924E+03  0.17457633899E+03 0.  0.
        -24    2    5    5    0    0  0.12948336695E+03 -0.13133517058E+03  0.31618450915E+03  0.37480826952E+03  0.80583656716E+02 0.  0.
          4    1    4    4  501    0 -0.21247659438E+02  0.12625983547E+03  0.56115316707E+02  0.13979248140E+03  0.00000000000E+00 0. -1.
         -3    1    4    4    0  501 -0.41090347536E+02  0.38587322632E+02  0.78105502374E+02  0.96321688262E+02  0.00000000000E+00 0.  1.
          5    1    3    3  502    0 -0.28281628764E+02 -0.25028341153E+02 -0.25280024003E+01  0.38141174373E+02  0.47000000000E+01 0. -1.
         13    1    6    6    0    0  0.50109721124E+01 -0.55022753714E+02  0.88765164005E+02  0.10455557187E+03  0.00000000000E+00 0. -1.
        -14    1    6    6    0    0  0.12447239484E+03 -0.76312416862E+02  0.22741934515E+03  0.27025269766E+03  0.00000000000E+00 0.  1.
         -5    1    5    5    0  503 -0.38863731212E+02 -0.84836463776E+01  0.63874152655E+02  0.75394689713E+02  0.47000000000E+01 0.  1.
<mgrwt>
<rscale>  2 0.24113611E+03</rscale>
<asrwt>0</asrwt>
<pdfrwt beam="1">  1       21 0.95093058E-01 0.24132575E+03</pdfrwt>
<pdfrwt beam="2">  1       21 0.16362064E-01 0.24132575E+03</pdfrwt>
<totfact> 0.30147917E+04</totfact>
</mgrwt>
</event>
<event>
12    1  0.1473662E-001  0.2251911E+03  0.7546771E-02  0.1130506E+00
         21   -1    0    0  504  503  0.00000000000E+00  0.00000000000E+00  0.55277632463E+03  0.55277632463E+03  0.00000000000E+00 0. -1.
         21   -1    0    0  502  504 -0.00000000000E+00 -0.00000000000E+00 -0.93191571897E+02  0.93191571897E+02  0.00000000000E+00 0.  1.
          6    2    1    2  502    0 -0.67058611168E+02  0.12735218831E+03  0.17651330864E+03  0.28424910732E+03  0.17007401238E+03 0.  0.
         24    2    3    3    0    0  0.27669579189E+02  0.54121709144E+02  0.58781372962E+02  0.11626389426E+03  0.79795227231E+02 0.  0.
         -6    2    1    2    0  503  0.67058611168E+02 -0.12735218831E+03  0.28307144410E+03  0.36171878921E+03  0.17319238669E+03 0.  0.
        -24    2    5    5    0    0  0.10677697724E+03 -0.12720727975E+03  0.24249965197E+03  0.30474748137E+03  0.80510442184E+02 0.  0.
          2    1    4    4  501    0  0.23484199995E+02 -0.14493816563E+02  0.32579441551E+02  0.42696585106E+02  0.00000000000E+00 0. -1.
         -1    1    4    4    0  501  0.41853791945E+01  0.68615525707E+02  0.26201931411E+02  0.73567309158E+02  0.00000000000E+00 0.  1.
          5    1    3    3  502    0 -0.94728190357E+02  0.73230479163E+02  0.11773193568E+03  0.16798521305E+03  0.47000000000E+01 0. -1.
         13    1    6    6    0    0  0.84151744104E+02 -0.48457172311E+02  0.94039908469E+02  0.13517809722E+03  0.00000000000E+00 0. -1.
        -14    1    6    6    0    0  0.22625233132E+02 -0.78750107443E+02  0.14845974350E+03  0.16956938414E+03  0.00000000000E+00 0.  1.
         -5    1    5    5    0  503 -0.39718366069E+02 -0.14490855165E+00  0.40571792124E+02  0.56971307847E+02  0.47000000000E+01 0.  1.
<mgrwt>
<rscale>  2 0.22459138E+03</rscale>
<asrwt>0</asrwt>
<pdfrwt beam="1">  1       21 0.85042509E-01 0.22519112E+03</pdfrwt>
<pdfrwt beam="2">  1       21 0.14337165E-01 0.22519112E+03</pdfrwt>
<totfact> 0.50177297E+04</totfact>
</mgrwt>
</event>
<event>
12    1  0.1473662E-001  0.2100806E+03  0.7546771E-02  0.1143418E+00
         21   -1    0    0  504  503  0.00000000000E+00  0.00000000000E+00  0.19879374112E+03  0.19879374112E+03  0.00000000000E+00 0. -1.
         21   -1    0    0  502  504 -0.00000000000E+00 -0.00000000000E+00 -0.27741464868E+03  0.27741464868E+03  0.00000000000E+00 0. -1.
          6    2    1    2  502    0 -0.28636764129E+02  0.11693108943E+03 -0.15547746905E+03  0.26135630344E+03  0.17216541474E+03 0.  0.
         24    2    3    3    0    0  0.20280380303E+02  0.11306579422E+03 -0.76917861896E+02  0.16861187286E+03  0.96532059675E+02 0.  0.
         -6    2    1    2    0  503  0.28636764129E+02 -0.11693108943E+03  0.76856561488E+02  0.21485208636E+03  0.16050403121E+03 0.  0.
        -24    2    5    5    0    0 -0.23525013323E+02 -0.11881354091E+03  0.68243890064E+02  0.16174217429E+03  0.82663284823E+02 0.  0.
          2    1    4    4  501    0 -0.31258886010E+02  0.59161471412E+02 -0.85825029595E+01  0.67460040108E+02  0.00000000000E+00 0. -1.
         -1    1    4    4    0  501  0.51539266313E+02  0.53904322805E+02 -0.68335358936E+02  0.10115183276E+03  0.00000000000E+00 0.  1.
          5    1    3    3  502    0 -0.48917144432E+02  0.38652952103E+01 -0.78559607155E+02  0.92744430576E+02  0.47000000000E+01 0. -1.
         13    1    6    6    0    0 -0.40640046417E+02 -0.98098503270E+02  0.22273360835E+02  0.10849438842E+03  0.00000000000E+00 0. -1.
        -14    1    6    6    0    0  0.17115033094E+02 -0.20715037643E+02  0.45970529228E+02  0.53247785869E+02  0.00000000000E+00 0.  1.
         -5    1    5    5    0  503  0.52161777452E+02  0.18824514861E+01  0.86126714240E+01  0.53109912066E+02  0.47000000000E+01 0.  1.
<mgrwt>
<rscale>  2 0.20767839E+03</rscale>
<asrwt>0</asrwt>
<pdfrwt beam="1">  1       21 0.30583653E-01 0.21008064E+03</pdfrwt>
<pdfrwt beam="2">  1       21 0.42679176E-01 0.21008064E+03</pdfrwt>
<totfact> 0.53751870E+04</totfact>
</mgrwt>
</event>
<event>
12    1  0.1473662E-001  0.1806579E+03  0.7546771E-02  0.1167187E+00
         21   -1    0    0  504  503  0.00000000000E+00  0.00000000000E+00  0.52761337257E+02  0.52761337257E+02  0.00000000000E+00 0. -1.
         21   -1    0    0  502  504 -0.00000000000E+00 -0.00000000000E+00 -0.11438745667E+04  0.11438745667E+04  0.00000000000E+00 0. -1.
          6    2    1    2  502    0  0.77733845026E+01 -0.50974894608E+02 -0.95105099656E+03  0.96804299754E+03  0.17306178561E+03 0.  0.
         24    2    3    3    0    0  0.22148440861E+02  0.33412541228E+02 -0.45293316415E+03  0.46260126347E+03  0.85114783878E+02 0.  0.
         -6    2    1    2    0  503 -0.77733845026E+01  0.50974894608E+02 -0.14006223291E+03  0.22859290644E+03  0.17314278039E+03 0.  0.
        -24    2    5    5    0    0 -0.16925423977E+01  0.64725324941E+02 -0.18446438708E+02  0.10596117167E+03  0.81824607618E+02 0.  0.
          2    1    4    4  501    0  0.45411302977E+02 -0.25011894883E+01 -0.15253580074E+03  0.15917164601E+03  0.00000000000E+00 0. -1.
         -1    1    4    4    0  501 -0.23262862115E+02  0.35913730716E+02 -0.30039736341E+03  0.30342961746E+03  0.00000000000E+00 0.  1.
          5    1    3    3  502    0 -0.14375056359E+02 -0.84387435837E+02 -0.49811783241E+03  0.50544173407E+03  0.47000000000E+01 0. -1.
         11    1    6    6    0    0  0.11205129507E+02  0.45275415847E+02 -0.48911069601E+02  0.67584842509E+02  0.00000000000E+00 0. -1.
        -12    1    6    6    0    0 -0.12897671904E+02  0.19449909094E+02  0.30464630893E+02  0.38376329160E+02  0.00000000000E+00 0.  1.
         -5    1    5    5    0  503 -0.60808421049E+01 -0.13750430332E+02 -0.12161579420E+03  0.12263173477E+03  0.47000000000E+01 0.  1.
<mgrwt>
<rscale>  2 0.18063852E+03</rscale>
<asrwt>0</asrwt>
<pdfrwt beam="1">  1       21 0.81171289E-02 0.18065793E+03</pdfrwt>
<pdfrwt beam="2">  1       21 0.17598070E+00 0.18065793E+03</pdfrwt>
<totfact> 0.22876473E+04</totfact>
</mgrwt>
</event>
<event>
12    1  0.1473662E-001  0.2375138E+03  0.7546771E-02  0.1123098E+00
         21   -1    0    0  504  503  0.00000000000E+00  0.00000000000E+00  0.79129264398E+02  0.79129264398E+02  0.00000000000E+00 0.  1.
         21   -1    0    0  502  504 -0.00000000000E+00 -0.00000000000E+00 -0.70163439164E+03  0.70163439164E+03  0.00000000000E+00 0. -1.
          6    2    1    2  502    0 -0.14913127932E+03  0.18603393932E+02 -0.36566970896E+03  0.43093904893E+03  0.17148732637E+03 0.  0.
         24    2    3    3    0    0 -0.12706968983E+02  0.22148381523E+01 -0.19830916568E+03  0.21434768562E+03  0.80324545263E+02 0.  0.
         -6    2    1    2    0  503  0.14913127932E+03 -0.18603393932E+02 -0.25683541828E+03  0.34982460711E+03  0.18392008840E+03 0.  0.
        -24    2    5    5    0    0  0.11958163134E+03 -0.59269111834E+02 -0.10064323522E+03  0.18567537513E+03  0.80831243726E+02 0.  0.
          4    1    4    4  501    0 -0.31458095271E+02  0.32340183521E+02 -0.12522853595E+03  0.13310779633E+03  0.00000000000E+00 0. -1.
         -3    1    4    4    0  501  0.18751126288E+02 -0.30125345369E+02 -0.73080629724E+02  0.81239889288E+02  0.00000000000E+00 0.  1.
          5    1    3    3  502    0 -0.13642431034E+03  0.16388555779E+02 -0.16736054328E+03  0.21659136331E+03  0.47000000000E+01 0. -1.
         11    1    6    6    0    0  0.67033220771E+02 -0.73654592303E+02 -0.50646015423E+02  0.11172945239E+03  0.00000000000E+00 0. -1.
        -12    1    6    6    0    0  0.52548410572E+02  0.14385480468E+02 -0.49997219796E+02  0.73945922736E+02  0.00000000000E+00 0.  1.
         -5    1    5    5    0  503  0.29549647978E+02  0.40665717903E+02 -0.15619218306E+03  0.16414923198E+03  0.47000000000E+01 0.  1.
<mgrwt>
<rscale>  2 0.23510452E+03</rscale>
<asrwt>0</asrwt>
<pdfrwt beam="1">  1       21 0.12173733E-01 0.23751384E+03</pdfrwt>
<pdfrwt beam="2">  1       21 0.10794376E+00 0.23751384E+03</pdfrwt>
<totfact> 0.38199968E+04</totfact>
</mgrwt>
</event>
<event>
12    1  0.1473662E-001  0.1984967E+03  0.7546771E-02  0.1151224E+00
         21   -1    0    0  504  503  0.00000000000E+00  0.00000000000E+00  0.13340246263E+04  0.13340246263E+04  0.00000000000E+00 0. -1.
         21   -1    0    0  502  504 -0.00000000000E+00 -0.00000000000E+00 -0.36169445519E+02  0.36169445519E+02  0.00000000000E+00 0. -1.
          6    2    1    2  502    0  0.23736460788E+01  0.95823710272E+02  0.35098116234E+03  0.40273794616E+03  0.17269122534E+03 0.  0.
         24    2    3    3    0    0  0.15929606946E+02  0.10430170607E+03  0.14757281275E+03  0.19864804643E+03  0.80936475220E+02 0.  0.
         -6    2    1    2    0  503 -0.23736460788E+01 -0.95823710272E+02  0.94687401844E+03  0.96745612567E+03  0.17381924703E+03 0.  0.
        -24    2    5    5    0    0  0.63841352534E+01 -0.31591882071E+02  0.82192600309E+03  0.82661393373E+03  0.81788976566E+02 0.  0.
          4    1    4    4  501    0 -0.38165267902E+01  0.79835361343E+02  0.14685830617E+03  0.16719932084E+03  0.00000000000E+00 0. -1.
         -3    1    4    4    0  501  0.19746133736E+02  0.24466344726E+02  0.71450658191E+00  0.31448725594E+02  0.00000000000E+00 0.  1.
          5    1    3    3  502    0 -0.13555960867E+02 -0.84779957977E+01  0.20340834959E+03  0.20408989972E+03  0.47000000000E+01 0. -1.
         13    1    6    6    0    0 -0.50395675173E+01  0.13011100682E+02  0.27336137622E+02  0.30691210498E+02  0.00000000000E+00 0. -1.
        -14    1    6    6    0    0  0.11423702771E+02 -0.44602982753E+02  0.79458986546E+03  0.79592272323E+03  0.00000000000E+00 0.  1.
         -5    1    5    5    0  503 -0.87577813322E+01 -0.64231828201E+02  0.12494801536E+03  0.14084219194E+03  0.47000000000E+01 0.  1.
<mgrwt>
<rscale>  2 0.19824950E+03</rscale>
<asrwt>0</asrwt>
<pdfrwt beam="1">  1       21 0.20523452E+00 0.19849672E+03</pdfrwt>
<pdfrwt beam="2">  1       21 0.55645311E-02 0.19849672E+03</pdfrwt>
<totfact> 0.27765084E+04</totfact>
</mgrwt>
</event>
<event>
12    1  0.1473662E-001  0.2328128E+03  0.7546771E-02  0.1124731E+00
         21   -1    0    0  504  503  0.00000000000E+00  0.00000000000E+00  0.20693040307E+03  0.20693040307E+03  0.00000000000E+00 0.  1.
         21   -1    0    0  502  504 -0.00000000000E+00 -0.00000000000E+00 -0.33292719897E+03  0.33292719897E+03  0.00000000000E+00 0.  1.
          6    2    1    2  502    0 -0.39378478279E+02 -0.15044777150E+03 -0.18799415212E+03  0.29923832961E+03  0.17325293699E+03 0.  0.
         24    2    3    3    0    0  0.19407640791E+02 -0.12647864218E+03 -0.74059130113E+02  0.16872547126E+03  0.81302069153E+02 0.  0.
         -6    2    1    2    0  503  0.39378478279E+02  0.15044777150E+03  0.61997356227E+02  0.24061927243E+03  0.17282582442E+03 0.  0.
        -24    2    5    5    0    0 -0.28824547807E+02  0.25906682139E+02  0.15631567528E+02  0.91173589761E+02  0.81032504780E+02 0.  0.
          2    1    4    4  501    0  0.16865685301E+02 -0.11826000956E+03 -0.29099016358E+02  0.12294972125E+03  0.00000000000E+00 0. -1.
         -1    1    4    4    0  501  0.25419554906E+01 -0.82186326183E+01 -0.44960113755E+02  0.45775750007E+02  0.00000000000E+00 0.  1.
          5    1    3    3  502    0 -0.58786119071E+02 -0.23969129324E+02 -0.11393502201E+03  0.13051285836E+03  0.47000000000E+01 0. -1.
         13    1    6    6    0    0  0.57769238717E+01 -0.26437970447E+02  0.54633654726E+01  0.27607743353E+02  0.00000000000E+00 0. -1.
        -14    1    6    6    0    0 -0.34601471679E+02  0.52344652585E+02  0.10168202055E+02  0.63565846408E+02  0.00000000000E+00 0.  1.
         -5    1    5    5    0  503  0.68203026086E+02  0.12454108937E+03  0.46365788699E+02  0.14944568267E+03  0.47000000000E+01 0.  1.
<mgrwt>
<rscale>  2 0.23273329E+03</rscale>
<asrwt>0</asrwt>
<pdfrwt beam="1">  1       21 0.31835447E-01 0.23281275E+03</pdfrwt>
<pdfrwt beam="2">  1       21 0.51219568E-01 0.23281275E+03</pdfrwt>
<totfact> 0.33684860E+04</totfact>
</mgrwt>
</event>
<event>
12    1  0.1473662E-001  0.1917117E+03  0.7546771E-02  0.1157035E+00
         21   -1    0    0  504  503  0.00000000000E+00  0.00000000000E+00  0.34527879522E+03  0.34527879522E+03  0.00000000000E+00 0.  1.
         21   -1    0    0  502  504 -0.00000000000E+00 -0.00000000000E+00 -0.34809402363E+03  0.34809402363E+03  0.00000000000E+00 0. -1.
          6    2    1    2  502    0  0.80665677077E+02 -0.87199945500E+01 -0.29042356990E+03  0.34772567039E+03  0.17315975897E+03 0.  0.
         24    2    3    3    0    0  0.39611914621E+02 -0.68559842503E+02 -0.21404936567E+03  0.24226796376E+03  0.81283943903E+02 0.  0.
         -6    2    1    2    0  503 -0.80665677077E+02  0.87199945500E+01  0.28760834148E+03  0.34564714846E+03  0.17369629641E+03 0.  0.
        -24    2    5    5    0    0 -0.90117683726E+02 -0.48399398378E+02  0.16960795258E+03  0.21412472733E+03  0.81356269545E+02 0.  0.
          2    1    4    4  501    0  0.59929248287E+01 -0.65234331634E+01  0.63174133213E+01  0.10880259156E+02  0.00000000000E+00 0. -1.
         -1    1    4    4    0  501  0.33618989792E+02 -0.62036409340E+02 -0.22036677899E+03  0.23138770461E+03  0.00000000000E+00 0.  1.
          5    1    3    3  502    0  0.41053762456E+02  0.59839847953E+02 -0.76374204228E+02  0.10545770662E+03  0.47000000000E+01 0. -1.
         11    1    6    6    0    0  0.15194578498E+02 -0.10240737292E+02  0.29755059819E+02  0.34944405859E+02  0.00000000000E+00 0. -1.
        -12    1    6    6    0    0 -0.10531226222E+03 -0.38158661086E+02  0.13985289276E+03  0.17918032147E+03  0.00000000000E+00 0.  1.
         -5    1    5    5    0  503  0.94520066490E+01  0.57119392928E+02  0.11800038891E+03  0.13152242113E+03  0.47000000000E+01 0.  1.
<mgrwt>
<rscale>  2 0.19159013E+03</rscale>
<asrwt>0</asrwt>
<pdfrwt beam="1">  1       21 0.53119815E-01 0.19171174E+03</pdfrwt>
<pdfrwt beam="2">  1       21 0.53552926E-01 0.19171174E+03</pdfrwt>
<totfact> 0.11083973E+04</totfact>
</mgrwt>
</event>
<event>
12    1  0.1473662E-001  0.2417479E+03  0.7546771E-02  0.1119391E+00
         21   -1    0    0  504  503  0.00000000000E+00  0.00000000000E+00  0.29435767648E+02  0.29435767648E+02  0.00000000000E+00 0. -1.
         21   -1    0    0  502  504 -0.00000000000E+00 -0.00000000000E+00 -0.19820886338E+04  0.19820886338E+04  0.00000000000E+00 0. -1.
          6    2    1    2  502    0 -0.49891797154E+02 -0.15480234940E+03 -0.10985953161E+04  0.11239116836E+04  0.17266396614E+03 0.  0.
         24    2    3    3    0    0  0.24650283671E+02 -0.39839859004E+02 -0.33630022957E+03  0.34938680670E+03  0.82331315041E+02 0.  0.
         -6    2    1    2    0  503  0.49891797154E+02  0.15480234940E+03 -0.85405755008E+03  0.88761271787E+03  0.17885491120E+03 0.  0.
        -24    2    5    5    0    0  0.54901968254E+01  0.17330643788E+03 -0.72898673244E+03  0.75352803258E+03  0.79483181467E+02 0.  0.
          4    1    4    4  501    0  0.39360055554E+02 -0.55054346851E+02 -0.29840090866E+03  0.30597924336E+03  0.00000000000E+00 0. -1.
         -3    1    4    4    0  501 -0.14709771883E+02  0.15214487847E+02 -0.37899320910E+02  0.43407563336E+02  0.00000000000E+00 0.  1.
          5    1    3    3  502    0 -0.74542080825E+02 -0.11496249040E+03 -0.76229508654E+03  0.77452487692E+03  0.47000000000E+01 0. -1.
         13    1    6    6    0    0  0.36641365460E+02  0.57884986054E+02 -0.32901302869E+03  0.33606968671E+03  0.00000000000E+00 0. -1.
        -14    1    6    6    0    0 -0.31151168635E+02  0.11542145183E+03 -0.39997370375E+03  0.41745834587E+03  0.00000000000E+00 0.  1.
         -5    1    5    5    0  503  0.44401600329E+02 -0.18504088482E+02 -0.12507081764E+03  0.13408468529E+03  0.47000000000E+01 0.  1.
<mgrwt>
<rscale>  2 0.24060385E+03</rscale>
<asrwt>0</asrwt>
<pdfrwt beam="1">  1       21 0.45285798E-02 0.24174788E+03</pdfrwt>
<pdfrwt beam="2">  1       21 0.30493671E+00 0.24174788E+03</pdfrwt>
<totfact> 0.96876808E+03</totfact>
</mgrwt>
</event>
<event>
12    1  0.1473662E-001  0.2138097E+03  0.7546771E-02  0.1141472E+00
         21   -1    0    0  504  503  0.00000000000E+00  0.00000000000E+00  0.14463110106E+03  0.14463110106E+03  0.00000000000E+00 0.  1.
         21   -1    0    0  502  504 -0.00000000000E+00 -0.00000000000E+00 -0.45628190418E+03  0.45628190418E+03  0.00000000000E+00 0.  1.
          6    2    1    2  502    0 -0.96316768770E+02 -0.20345024949E+02 -0.33078552488E+03  0.38624875869E+03  0.17343067817E+03 0.  0.
         24    2    3    3    0    0 -0.25392264333E+01 -0.35649722757E+02 -0.23621559494E+03  0.25210695733E+03  0.80515590034E+02 0.  0.
         -6    2    1    2    0  503  0.96316768770E+02  0.20345024949E+02  0.19134721757E+02  0.21466424656E+03  0.18979926551E+03 0.  0.
        -24    2    5    5    0    0  0.39926747798E+01  0.51680850763E+02 -0.29103739506E+02  0.10578490299E+03  0.87501807183E+02 0.  0.
          4    1    4    4  501    0  0.27770204744E+02 -0.10200909005E+02 -0.18515892212E+03  0.18750751787E+03  0.00000000000E+00 0. -1.
         -3    1    4    4    0  501 -0.30309431177E+02 -0.25448813752E+02 -0.51056672819E+02  0.64599439464E+02  0.00000000000E+00 0.  1.
          5    1    3    3  502    0 -0.93777542337E+02  0.15304697807E+02 -0.94569929943E+02  0.13414180136E+03  0.47000000000E+01 0. -1.
         13    1    6    6    0    0  0.22723190332E+02  0.34654419930E+02 -0.55466499979E+02  0.69237308002E+02  0.00000000000E+00 0. -1.
        -14    1    6    6    0    0 -0.18730515552E+02  0.17026430833E+02  0.26362760473E+02  0.36547594989E+02  0.00000000000E+00 0.  1.
         -5    1    5    5    0  503  0.92324093990E+02 -0.31335825813E+02  0.48238461263E+02  0.10887934357E+03  0.47000000000E+01 0.  1.
<mgrwt>
<rscale>  2 0.21011823E+03</rscale>
<asrwt>0</asrwt>
<pdfrwt beam="1">  1       21 0.22250938E-01 0.21380973E+03</pdfrwt>
<pdfrwt beam="2">  1       21 0.70197216E-01 0.21380973E+03</pdfrwt>
<totfact> 0.34405310E+04</totfact>
</mgrwt>
</event>
<event>
12    1  0.1473662E-001  0.1735630E+03  0.7546771E-02  0.1174930E+00
         21   -1    0    0  504  503  0.00000000000E+00  0.00000000000E+00  0.14595276916E+03  0.14595276916E+03  0.00000000000E+00 0.  1.
         21   -1    0    0  502  504 -0.00000000000E+00 -0.00000000000E+00 -0.29749189154E+03  0.29749189154E+03  0.00000000000E+00 0.  1.
          6    2    1    2  502    0  0.45821145765E+01  0.94893575155E+01 -0.20120655724E+03  0.26572204771E+03  0.17324284771E+03 0.  0.
         24    2    3    3    0    0  0.63762108391E+02  0.24780957993E+01 -0.75681732631E+02  0.12668967360E+03  0.79062009317E+02 0.  0.
         -6    2    1    2    0  503 -0.45821145765E+01 -0.94893575155E+01  0.49667434868E+02  0.17772261299E+03  0.17031567574E+03 0.  0.
        -24    2    5    5    0    0 -0.22698960154E+02 -0.55953727377E+02 -0.13418373728E+02  0.97167867589E+02  0.74936502046E+02 0.  0.
          2    1    4    4  501    0  0.59138279390E+02  0.32808371736E+02 -0.66051186407E+02  0.94532981393E+02  0.00000000000E+00 0. -1.
         -1    1    4    4    0  501  0.46238290003E+01 -0.30330275937E+02 -0.96305462242E+01  0.32156692206E+02  0.00000000000E+00 0.  1.
          5    1    3    3  502    0 -0.59179993814E+02  0.70112617162E+01 -0.12552482461E+03  0.13903237412E+03  0.47000000000E+01 0. -1.
         11    1    6    6    0    0  0.26625352317E+02 -0.11355266963E+02 -0.98464158999E+01  0.30574554451E+02  0.00000000000E+00 0. -1.
        -12    1    6    6    0    0 -0.49324312471E+02 -0.44598460414E+02 -0.35719578284E+01  0.66593313138E+02  0.00000000000E+00 0.  1.
         -5    1    5    5    0  503  0.18116845577E+02  0.46464369862E+02  0.63085808596E+02  0.80554745400E+02  0.47000000000E+01 0.  1.
<mgrwt>
<rscale>  2 0.17282796E+03</rscale>
<asrwt>0</asrwt>
<pdfrwt beam="1">  1       21 0.22454272E-01 0.17356304E+03</pdfrwt>
<pdfrwt beam="2">  1       21 0.45767983E-01 0.17356304E+03</pdfrwt>
<totfact> 0.85658559E+04</totfact>
</mgrwt>
</event>
<event>
12    1  0.1473662E-001  0.2317555E+03  0.7546771E-02  0.1125574E+00
         21   -1    0    0  504  503  0.00000000000E+00  0.00000000000E+00  0.10074672625E+04  0.10074672625E+04  0.00000000000E+00 0.  1.
         21   -1    0    0  502  504 -0.00000000000E+00 -0.00000000000E+00 -0.53669395948E+02  0.53669395948E+02  0.00000000000E+00 0.  1.
          6    2    1    2  502    0 -0.14617032235E+03  0.44832629174E+02  0.42114462172E+03  0.48024933471E+03  0.17291877663E+03 0.  0.
         24    2    3    3    0    0 -0.32093957854E+02  0.73049076532E+02  0.19514148087E+03  0.22547670174E+03  0.79958462704E+02 0.  0.
         -6    2    1    2    0  503  0.14617032235E+03 -0.44832629174E+02  0.53265324478E+03  0.58088732369E+03  0.17416910137E+03 0.  0.
        -24    2    5    5    0    0  0.10947934985E+03 -0.82074684421E+02  0.27055939265E+03  0.31358884732E+03  0.80084944576E+02 0.  0.
          2    1    4    4  501    0 -0.37608656342E+00  0.77407050777E+02  0.16117467347E+03  0.17879951991E+03  0.00000000000E+00 0. -1.
         -1    1    4    4    0  501 -0.31717871290E+02 -0.43579742459E+01  0.33966807402E+02  0.46677181832E+02  0.00000000000E+00 0.  1.
          5    1    3    3  502    0 -0.11407636449E+03 -0.28216447357E+02  0.22600314085E+03  0.25477263298E+03  0.47000000000E+01 0. -1.
         13    1    6    6    0    0  0.10297158664E+03 -0.89256290686E+02  0.27157251277E+03  0.30384447135E+03  0.00000000000E+00 0. -1.
        -14    1    6    6    0    0  0.65077632162E+01  0.71816062651E+01 -0.10131201199E+01  0.97443759678E+01  0.00000000000E+00 0.  1.
         -5    1    5    5    0  503  0.36690972495E+02  0.37242055247E+02  0.26209385214E+03  0.26729847637E+03  0.47000000000E+01 0.  1.
<mgrwt>
<rscale>  2 0.23152058E+03</rscale>
<asrwt>0</asrwt>
<pdfrwt beam="1">  1       21 0.15499495E+00 0.23175548E+03</pdfrwt>
<pdfrwt beam="2">  1       21 0.82568309E-02 0.23175548E+03</pdfrwt>
<totfact> 0.30408962E+04</totfact>
</mgrwt>
</event>
<event>
12    1  0.1473662E-001  0.1731413E+03  0.7546771E-02  0.1175194E+00
         21   -1    0    0  504  503  0.00000000000E+00  0.00000000000E+00  0.18219684400E+03  0.18219684400E+03  0.00000000000E+00 0. -1.
         21   -1    0    0  502  504 -0.00000000000E+00 -0.00000000000E+00 -0.16941339399E+03  0.16941339399E+03  0.00000000000E+00 0. -1.
          6    2    1    2  502    0  0.37105809616E+02  0.13663845616E+02 -0.29385329304E+02  0.17561725203E+03  0.16856565441E+03 0.  0.
         24    2    3    3    0    0  0.42222727626E+02  0.60779944038E+02  0.13179336963E+02  0.11174276264E+03  0.82678834980E+02 0.  0.
         -6    2    1    2    0  503 -0.37105809616E+02 -0.13663845616E+02  0.42168779317E+02  0.17599298596E+03  0.16622810645E+03 0.  0.
        -24    2    5    5    0    0 -0.84098226482E+02 -0.24917515233E+02  0.46347521058E+02  0.12726430646E+03  0.79716477148E+02 0.  0.
          2    1    4    4  501    0  0.47550303812E+02  0.30667161399E+02 -0.25810775837E+02  0.62190854072E+02  0.00000000000E+00 0. -1.
         -1    1    4    4    0  501 -0.53275761865E+01  0.30112782639E+02  0.38990112801E+02  0.49551908566E+02  0.00000000000E+00 0.  1.
          5    1    3    3  502    0 -0.51169180102E+01 -0.47116098422E+02 -0.42564666267E+02  0.63874489391E+02  0.47000000000E+01 0. -1.
         13    1    6    6    0    0 -0.11929232691E+02 -0.42538868477E+02  0.19176371695E+02  0.48162175566E+02  0.00000000000E+00 0. -1.
        -14    1    6    6    0    0 -0.72168993791E+02  0.17621353243E+02  0.27171149363E+02  0.79102130898E+02  0.00000000000E+00 0.  1.
         -5    1    5    5    0  503  0.46992416866E+02  0.11253669618E+02 -0.41787417406E+01  0.48728679495E+02  0.47000000000E+01 0.  1.
<mgrwt>
<rscale>  2 0.17256978E+03</rscale>
<asrwt>0</asrwt>
<pdfrwt beam="1">  1       21 0.28030284E-01 0.17314133E+03</pdfrwt>
<pdfrwt beam="2">  1       21 0.26063599E-01 0.17314133E+03</pdfrwt>
<totfact> 0.17106638E+05</totfact>
</mgrwt>
</event>
<event>
12    1  0.1473662E-001  0.1771298E+03  0.7546771E-02  0.1171026E+00
         21   -1    0    0  504  503  0.00000000000E+00  0.00000000000E+00  0.70600649960E+03  0.70600649960E+03  0.00000000000E+00 0. -1.
         21   -1    0    0  502  504 -0.00000000000E+00 -0.00000000000E+00 -0.65361763344E+02  0.65361763344E+02  0.00000000000E+00 0. -1.
          6    2    1    2  502    0  0.18088567887E+02  0.33010455706E+02  0.98914519957E+02  0.20141511655E+03  0.17136825973E+03 0.  0.
         24    2    3    3    0    0 -0.16231025041E+01  0.38022517736E+00  0.12912207175E+03  0.15254929946E+03  0.81215763992E+02 0.  0.
         -6    2    1    2    0  503 -0.18088567887E+02 -0.33010455706E+02  0.54173021630E+03  0.56995314640E+03  0.17308401244E+03 0.  0.
        -24    2    5    5    0    0  0.35191100734E+02  0.16533939838E+02  0.36261738599E+03  0.37657045276E+03  0.93819787513E+02 0.  0.
          4    1    4    4  501    0 -0.35021769761E+02  0.18164065598E+02  0.42311918872E+02  0.57851154828E+02  0.00000000000E+00 0. -1.
         -3    1    4    4    0  501  0.33398667257E+02 -0.17783840421E+02  0.86810152879E+02  0.94698144636E+02  0.00000000000E+00 0.  1.
          5    1    3    3  502    0  0.19711670391E+02  0.32630230528E+02 -0.30207551794E+02  0.48865817084E+02  0.47000000000E+01 0. -1.
         11    1    6    6    0    0 -0.19501942609E+02 -0.25829752516E+02  0.11822069260E+03  0.12257093473E+03  0.00000000000E+00 0. -1.
        -12    1    6    6    0    0  0.54693043343E+02  0.42363692354E+02  0.24439669339E+03  0.25399951803E+03  0.00000000000E+00 0.  1.
         -5    1    5    5    0  503 -0.53279668621E+02 -0.49544395544E+02  0.17911283031E+03  0.19338269364E+03  0.47000000000E+01 0.  1.
<mgrwt>
<rscale>  2 0.17670925E+03</rscale>
<asrwt>0</asrwt>
<pdfrwt beam="1">  1       21 0.10861638E+00 0.17712979E+03</pdfrwt>
<pdfrwt beam="2">  1       21 0.10055656E-01 0.17712979E+03</pdfrwt>
<totfact> 0.54531099E+04</totfact>
</mgrwt>
</event>
<event>
12    1  0.1473662E-001  0.2809818E+03  0.7546771E-02  0.1095163E+00
         21   -1    0    0  504  503  0.00000000000E+00  0.00000000000E+00  0.14503166020E+04  0.14503166020E+04  0.00000000000E+00 0.  1.
         21   -1    0    0  502  504 -0.00000000000E+00 -0.00000000000E+00 -0.54568714671E+02  0.54568714671E+02  0.00000000000E+00 0. -1.
          6    2    1    2  502    0 -0.11801637318E+03 -0.18678381652E+03  0.73660137994E+03  0.78834860113E+03  0.17348159994E+03 0.  0.
         24    2    3    3    0    0  0.10129300051E+02 -0.72147143001E+02  0.25445173015E+03  0.27643722669E+03  0.79774960749E+02 0.  0.
         -6    2    1    2    0  503  0.11801637318E+03  0.18678381652E+03  0.65914650734E+03  0.71653671550E+03  0.17359345627E+03 0.  0.
        -24    2    5    5    0    0  0.58521346611E+02  0.23170021380E+02  0.27573847572E+03  0.29542753623E+03  0.85347081225E+02 0.  0.
          4    1    4    4  501    0 -0.20553684914E+02 -0.61889598355E+02  0.10562475177E+03  0.12413446151E+03  0.00000000000E+00 0. -1.
         -3    1    4    4    0  501  0.30682984965E+02 -0.10257544646E+02  0.14882697838E+03  0.15230276518E+03  0.00000000000E+00 0.  1.
          5    1    3    3  502    0 -0.12814567323E+03 -0.11463667352E+03  0.48214964979E+03  0.51191137444E+03  0.47000000000E+01 0. -1.
         11    1    6    6    0    0 -0.14902780794E+02  0.24865431180E+02  0.47336641864E+02  0.55508019296E+02  0.00000000000E+00 0. -1.
        -12    1    6    6    0    0  0.73424127405E+02 -0.16954098000E+01  0.22840183385E+03  0.23991951694E+03  0.00000000000E+00 0.  1.
         -5    1    5    5    0  503  0.59495026572E+02  0.16361379514E+03  0.38340803162E+03  0.42110917926E+03  0.47000000000E+01 0.  1.
<mgrwt>
<rscale>  2 0.28096448E+03</rscale>
<asrwt>0</asrwt>
<pdfrwt beam="1">  1       21 0.22312560E+00 0.28098175E+03</pdfrwt>
<pdfrwt beam="2">  1       21 0.83951880E-02 0.28098175E+03</pdfrwt>
<totfact> 0.99396522E+03</totfact>
</mgrwt>
</event>
<event>
12    1  0.1473662E-001  0.2470857E+03  0.7546771E-02  0.1115548E+00
         21   -1    0    0  504  503  0.00000000000E+00  0.00000000000E+00  0.27902243630E+03  0.27902243630E+03  0.00000000000E+00 0.  1.
         21   -1    0    0  502  504 -0.00000000000E+00 -0.00000000000E+00 -0.25712756356E+03  0.25712756356E+03  0.00000000000E+00 0.  1.
          6    2    1    2  502    0  0.85501486897E+02  0.14998260022E+03 -0.95327015482E+02  0.26483693830E+03  0.17676560575E+03 0.  0.
         24    2    3    3    0    0  0.12713427920E+03  0.13658072390E+03 -0.69321730416E+02  0.21373640469E+03  0.77848116812E+02 0.  0.
         -6    2    1    2    0  503 -0.85501486897E+02 -0.14998260022E+03  0.11722188822E+03  0.27131306156E+03  0.17339123872E+03 0.  0.
        -24    2    5    5    0    0 -0.44778879658E+02 -0.88365502439E+02  0.14375358901E+03  0.19269360706E+03  0.81560540473E+02 0.  0.
          2    1    4    4  501    0  0.11716787569E+03  0.84613041679E+02 -0.29485547746E+02  0.14750279808E+03  0.00000000000E+00 0. -1.
         -1    1    4    4    0  501  0.99664035125E+01  0.51967682218E+02 -0.39836182669E+02  0.66233606604E+02  0.00000000000E+00 0.  1.
          5    1    3    3  502    0 -0.41632792305E+02  0.13401876321E+02 -0.26005285066E+02  0.51100533612E+02  0.47000000000E+01 0. -1.
         11    1    6    6    0    0  0.19261774039E+02 -0.23552337031E+02  0.66902658835E+02  0.73496219481E+02  0.00000000000E+00 0. -1.
        -12    1    6    6    0    0 -0.64040653697E+02 -0.64813165407E+02  0.76850930179E+02  0.11919738758E+03  0.00000000000E+00 0.  1.
         -5    1    5    5    0  503 -0.40722607239E+02 -0.61617097780E+02 -0.26531700793E+02  0.78619454502E+02  0.47000000000E+01 0.  1.
<mgrwt>
<rscale>  2 0.24648287E+03</rscale>
<asrwt>0</asrwt>
<pdfrwt beam="1">  1       21 0.42926529E-01 0.24708574E+03</pdfrwt>
<pdfrwt beam="2">  1       21 0.39558087E-01 0.24708574E+03</pdfrwt>
<totfact> 0.31289925E+04</totfact>
</mgrwt>
</event>
<event>
12    1  0.1473662E-001  0.2308149E+03  0.7546771E-02  0.1127483E+00
         21   -1    0    0  504  503  0.00000000000E+00  0.00000000000E+00  0.77820049161E+03  0.77820049161E+03  0.00000000000E+00 0.  1.
         21   -1    0    0  502  504 -0.00000000000E+00 -0.00000000000E+00 -0.73477780386E+02  0.73477780386E+02  0.00000000000E+00 0. -1.
          6    2    1    2  502    0  0.76095664658E+01  0.14090208426E+03  0.21214700120E+03  0.30770552981E+03  0.17252547669E+03 0.  0.
         24    2    3    3    0    0 -0.15465969640E+02  0.16747589070E+03  0.18586195835E+03  0.26352814835E+03  0.81332940603E+02 0.  0.
         -6    2    1    2    0  503 -0.76095664658E+01 -0.14090208426E+03  0.49257571001E+03  0.54397274218E+03  0.18265872902E+03 0.  0.
        -24    2    5    5    0    0 -0.72439898604E+02 -0.52604176157E+02  0.28121976648E+03  0.30586999669E+03  0.80356453125E+02 0.  0.
          4    1    4    4  501    0 -0.27575943179E+02  0.76450983653E+02  0.13755419669E+03  0.15976965473E+03  0.00000000000E+00 0. -1.
         -3    1    4    4    0  501  0.12109973540E+02  0.91024907047E+02  0.48307761657E+02  0.10375849362E+03  0.00000000000E+00 0.  1.
          5    1    3    3  502    0  0.23075536105E+02 -0.26573806440E+02  0.26285042854E+02  0.44177381465E+02  0.47000000000E+01 0. -1.
         11    1    6    6    0    0 -0.40323574079E+02 -0.68546785518E+02  0.14924926738E+03  0.16911533415E+03  0.00000000000E+00 0. -1.
        -12    1    6    6    0    0 -0.32116324525E+02  0.15942609361E+02  0.13197049910E+03  0.13675466254E+03  0.00000000000E+00 0.  1.
         -5    1    5    5    0  503  0.64830332138E+02 -0.88297908103E+02  0.21135594354E+03  0.23810274549E+03  0.47000000000E+01 0.  1.
<mgrwt>
<rscale>  2 0.22880556E+03</rscale>
<asrwt>0</asrwt>
<pdfrwt beam="1">  1       21 0.11972315E+00 0.23081489E+03</pdfrwt>
<pdfrwt beam="2">  1       21 0.11304274E-01 0.23081489E+03</pdfrwt>
<totfact> 0.33958618E+04</totfact>
</mgrwt>
</event>
<event>
12    1  0.1473662E-001  0.2653745E+03  0.7546771E-02  0.1104518E+00
         21   -1    0    0  504  503  0.00000000000E+00  0.00000000000E+00  0.54040060182E+02  0.54040060182E+02  0.00000000000E+00 0. -1.
         21   -1    0    0  502  504 -0.00000000000E+00 -0.00000000000E+00 -0.16078176734E+04  0.16078176734E+04  0.00000000000E+00 0.  1.
          6    2    1    2  502    0 -0.19557376898E+03  0.16493468969E+02 -0.11539486126E+04  0.11840696829E+04  0.17861265289E+03 0.  0.
         24    2    3    3    0    0 -0.13563850678E+03 -0.49879366905E+02 -0.89332954864E+03  0.90849396644E+03  0.80236206353E+02 0.  0.
         -6    2    1    2    0  503  0.19557376898E+03 -0.16493468969E+02 -0.39982900064E+03  0.47778805072E+03  0.17290765752E+03 0.  0.
        -24    2    5    5    0    0  0.59375428681E+02 -0.61946236289E+02 -0.16782460611E+03  0.20490699414E+03  0.80367904742E+02 0.  0.
          4    1    4    4  501    0 -0.12069587724E+03 -0.45291437379E+02 -0.87481923692E+03  0.88426664890E+03  0.00000000000E+00 0. -1.
         -3    1    4    4    0  501 -0.14942629531E+02 -0.45879295262E+01 -0.18510311726E+02  0.24227317533E+02  0.00000000000E+00 0.  1.
          5    1    3    3  502    0 -0.59935262200E+02  0.66372835874E+02 -0.26061906395E+03  0.27557571644E+03  0.47000000000E+01 0. -1.
         11    1    6    6    0    0  0.64022472365E+02 -0.95939854748E+01 -0.99495539121E+02  0.11870250136E+03  0.00000000000E+00 0. -1.
        -12    1    6    6    0    0 -0.46470436837E+01 -0.52352250814E+02 -0.68329066986E+02  0.86204492780E+02  0.00000000000E+00 0.  1.
         -5    1    5    5    0  503  0.13619834029E+03  0.45452767320E+02 -0.23200439453E+03  0.27288105657E+03  0.47000000000E+01 0.  1.
<mgrwt>
<rscale>  2 0.26441788E+03</rscale>
<asrwt>0</asrwt>
<pdfrwt beam="1">  1       21 0.83138567E-02 0.26537448E+03</pdfrwt>
<pdfrwt beam="2">  1       21 0.24735653E+00 0.26537448E+03</pdfrwt>
<totfact> 0.72710170E+03</totfact>
</mgrwt>
</event>
<event>
12    1  0.1473662E-001  0.1948109E+03  0.7546771E-02  0.1154249E+00
         21   -1    0    0  504  503  0.00000000000E+00  0.00000000000E+00  0.36167186385E+02  0.36167186385E+02  0.00000000000E+00 0.  1.
         21   -1    0    0  502  504 -0.00000000000E+00 -0.00000000000E+00 -0.14707403949E+04  0.14707403949E+04  0.00000000000E+00 0.  1.
          6    2    1    2  502    0  0.76840395559E+02  0.44730646648E+02 -0.11216086966E+04  0.11384012357E+04  0.17333790097E+03 0.  0.
         24    2    3    3    0    0  0.57749645008E+02  0.91295242081E+02 -0.95287013230E+03  0.96225495728E+03  0.79393142330E+02 0.  0.
         -6    2    1    2    0  503 -0.76840395559E+02 -0.44730646648E+02 -0.31296451192E+03  0.36850634564E+03  0.17304584339E+03 0.  0.
        -24    2    5    5    0    0 -0.96262439464E+02 -0.81406981802E+02 -0.26210766661E+03  0.30269693853E+03  0.83853764123E+02 0.  0.
          4    1    4    4  501    0  0.61931286434E+02  0.57346545355E+02 -0.84221246171E+03  0.84643129737E+03  0.00000000000E+00 0. -1.
         -3    1    4    4    0  501 -0.41816414258E+01  0.33948696726E+02 -0.11065767059E+03  0.11582365991E+03  0.00000000000E+00 0.  1.
          5    1    3    3  502    0  0.19090750552E+02 -0.46564595433E+02 -0.16873856430E+03  0.17614627838E+03  0.47000000000E+01 0. -1.
         13    1    6    6    0    0 -0.39397721173E+02  0.95965183265E+01 -0.10387406180E+03  0.11150827015E+03  0.00000000000E+00 0. -1.
        -14    1    6    6    0    0 -0.56864718291E+02 -0.91003500129E+02 -0.15823360481E+03  0.19118866837E+03  0.00000000000E+00 0.  1.
         -5    1    5    5    0  503  0.19422043905E+02  0.36676335154E+02 -0.50856845308E+02  0.65809407112E+02  0.47000000000E+01 0.  1.
<mgrwt>
<rscale>  2 0.19474596E+03</rscale>
<asrwt>0</asrwt>
<pdfrwt beam="1">  1       21 0.55641819E-02 0.19481095E+03</pdfrwt>
<pdfrwt beam="2">  1       21 0.22626778E+00 0.19481095E+03</pdfrwt>
<totfact> 0.20625090E+04</totfact>
</mgrwt>
</event>
<event>
12    1  0.1473662E-001  0.1896889E+03  0.7546771E-02  0.1161980E+00
         21   -1    0    0  504  503  0.00000000000E+00  0.00000000000E+00  0.11515242166E+03  0.11515242166E+03  0.00000000000E+00 0. -1.
         21   -1    0    0  502  504 -0.00000000000E+00 -0.00000000000E+00 -0.41741309579E+03  0.41741309579E+03  0.00000000000E+00 0. -1.
          6    2    1    2  502    0 -0.22312499009E+02 -0.24048765114E+02 -0.29409922524E+03  0.34270110678E+03  0.17283953132E+03 0.  0.
         24    2    3    3    0    0 -0.51480740283E+01 -0.30312913739E+02 -0.51361244535E+02  0.99231038153E+02  0.79141936336E+02 0.  0.
         -6    2    1    2    0  503  0.22312499009E+02  0.24048765114E+02 -0.81614488971E+01  0.18986441068E+03  0.18683065722E+03 0.  0.
        -24    2    5    5    0    0  0.33171135233E+02 -0.24037033833E+02 -0.67152512336E+02  0.11284370173E+03  0.80908206624E+02 0.  0.
          4    1    4    4  501    0 -0.52590204021E+01 -0.44077730195E+02  0.16905201606E+01  0.44422533169E+02  0.00000000000E+00 0. -1.
         -3    1    4    4    0  501  0.11094637377E+00  0.13764816456E+02 -0.53051764696E+02  0.54808504983E+02  0.00000000000E+00 0.  1.
          5    1    3    3  502    0 -0.17164424980E+02  0.62641486253E+01 -0.24273798070E+03  0.24347006863E+03  0.47000000000E+01 0. -1.
         13    1    6    6    0    0  0.30754250903E+02  0.23260173750E+02 -0.12519450757E+02  0.40541291035E+02  0.00000000000E+00 0. -1.
        -14    1    6    6    0    0  0.24168843295E+01 -0.47297207583E+02 -0.54633061579E+02  0.72302410696E+02  0.00000000000E+00 0.  1.
         -5    1    5    5    0  503 -0.10858636224E+02  0.48085798947E+02  0.58991063439E+02  0.77020708947E+02  0.47000000000E+01 0.  1.
<mgrwt>
<rscale>  2 0.18615020E+03</rscale>
<asrwt>0</asrwt>
<pdfrwt beam="1">  1       21 0.17715757E-01 0.18968892E+03</pdfrwt>
<pdfrwt beam="2">  1       21 0.64217400E-01 0.18968892E+03</pdfrwt>
<totfact> 0.64784452E+04</totfact>
</mgrwt>
</event>
<event>
12    1  0.1473662E-001  0.1907760E+03  0.7546771E-02  0.1157895E+00
         21   -1    0    0  504  503  0.00000000000E+00  0.00000000000E+00  0.14802906550E+03  0.14802906550E+03  0.00000000000E+00 0.  1.
         21   -1    0    0  502  504 -0.00000000000E+00 -0.00000000000E+00 -0.25320736029E+03  0.25320736029E+03  0.00000000000E+00 0.  1.
          6    2    1    2  502    0 -0.31001857324E+02  0.74229723844E+02 -0.88385258815E+02  0.20972272156E+03  0.17233832686E+03 0.  0.
         24    2    3    3    0    0 -0.38003692182E+02 -0.59050800867E+01 -0.92938852749E+02  0.12901684997E+03  0.80799546004E+02 0.  0.
         -6    2    1    2    0  503  0.31001857324E+02 -0.74229723844E+02 -0.16793035981E+02  0.19151370423E+03  0.17298649019E+03 0.  0.
        -24    2    5    5    0    0 -0.20938022631E+02  0.20485545550E+02  0.21513839166E+02  0.76804332030E+02  0.67660932411E+02 0.  0.
          4    1    4    4  501    0 -0.53295779871E+02 -0.29704694739E+02 -0.59602005014E+02  0.85294830109E+02  0.00000000000E+00 0. -1.
         -3    1    4    4    0  501  0.15292087689E+02  0.23799614652E+02 -0.33336847734E+02  0.43722019857E+02  0.00000000000E+00 0.  1.
          5    1    3    3  502    0  0.70018348575E+01  0.80134803931E+02  0.45535939339E+01  0.80705871596E+02  0.47000000000E+01 0. -1.
         11    1    6    6    0    0  0.11131979148E+02  0.36198616254E+02  0.86612372523E+01  0.38849424825E+02  0.00000000000E+00 0. -1.
        -12    1    6    6    0    0 -0.32070001779E+02 -0.15713070704E+02  0.12852601914E+02  0.37954907206E+02  0.00000000000E+00 0.  1.
         -5    1    5    5    0  503  0.51939879955E+02 -0.94715269394E+02 -0.38306875148E+02  0.11470937220E+03  0.47000000000E+01 0.  1.
<mgrwt>
<rscale>  2 0.19062898E+03</rscale>
<asrwt>0</asrwt>
<pdfrwt beam="1">  1       21 0.22773703E-01 0.19077603E+03</pdfrwt>
<pdfrwt beam="2">  1       21 0.38954978E-01 0.19077603E+03</pdfrwt>
<totfact> 0.11498082E+05</totfact>
</mgrwt>
</event>
<event>
12    1  0.1473662E-001  0.3778570E+03  0.7546771E-02  0.1051964E+00
         21   -1    0    0  504  503  0.00000000000E+00  0.00000000000E+00  0.63293812848E+03  0.63293812848E+03  0.00000000000E+00 0.  1.
         21   -1    0    0  502  504 -0.00000000000E+00 -0.00000000000E+00 -0.22551842000E+03  0.22551842000E+03  0.00000000000E+00 0. -1.
          6    2    1    2  502    0  0.29910226868E+03  0.15167604858E+03  0.23736424524E+03  0.44409584022E+03  0.16855722926E+03 0.  0.
         24    2    3    3    0    0  0.30152585131E+03  0.12051742554E+03  0.24115165513E+03  0.41226553994E+03  0.79790135857E+02 0.  0.
         -6    2    1    2    0  503 -0.29910226868E+03 -0.15167604858E+03  0.17005546323E+03  0.41436070826E+03  0.17409234657E+03 0.  0.
        -24    2    5    5    0    0 -0.21917178501E+03 -0.31517132753E+02  0.99107350137E+02  0.25347947249E+03  0.73484523012E+02 0.  0.
          2    1    4    4  501    0  0.26929655518E+03  0.82455111924E+02  0.18401823304E+03  0.33642560872E+03  0.00000000000E+00 0. -1.
         -1    1    4    4    0  501  0.32229296136E+02  0.38062313619E+02  0.57133422089E+02  0.75839931217E+02  0.00000000000E+00 0.  1.
          5    1    3    3  502    0 -0.24235826343E+01  0.31158623035E+02 -0.37874098836E+01  0.31830300279E+02  0.47000000000E+01 0. -1.
         13    1    6    6    0    0 -0.33077704061E+02 -0.29658209578E+02  0.43446052453E+01  0.44638766740E+02  0.00000000000E+00 0. -1.
        -14    1    6    6    0    0 -0.18609408094E+03 -0.18589231747E+01  0.94762744891E+02  0.20884070575E+03  0.00000000000E+00 0.  1.
         -5    1    5    5    0  503 -0.79930483674E+02 -0.12015891582E+03  0.70948113094E+02  0.16088123577E+03  0.47000000000E+01 0.  1.
<mgrwt>
<rscale>  2 0.37722593E+03</rscale>
<asrwt>0</asrwt>
<pdfrwt beam="1">  1       21 0.97375096E-01 0.37785703E+03</pdfrwt>
<pdfrwt beam="2">  1       21 0.34695142E-01 0.37785703E+03</pdfrwt>
<totfact> 0.63331949E+03</totfact>
</mgrwt>
</event>
<event>
12    1  0.1473662E-001  0.1804349E+03  0.7546771E-02  0.1168370E+00
         21   -1    0    0  504  503  0.00000000000E+00  0.00000000000E+00  0.43013867096E+03  0.43013867096E+03  0.00000000000E+00 0. -1.
         21   -1    0    0  502  504 -0.00000000000E+00 -0.00000000000E+00 -0.39857747299E+03  0.39857747299E+03  0.00000000000E+00 0. -1.
          6    2    1    2  502    0  0.28068401100E+02  0.81485481122E+01 -0.35816667576E+03  0.39924606025E+03  0.17395348523E+03 0.  0.
         24    2    3    3    0    0  0.39995670661E+02  0.56636719476E+02 -0.31972621629E+03  0.33605491019E+03  0.76815868274E+02 0.  0.
         -6    2    1    2    0  503 -0.28068401100E+02 -0.81485481122E+01  0.38972787373E+03  0.42947008370E+03  0.17805196784E+03 0.  0.
        -24    2    5    5    0    0  0.34489313869E+02 -0.53007210787E+02  0.24486451340E+03  0.26535655444E+03  0.80350444271E+02 0.  0.
          4    1    4    4  501    0 -0.14641012518E+02  0.93121924215E+01 -0.15751207533E+03  0.15846491741E+03  0.00000000000E+00 0. -1.
         -3    1    4    4    0  501  0.54636683179E+02  0.47324527054E+02 -0.16221414095E+03  0.17758999278E+03  0.00000000000E+00 0.  1.
          5    1    3    3  502    0 -0.11927269560E+02 -0.48488171364E+02 -0.38440459478E+02  0.63191150062E+02  0.47000000000E+01 0. -1.
         13    1    6    6    0    0  0.97294484217E+01 -0.23245256362E+02  0.21497360134E+03  0.21644549749E+03  0.00000000000E+00 0. -1.
        -14    1    6    6    0    0  0.24759865447E+02 -0.29761954425E+02  0.29890912058E+02  0.48911056949E+02  0.00000000000E+00 0.  1.
         -5    1    5    5    0  503 -0.62557714969E+02  0.44858662675E+02  0.14486336033E+03  0.16411352926E+03  0.47000000000E+01 0.  1.
<mgrwt>
<rscale>  2 0.17941547E+03</rscale>
<asrwt>0</asrwt>
<pdfrwt beam="1">  1       21 0.66175180E-01 0.18043486E+03</pdfrwt>
<pdfrwt beam="2">  1       21 0.61319611E-01 0.18043486E+03</pdfrwt>
<totfact> 0.52328358E+03</totfact>
</mgrwt>
</event>
<event>
12    1  0.1473662E-001  0.3117155E+03  0.7546771E-02  0.1079546E+00
         21   -1    0    0  504  503  0.00000000000E+00  0.00000000000E+00  0.30402165961E+03  0.30402165961E+03  0.00000000000E+00 0. -1.
         21   -1    0    0  502  504 -0.00000000000E+00 -0.00000000000E+00 -0.32595522407E+03  0.32595522407E+03  0.00000000000E+00 0. -1.
          6    2    1    2  502    0  0.25884320400E+03 -0.16352760998E+02 -0.55514250917E+02  0.31645779066E+03  0.17261658138E+03 0.  0.
         24    2    3    3    0    0  0.97407828044E+02  0.20472120744E+02  0.29033428487E+02  0.13047969352E+03  0.79212484871E+02 0.  0.
         -6    2    1    2    0  503 -0.25884320400E+03  0.16352760998E+02  0.33580686457E+02  0.31351909301E+03  0.17291426238E+03 0.  0.
        -24    2    5    5    0    0 -0.15565716306E+03 -0.36327413014E+02  0.69166856529E+02  0.19223007752E+03  0.81360403854E+02 0.  0.
          2    1    4    4  501    0  0.25990282686E+02 -0.27633972340E+02 -0.42274700855E+01  0.38170705059E+02  0.00000000000E+00 0. -1.
         -1    1    4    4    0  501  0.71417545358E+02  0.48106093084E+02  0.33260898572E+02  0.92308988461E+02  0.00000000000E+00 0.  1.
          5    1    3    3  502    0  0.16143537595E+03 -0.36824881741E+02 -0.84547679404E+02  0.18597809714E+03  0.47000000000E+01 0. -1.
         11    1    6    6    0    0 -0.26092081891E+02  0.19033939009E+02  0.34239593062E+02  0.47068432146E+02  0.00000000000E+00 0. -1.
        -12    1    6    6    0    0 -0.12956508117E+03 -0.55361352023E+02  0.34927263466E+02  0.14516164538E+03  0.00000000000E+00 0.  1.
         -5    1    5    5    0  503 -0.10318604094E+03  0.52680174011E+02 -0.35586170072E+02  0.12128901549E+03  0.47000000000E+01 0.  1.
<mgrwt>
<rscale>  2 0.31167424E+03</rscale>
<asrwt>0</asrwt>
<pdfrwt beam="1">  1       21 0.46772563E-01 0.31171551E+03</pdfrwt>
<pdfrwt beam="2">  1       21 0.50146958E-01 0.31171551E+03</pdfrwt>
<totfact> 0.15604607E+04</totfact>
</mgrwt>
</event>
<event>
12    1  0.1473662E-001  0.2666729E+03  0.7546771E-02  0.1103200E+00
         21   -1    0    0  504  503  0.00000000000E+00  0.00000000000E+00  0.52414077071E+03  0.52414077071E+03  0.00000000000E+00 0.  1.
         21   -1    0    0  502  504 -0.00000000000E+00 -0.00000000000E+00 -0.17700612045E+03  0.17700612045E+03  0.00000000000E+00 0.  1.
          6    2    1    2  502    0  0.12700718315E+03 -0.15227668426E+03  0.41636768932E+01  0.26670542791E+03  0.17831274754E+03 0.  0.
         24    2    3    3    0    0  0.83280584485E+02 -0.17966209265E+03 -0.68630769104E+01  0.21373699087E+03  0.80139105015E+02 0.  0.
         -6    2    1    2    0  503 -0.12700718315E+03  0.15227668426E+03  0.34297097336E+03  0.43444146324E+03  0.17830110285E+03 0.  0.
        -24    2    5    5    0    0 -0.76558553234E+02  0.11588601530E+03  0.33517348344E+03  0.37157465247E+03  0.80222676013E+02 0.  0.
          4    1    4    4  501    0  0.44436694153E+02 -0.15964378072E+03  0.11987231459E+02  0.16614587033E+03  0.00000000000E+00 0. -1.
         -3    1    4    4    0  501  0.38843890332E+02 -0.20018311938E+02 -0.18850308370E+02  0.47591120544E+02  0.00000000000E+00 0.  1.
          5    1    3    3  502    0  0.43726598662E+02  0.27385408395E+02  0.11026753804E+02  0.52968437045E+02  0.47000000000E+01 0. -1.
         11    1    6    6    0    0 -0.79901916464E+01 -0.10263278760E+02  0.11026680801E+02  0.17051854531E+02  0.00000000000E+00 0. -1.
        -12    1    6    6    0    0 -0.68568361588E+02  0.12614929406E+03  0.32414680263E+03  0.35452279794E+03  0.00000000000E+00 0.  1.
         -5    1    5    5    0  503 -0.50448629914E+02  0.36390668960E+02  0.77974899275E+01  0.62866810772E+02  0.47000000000E+01 0.  1.
<mgrwt>
<rscale>  2 0.26667098E+03</rscale>
<asrwt>0</asrwt>
<pdfrwt beam="1">  1       21 0.80637041E-01 0.26667293E+03</pdfrwt>
<pdfrwt beam="2">  1       21 0.27231711E-01 0.26667293E+03</pdfrwt>
<totfact> 0.16671016E+04</totfact>
</mgrwt>
</event>
<event>
12    1  0.1473662E-001  0.1908633E+03  0.7546771E-02  0.1158834E+00
         21   -1    0    0  504  503  0.00000000000E+00  0.00000000000E+00  0.64636218289E+03  0.64636218289E+03  0.00000000000E+00 0.  1.
         21   -1    0    0  502  504 -0.00000000000E+00 -0.00000000000E+00 -0.10784638299E+03  0.10784638299E+03  0.00000000000E+00 0.  1.
          6    2    1    2  502    0 -0.63991276729E+02  0.47622175530E+02  0.68251635616E+01  0.19098534120E+03  0.17339568217E+03 0.  0.
         24    2    3    3    0    0 -0.60080360764E+02 -0.68098205769E+01  0.58559056268E+02  0.11564197309E+03  0.79296150367E+02 0.  0.
         -6    2    1    2    0  503  0.63991276729E+02 -0.47622175530E+02  0.53169063633E+03  0.56322322468E+03  0.16781749896E+03 0.  0.
        -24    2    5    5    0    0 -0.24778326485E+02 -0.44451197222E+02  0.23437719715E+03  0.25288877819E+03  0.80188460480E+02 0.  0.
          2    1    4    4  501    0  0.13351054381E+02 -0.19121049771E+02  0.24306267028E+02  0.33684711878E+02  0.00000000000E+00 0. -1.
         -1    1    4    4    0  501 -0.73431415145E+02  0.12311229194E+02  0.34252789240E+02  0.81957261211E+02  0.00000000000E+00 0.  1.
          5    1    3    3  502    0 -0.39109159649E+01  0.54431996107E+02 -0.51733892706E+02  0.75343368112E+02  0.47000000000E+01 0. -1.
         11    1    6    6    0    0 -0.97826311903E+01 -0.37663339105E+02  0.23315837716E+03  0.23638328161E+03  0.00000000000E+00 0. -1.
        -12    1    6    6    0    0 -0.14995695295E+02 -0.67878581175E+01  0.12188199883E+01  0.16505496580E+02  0.00000000000E+00 0.  1.
         -5    1    5    5    0  503  0.88769603214E+02 -0.31709783081E+01  0.29731343918E+03  0.31033444649E+03  0.47000000000E+01 0.  1.
<mgrwt>
<rscale>  2 0.18958735E+03</rscale>
<asrwt>0</asrwt>
<pdfrwt beam="1">  1       21 0.99440334E-01 0.19086335E+03</pdfrwt>
<pdfrwt beam="2">  1       21 0.16591752E-01 0.19086335E+03</pdfrwt>
<totfact> 0.27168779E+04</totfact>
</mgrwt>
</event>
<event>
12    1  0.1473662E-001  0.2939377E+03  0.7546771E-02  0.1088366E+00
         21   -1    0    0  504  503  0.00000000000E+00  0.00000000000E+00  0.35604247273E+03  0.35604247273E+03  0.00000000000E+00 0.  1.
         21   -1    0    0  502  504 -0.00000000000E+00 -0.00000000000E+00 -0.24231111876E+03  0.24231111876E+03  0.00000000000E+00 0. -1.
          6    2    1    2  502    0  0.13975312943E+03 -0.19210267266E+03  0.56410316573E+02  0.29887893160E+03  0.17237203344E+03 0.  0.
         24    2    3    3    0    0  0.28577667472E+01 -0.70083522806E+02 -0.70845886123E+00  0.10674965804E+03  0.80468133923E+02 0.  0.
         -6    2    1    2    0  503 -0.13975312943E+03  0.19210267266E+03  0.57321037394E+02  0.29947465989E+03  0.17310400504E+03 0.  0.
        -24    2    5    5    0    0 -0.81299577049E+02  0.26554027335E+02  0.14132793261E+02  0.11861425465E+03  0.80962139078E+02 0.  0.
          2    1    4    4  501    0 -0.26257286158E+02 -0.60776950782E+02 -0.21697190856E+02  0.69671019182E+02  0.00000000000E+00 0. -1.
         -1    1    4    4    0  501  0.29115052905E+02 -0.93065720242E+01  0.20988731995E+02  0.37078638854E+02  0.00000000000E+00 0.  1.
          5    1    3    3  502    0  0.13689536268E+03 -0.12201914985E+03  0.57118775434E+02  0.19212927357E+03  0.47000000000E+01 0. -1.
         11    1    6    6    0    0 -0.28877948347E+02  0.28291170309E+02 -0.29777549790E+02  0.50209846541E+02  0.00000000000E+00 0. -1.
        -12    1    6    6    0    0 -0.52421628702E+02 -0.17371429743E+01  0.43910343051E+02  0.68404408106E+02  0.00000000000E+00 0.  1.
         -5    1    5    5    0  503 -0.58453552381E+02  0.16554864532E+03  0.43188244133E+02  0.18086040524E+03  0.47000000000E+01 0.  1.
<mgrwt>
<rscale>  2 0.29383002E+03</rscale>
<asrwt>0</asrwt>
<pdfrwt beam="1">  1       21 0.54775765E-01 0.29393770E+03</pdfrwt>
<pdfrwt beam="2">  1       21 0.37278634E-01 0.29393770E+03</pdfrwt>
<totfact> 0.20767005E+04</totfact>
</mgrwt>
</event>
<event>
12    1  0.1473662E-001  0.1747968E+03  0.7546771E-02  0.1173048E+00
         21   -1    0    0  504  503  0.00000000000E+00  0.00000000000E+00  0.49676123055E+03  0.49676123055E+03  0.00000000000E+00 0. -1.
         21   -1    0    0  502  504 -0.00000000000E+00 -0.00000000000E+00 -0.10835057506E+03  0.10835057506E+03  0.00000000000E+00 0. -1.
          6    2    1    2  502    0 -0.15879331704E+02 -0.10919643949E+02 -0.52062879492E+01  0.17442837062E+03  0.17328231082E+03 0.  0.
         24    2    3    3    0    0 -0.32839069419E+02 -0.43613574869E+01 -0.73493605762E+02  0.10360541107E+03  0.65079529781E+02 0.  0.
         -6    2    1    2    0  503  0.15879331704E+02  0.10919643949E+02  0.39361694344E+03  0.43068343499E+03  0.17373120391E+03 0.  0.
        -24    2    5    5    0    0 -0.12992166485E+01 -0.12393602035E+02  0.39268699642E+03  0.40133101153E+03  0.81903689289E+02 0.  0.
          4    1    4    4  501    0 -0.51928303622E+02  0.27404133556E+01 -0.46268612030E+02  0.69604906735E+02  0.00000000000E+00 0. -1.
         -3    1    4    4    0  501  0.19089234204E+02 -0.71017708425E+01 -0.27224993731E+02  0.34000504338E+02  0.00000000000E+00 0.  1.
          5    1    3    3  502    0  0.16959737715E+02 -0.65582864624E+01  0.68287317812E+02  0.70822959545E+02  0.47000000000E+01 0. -1.
         13    1    6    6    0    0  0.39494621877E+02 -0.64291342134E+01  0.23281794681E+03  0.23623157130E+03  0.00000000000E+00 0. -1.
        -14    1    6    6    0    0 -0.40793838526E+02 -0.59644678214E+01  0.15986904961E+03  0.16509944022E+03  0.00000000000E+00 0.  1.
         -5    1    5    5    0  503  0.17178548352E+02  0.23313245984E+02  0.92994701990E+00  0.29352423465E+02  0.47000000000E+01 0.  1.
<mgrwt>
<rscale>  2 0.17468516E+03</rscale>
<asrwt>0</asrwt>
<pdfrwt beam="1">  1       21 0.76424804E-01 0.17479680E+03</pdfrwt>
<pdfrwt beam="2">  1       21 0.16669319E-01 0.17479680E+03</pdfrwt>
<totfact> 0.49736496E+04</totfact>
</mgrwt>
</event>
<event>
12    1  0.1473662E-001  0.2011420E+03  0.7546771E-02  0.1149482E+00
         21   -1    0    0  504  503  0.00000000000E+00  0.00000000000E+00  0.14497628828E+03  0.14497628828E+03  0.00000000000E+00 0. -1.
         21   -1    0    0  502  504 -0.00000000000E+00 -0.00000000000E+00 -0.29737653033E+03  0.29737653033E+03  0.00000000000E+00 0. -1.
          6    2    1    2  502    0 -0.22463175121E+02  0.96774507949E+02 -0.13699904463E+03  0.24062202167E+03  0.17105648032E+03 0.  0.
         24    2    3    3    0    0 -0.72000606572E+02  0.26162214273E+02 -0.63017187151E+02  0.12688786511E+03  0.79125316007E+02 0.  0.
         -6    2    1    2    0  503  0.22463175121E+02 -0.96774507949E+02 -0.15401197424E+02  0.20173079694E+03  0.17489487679E+03 0.  0.
        -24    2    5    5    0    0  0.61138724959E+01 -0.11714557680E+03 -0.56892472926E+02  0.15247741040E+03  0.79070485063E+02 0.  0.
          4    1    4    4  501    0  0.60212381123E+00 -0.22543298219E+02 -0.15698784030E+02  0.27477530233E+02  0.00000000000E+00 0. -1.
         -3    1    4    4    0  501 -0.72602730383E+02  0.48705512492E+02 -0.47318403120E+02  0.99410334875E+02  0.00000000000E+00 0.  1.
          5    1    3    3  502    0  0.49537431450E+02  0.70612293676E+02 -0.73981857481E+02  0.11373415656E+03  0.47000000000E+01 0. -1.
         11    1    6    6    0    0 -0.12877373912E+02 -0.13133344059E+02  0.15734183165E+02  0.24204875643E+02  0.00000000000E+00 0. -1.
        -12    1    6    6    0    0  0.18991246408E+02 -0.10401223274E+03 -0.72626656091E+02  0.12827253476E+03  0.00000000000E+00 0.  1.
         -5    1    5    5    0  503  0.16349302626E+02  0.20371068848E+02  0.41491275503E+02  0.49253386535E+02  0.47000000000E+01 0.  1.
<mgrwt>
<rscale>  2 0.20030471E+03</rscale>
<asrwt>0</asrwt>
<pdfrwt beam="1">  1       21 0.22304044E-01 0.20114203E+03</pdfrwt>
<pdfrwt beam="2">  1       21 0.45750235E-01 0.20114203E+03</pdfrwt>
<totfact> 0.85845237E+04</totfact>
</mgrwt>
</event>
<event>
12    1  0.1473662E-001  0.1794402E+03  0.7546771E-02  0.1168915E+00
         21   -1    0    0  504  503  0.00000000000E+00  0.00000000000E+00  0.55323113245E+03  0.55323113245E+03  0.00000000000E+00 0. -1.
         21   -1    0    0  502  504 -0.00000000000E+00 -0.00000000000E+00 -0.13777121542E+03  0.13777121542E+03  0.00000000000E+00 0. -1.
          6    2    1    2  502    0  0.10833271012E+02 -0.22720943497E+02 -0.56641834867E+02  0.18594904253E+03  0.17531442590E+03 0.  0.
         24    2    3    3    0    0 -0.60832870540E+02 -0.12387056743E+02 -0.97521486239E+01  0.99557157866E+02  0.77216876178E+02 0.  0.
         -6    2    1    2    0  503 -0.10833271012E+02  0.22720943497E+02  0.47210175189E+03  0.50505330534E+03  0.17766591136E+03 0.  0.
        -24    2    5    5    0    0 -0.97477182276E+01 -0.13762448655E+02  0.45856225258E+03  0.46584075162E+03  0.80273553386E+02 0.  0.
          2    1    4    4  501    0 -0.15413563766E+02  0.16278701305E+02 -0.33921970278E+02  0.40660473825E+02  0.00000000000E+00 0. -1.
         -1    1    4    4    0  501 -0.45419306774E+02 -0.28665758048E+02  0.24169821654E+02  0.58896684041E+02  0.00000000000E+00 0.  1.
          5    1    3    3  502    0  0.71666141551E+02 -0.10333886754E+02 -0.46889686243E+02  0.86391884667E+02  0.47000000000E+01 0. -1.
         13    1    6    6    0    0  0.18172247541E+02 -0.14528150008E+02  0.40283086886E+03  0.40350217674E+03  0.00000000000E+00 0. -1.
        -14    1    6    6    0    0 -0.27919965769E+02  0.76570135257E+00  0.55731383717E+02  0.62338574880E+02  0.00000000000E+00 0.  1.
         -5    1    5    5    0  503 -0.10855527842E+01  0.36483392153E+02  0.13539499313E+02  0.39212553723E+02  0.47000000000E+01 0.  1.
<mgrwt>
<rscale>  2 0.17885534E+03</rscale>
<asrwt>0</asrwt>
<pdfrwt beam="1">  1       21 0.85112481E-01 0.17944018E+03</pdfrwt>
<pdfrwt beam="2">  1       21 0.21195572E-01 0.17944018E+03</pdfrwt>
<totfact> 0.24924569E+04</totfact>
</mgrwt>
</event>
<event>
12    1  0.1473662E-001  0.1862982E+03  0.7546771E-02  0.1163381E+00
         21   -1    0    0  504  503  0.00000000000E+00  0.00000000000E+00  0.81152013883E+03  0.81152013883E+03  0.00000000000E+00 0.  1.
         21   -1    0    0  502  504 -0.00000000000E+00 -0.00000000000E+00 -0.16548102774E+03  0.16548102774E+03  0.00000000000E+00 0. -1.
          6    2    1    2  502    0 -0.37864974790E+02 -0.16353117019E+02 -0.10160133933E+03  0.20649921551E+03  0.17497975054E+03 0.  0.
         24    2    3    3    0    0 -0.17667171354E+02 -0.42996557054E+02  0.64865378657E+01  0.93260956260E+02  0.80589688714E+02 0.  0.
         -6    2    1    2    0  503  0.37864974790E+02  0.16353117019E+02  0.74764045041E+03  0.77050195106E+03  0.18167507466E+03 0.  0.
        -24    2    5    5    0    0  0.37788037251E+02  0.62173978102E+02  0.67933278256E+03  0.68811515166E+03  0.81950553155E+02 0.  0.
          4    1    4    4  501    0 -0.25555187003E+02  0.14033354197E+02 -0.13750813853E+02  0.32234880090E+02  0.00000000000E+00 0. -1.
         -3    1    4    4    0  501  0.78880156490E+01 -0.57029911251E+02  0.20237351719E+02  0.61026076171E+02  0.00000000000E+00 0.  1.
          5    1    3    3  502    0 -0.20197803436E+02  0.26643440035E+02 -0.10808787720E+03  0.11323825925E+03  0.47000000000E+01 0. -1.
         13    1    6    6    0    0  0.44197431955E+01  0.43930355868E+02  0.12664876182E+03  0.13412426763E+03  0.00000000000E+00 0. -1.
        -14    1    6    6    0    0  0.33368294056E+02  0.18243622234E+02  0.55268402075E+03  0.55399088403E+03  0.00000000000E+00 0.  1.
         -5    1    5    5    0  503  0.76937538396E-01 -0.45820861083E+02  0.68307667849E+02  0.82386799408E+02  0.47000000000E+01 0.  1.
<mgrwt>
<rscale>  2 0.18464556E+03</rscale>
<asrwt>0</asrwt>
<pdfrwt beam="1">  1       21 0.12484925E+00 0.18629818E+03</pdfrwt>
<pdfrwt beam="2">  1       21 0.25458620E-01 0.18629818E+03</pdfrwt>
<totfact> 0.70343077E+03</totfact>
</mgrwt>
</event>
<event>
12    1  0.1473662E-001  0.1929173E+03  0.7546771E-02  0.1156484E+00
         21   -1    0    0  504  503  0.00000000000E+00  0.00000000000E+00  0.17717001071E+03  0.17717001071E+03  0.00000000000E+00 0. -1.
         21   -1    0    0  502  504 -0.00000000000E+00 -0.00000000000E+00 -0.20840016307E+03  0.20840016307E+03  0.00000000000E+00 0. -1.
          6    2    1    2  502    0  0.44037565921E+01 -0.77710383242E+02  0.27041264018E+00  0.19009801019E+03  0.17343264866E+03 0.  0.
         24    2    3    3    0    0  0.48620323926E+02 -0.26552969120E+02 -0.45472135346E+02  0.10832603124E+03  0.81226952933E+02 0.  0.
         -6    2    1    2    0  503 -0.44037565921E+01  0.77710383242E+02 -0.31500565000E+02  0.19547216359E+03  0.17651851009E+03 0.  0.
        -24    2    5    5    0    0  0.31304406488E+02 -0.10698927796E+02 -0.47324406130E+02  0.98705624240E+02  0.80054780741E+02 0.  0.
          2    1    4    4  501    0 -0.22480117480E+02 -0.21664794339E+01 -0.15565380564E+02  0.27428641730E+02  0.00000000000E+00 0. -1.
         -1    1    4    4    0  501  0.71100441406E+02 -0.24386489686E+02 -0.29906754781E+02  0.80897389506E+02  0.00000000000E+00 0.  1.
          5    1    3    3  502    0 -0.44216567334E+02 -0.51157414122E+02  0.45742547986E+02  0.81771978958E+02  0.47000000000E+01 0. -1.
         11    1    6    6    0    0  0.20083934611E+02  0.26804045840E+02 -0.49196127630E+02  0.59515378488E+02  0.00000000000E+00 0. -1.
        -12    1    6    6    0    0  0.11220471877E+02 -0.37502973636E+02  0.18717214998E+01  0.39190245752E+02  0.00000000000E+00 0.  1.
         -5    1    5    5    0  503 -0.35708163081E+02  0.88409311038E+02  0.15823841130E+02  0.96766539346E+02  0.47000000000E+01 0.  1.
<mgrwt>
<rscale>  2 0.19220853E+03</rscale>
<asrwt>0</asrwt>
<pdfrwt beam="1">  1       21 0.27256925E-01 0.19291729E+03</pdfrwt>
<pdfrwt beam="2">  1       21 0.32061563E-01 0.19291729E+03</pdfrwt>
<totfact> 0.12007449E+05</totfact>
</mgrwt>
</event>
<event>
12    1  0.1473662E-001  0.2691851E+03  0.7546771E-02  0.1102641E+00
         21   -1    0    0  504  503  0.00000000000E+00  0.00000000000E+00  0.44568447853E+03  0.44568447853E+03  0.00000000000E+00 0.  1.
         21   -1    0    0  502  504 -0.00000000000E+00 -0.00000000000E+00 -0.17851690168E+03  0.17851690168E+03  0.00000000000E+00 0.  1.
          6    2    1    2  502    0 -0.71128774823E+01  0.19751394841E+03  0.28736191290E+02  0.26460417565E+03  0.17357202608E+03 0.  0.
         24    2    3    3    0    0  0.53849187449E+02  0.16712753348E+03  0.89358721334E+01  0.19351373880E+03  0.80847819129E+02 0.  0.
         -6    2    1    2    0  503  0.71128774823E+01 -0.19751394841E+03  0.23843138556E+03  0.35959720455E+03  0.18275193859E+03 0.  0.
        -24    2    5    5    0    0 -0.52067894695E+02 -0.12665969765E+03  0.20814958485E+03  0.26232559461E+03  0.82065359612E+02 0.  0.
          4    1    4    4  501    0  0.23610368320E+02  0.32041563855E+02  0.34585693626E+02  0.52728374810E+02  0.00000000000E+00 0. -1.
         -3    1    4    4    0  501  0.30238819128E+02  0.13508596962E+03 -0.25649821492E+02  0.14078536399E+03  0.00000000000E+00 0.  1.
          5    1    3    3  502    0 -0.60962064931E+02  0.30386414937E+02  0.19800319157E+02  0.71090436854E+02  0.47000000000E+01 0. -1.
         13    1    6    6    0    0 -0.63676584506E+02 -0.47034570520E+02  0.10530454040E+03  0.13174218939E+03  0.00000000000E+00 0. -1.
        -14    1    6    6    0    0  0.11608689811E+02 -0.79625127126E+02  0.10284504445E+03  0.13058340521E+03  0.00000000000E+00 0.  1.
         -5    1    5    5    0  503  0.59180772177E+02 -0.70854250767E+02  0.30281800713E+02  0.97271609947E+02  0.47000000000E+01 0.  1.
<mgrwt>
<rscale>  2 0.26763529E+03</rscale>
<asrwt>0</asrwt>
<pdfrwt beam="1">  1       21 0.68566842E-01 0.26918511E+03</pdfrwt>
<pdfrwt beam="2">  1       21 0.27464139E-01 0.26918511E+03</pdfrwt>
<totfact> 0.23586560E+04</totfact>
</mgrwt>
</event>
<event>
12    1  0.1473662E-001  0.2188922E+03  0.7546771E-02  0.1134743E+00
         21   -1    0    0  504  503  0.00000000000E+00  0.00000000000E+00  0.10259606535E+04  0.10259606535E+04  0.00000000000E+00 0.  1.
         21   -1    0    0  502  504 -0.00000000000E+00 -0.00000000000E+00 -0.51035166290E+02  0.51035166290E+02  0.00000000000E+00 0.  1.
          6    2    1    2  502    0 -0.17056618846E+02 -0.13249670228E+03  0.33007020917E+03  0.39605574108E+03  0.17339983478E+03 0.  0.
         24    2    3    3    0    0  0.92756111525E+01 -0.17383451724E+02  0.63783183356E+02  0.10472205455E+03  0.80685766246E+02 0.  0.
         -6    2    1    2    0  503  0.17056618846E+02  0.13249670228E+03  0.64485527804E+03  0.68094007871E+03  0.17318994432E+03 0.  0.
        -24    2    5    5    0    0  0.29646062685E+02  0.14934604552E+03  0.63327782593E+03  0.65647537227E+03  0.82073011616E+02 0.  0.
          2    1    4    4  501    0  0.33707197811E+02 -0.12363216059E+02 -0.35508554821E+00  0.35904740374E+02  0.00000000000E+00 0. -1.
         -1    1    4    4    0  501 -0.24431586659E+02 -0.50202356657E+01  0.64138268904E+02  0.68817314179E+02  0.00000000000E+00 0.  1.
          5    1    3    3  502    0 -0.26332229998E+02 -0.11511325056E+03  0.26628702581E+03  0.29133368653E+03  0.47000000000E+01 0. -1.
         11    1    6    6    0    0 -0.17365363558E+02  0.87573169698E+02  0.25125091650E+03  0.26664140516E+03  0.00000000000E+00 0. -1.
        -12    1    6    6    0    0  0.47011426243E+02  0.61772875822E+02  0.38202690944E+03  0.38983396712E+03  0.00000000000E+00 0.  1.
         -5    1    5    5    0  503 -0.12589443839E+02 -0.16849343240E+02  0.11577452110E+02  0.24464706439E+02  0.47000000000E+01 0.  1.
<mgrwt>
<rscale>  2 0.21885066E+03</rscale>
<asrwt>0</asrwt>
<pdfrwt beam="1">  1       21 0.15784008E+00 0.21889223E+03</pdfrwt>
<pdfrwt beam="2">  1       21 0.78515648E-02 0.21889223E+03</pdfrwt>
<totfact> 0.31849800E+04</totfact>
</mgrwt>
</event>
<event>
12    1  0.1473662E-001  0.2032728E+03  0.7546771E-02  0.1147535E+00
         21   -1    0    0  504  503  0.00000000000E+00  0.00000000000E+00  0.10876659495E+03  0.10876659495E+03  0.00000000000E+00 0.  1.
         21   -1    0    0  502  504 -0.00000000000E+00 -0.00000000000E+00 -0.37720343451E+03  0.37720343451E+03  0.00000000000E+00 0. -1.
          6    2    1    2  502    0 -0.67394159542E+01 -0.11064714865E+03 -0.11716304027E+03  0.23462102104E+03  0.17038671978E+03 0.  0.
         24    2    3    3    0    0  0.95988658211E+00 -0.25404371760E+02  0.64048001249E+01  0.84232486065E+02  0.80048652438E+02 0.  0.
         -6    2    1    2    0  503  0.67394159542E+01  0.11064714865E+03 -0.15127379930E+03  0.25134900842E+03  0.16734500424E+03 0.  0.
        -24    2    5    5    0    0 -0.39889953221E+02  0.74714062351E+02 -0.15950160408E+03  0.19172291067E+03  0.64370127308E+02 0.  0.
          2    1    4    4  501    0 -0.18980026750E+02 -0.34815642679E+02  0.31634333711E+02  0.50725747504E+02  0.00000000000E+00 0. -1.
         -1    1    4    4    0  501  0.19939913332E+02  0.94112709184E+01 -0.25229533586E+02  0.33506738560E+02  0.00000000000E+00 0.  1.
          5    1    3    3  502    0 -0.76993025364E+01 -0.85242776894E+02 -0.12356784040E+03  0.15038853498E+03  0.47000000000E+01 0. -1.
         13    1    6    6    0    0  0.14993752099E+02  0.21584515992E+02 -0.21353393664E+02  0.33862536136E+02  0.00000000000E+00 0. -1.
        -14    1    6    6    0    0 -0.54883705320E+02  0.53129546359E+02 -0.13814821042E+03  0.15786037453E+03  0.00000000000E+00 0.  1.
         -5    1    5    5    0  503  0.46629369175E+02  0.35933086304E+02  0.82278047858E+01  0.59626097748E+02  0.47000000000E+01 0.  1.
<mgrwt>
<rscale>  2 0.20263414E+03</rscale>
<asrwt>0</asrwt>
<pdfrwt beam="1">  1       21 0.16733322E-01 0.20327284E+03</pdfrwt>
<pdfrwt beam="2">  1       21 0.58031297E-01 0.20327284E+03</pdfrwt>
<totfact> 0.88985501E+04</totfact>
</mgrwt>
</event>
<event>
12    1  0.1473662E-001  0.2865848E+03  0.7546771E-02  0.1092431E+00
         21   -1    0    0  504  503  0.00000000000E+00  0.00000000000E+00  0.60214051113E+02  0.60214051113E+02  0.00000000000E+00 0.  1.
         21   -1    0    0  502  504 -0.00000000000E+00 -0.00000000000E+00 -0.13539617838E+04  0.13539617838E+04  0.00000000000E+00 0.  1.
          6    2    1    2  502    0  0.40160892131E+02 -0.22391127958E+03 -0.65245566789E+03  0.71176118037E+03  0.17075251375E+03 0.  0.
         24    2    3    3    0    0  0.77300779642E+02 -0.13161293072E+03 -0.50938742227E+03  0.53743685806E+03  0.77881039855E+02 0.  0.
         -6    2    1    2    0  503 -0.40160892131E+02  0.22391127958E+03 -0.64129206476E+03  0.70241465450E+03  0.17430340258E+03 0.  0.
        -24    2    5    5    0    0 -0.80473931264E+02  0.11215049037E+03 -0.44709288648E+03  0.47470645093E+03  0.80002370650E+02 0.  0.
          4    1    4    4  501    0  0.52332700785E+02 -0.26795592339E+02 -0.24456993491E+03  0.25153760833E+03  0.00000000000E+00 0. -1.
         -3    1    4    4    0  501  0.24968078856E+02 -0.10481733838E+03 -0.26481748735E+03  0.28589924973E+03  0.00000000000E+00 0.  1.
          5    1    3    3  502    0 -0.37139887511E+02 -0.92298348860E+02 -0.14306824562E+03  0.17432432232E+03  0.47000000000E+01 0. -1.
         11    1    6    6    0    0 -0.16089801148E+02 -0.95052878068E+01 -0.91814432986E+02  0.93696970612E+02  0.00000000000E+00 0. -1.
        -12    1    6    6    0    0 -0.64384130116E+02  0.12165577818E+03 -0.35527845349E+03  0.38100948032E+03  0.00000000000E+00 0.  1.
         -5    1    5    5    0  503  0.40313039133E+02  0.11176078921E+03 -0.19419917828E+03  0.22770820357E+03  0.47000000000E+01 0.  1.
<mgrwt>
<rscale>  2 0.28604684E+03</rscale>
<asrwt>0</asrwt>
<pdfrwt beam="1">  1       21 0.92636999E-02 0.28658478E+03</pdfrwt>
<pdfrwt beam="2">  1       21 0.20830182E+00 0.28658478E+03</pdfrwt>
<totfact> 0.10327661E+04</totfact>
</mgrwt>
</event>
<event>
12    1  0.1473662E-001  0.2480604E+03  0.7546771E-02  0.1114837E+00
         21   -1    0    0  504  503  0.00000000000E+00  0.00000000000E+00  0.27035318461E+03  0.27035318461E+03  0.00000000000E+00 0. -1.
         21   -1    0    0  502  504 -0.00000000000E+00 -0.00000000000E+00 -0.22608262173E+03  0.22608262173E+03  0.00000000000E+00 0.  1.
          6    2    1    2  502    0  0.16871681626E+03  0.56603891674E+02  0.14769104302E+02  0.24662726821E+03  0.17011031227E+03 0.  0.
         24    2    3    3    0    0  0.18531135864E+03  0.28589238671E+02 -0.11987318281E+02  0.20422212973E+03  0.80033357199E+02 0.  0.
         -6    2    1    2    0  503 -0.16871681626E+03 -0.56603891674E+02  0.29501458570E+02  0.24980853813E+03  0.17281378713E+03 0.  0.
        -24    2    5    5    0    0 -0.72904313633E+02 -0.22088498459E+02  0.79685264455E+02  0.13617820591E+03  0.79948869173E+02 0.  0.
          2    1    4    4  501    0  0.78925554448E+02 -0.18963073442E+02  0.19565148336E+02  0.83496325241E+02  0.00000000000E+00 0. -1.
         -1    1    4    4    0  501  0.10638580419E+03  0.47552312113E+02 -0.31552466617E+02  0.12072580449E+03  0.00000000000E+00 0.  1.
          5    1    3    3  502    0 -0.16594542379E+02  0.28014653003E+02  0.26756422583E+02  0.42405138475E+02  0.47000000000E+01 0. -1.
         13    1    6    6    0    0 -0.51073623520E+02 -0.51986342027E+02  0.46398286161E+02  0.86393840843E+02  0.00000000000E+00 0. -1.
        -14    1    6    6    0    0 -0.21830690113E+02  0.29897843568E+02  0.33286978294E+02  0.49784365064E+02  0.00000000000E+00 0.  1.
         -5    1    5    5    0  503 -0.95812502628E+02 -0.34515393215E+02 -0.50183805884E+02  0.11363033223E+03  0.47000000000E+01 0.  1.
<mgrwt>
<rscale>  2 0.24759014E+03</rscale>
<asrwt>0</asrwt>
<pdfrwt beam="1">  1       21 0.41592798E-01 0.24806042E+03</pdfrwt>
<pdfrwt beam="2">  1       21 0.34781942E-01 0.24806042E+03</pdfrwt>
<totfact> 0.43222930E+04</totfact>
</mgrwt>
</event>
<event>
12    1  0.1473662E-001  0.2026378E+03  0.7546771E-02  0.1148089E+00
         21   -1    0    0  504  503  0.00000000000E+00  0.00000000000E+00  0.45907274734E+03  0.45907274734E+03  0.00000000000E+00 0.  1.
         21   -1    0    0  502  504 -0.00000000000E+00 -0.00000000000E+00 -0.88272882115E+02  0.88272882115E+02  0.00000000000E+00 0. -1.
          6    2    1    2  502    0 -0.10749696181E+03  0.63138696723E+01  0.18459757233E+03  0.27214866887E+03  0.16850273738E+03 0.  0.
         24    2    3    3    0    0 -0.75899728828E+02 -0.57529126298E+02  0.93439861202E+02  0.15636381854E+03  0.81536905003E+02 0.  0.
         -6    2    1    2    0  503  0.10749696181E+03 -0.63138696723E+01  0.18620229289E+03  0.27519696059E+03  0.17165841514E+03 0.  0.
        -24    2    5    5    0    0  0.91965819265E+02  0.52804866549E+02  0.87374800609E+02  0.15889904749E+03  0.79802792347E+02 0.  0.
          4    1    4    4  501    0 -0.86501342385E+02 -0.35889055159E+02  0.48722760427E+02  0.10556710614E+03  0.00000000000E+00 0. -1.
         -3    1    4    4    0  501  0.10601613558E+02 -0.21640071138E+02  0.44717100775E+02  0.50796712400E+02  0.00000000000E+00 0.  1.
          5    1    3    3  502    0 -0.31597232986E+02  0.63842995970E+02  0.91157711131E+02  0.11578485033E+03  0.47000000000E+01 0. -1.
         13    1    6    6    0    0  0.70067322833E+02 -0.56500803828E+01  0.45753296493E+02  0.83873221455E+02  0.00000000000E+00 0. -1.
        -14    1    6    6    0    0  0.21898496432E+02  0.58454946932E+02  0.41621504116E+02  0.75025826031E+02  0.00000000000E+00 0.  1.
         -5    1    5    5    0  503  0.15531142549E+02 -0.59118736221E+02  0.98827492280E+02  0.11629791310E+03  0.47000000000E+01 0.  1.
<mgrwt>
<rscale>  2 0.20196792E+03</rscale>
<asrwt>0</asrwt>
<pdfrwt beam="1">  1       21 0.70626575E-01 0.20263779E+03</pdfrwt>
<pdfrwt beam="2">  1       21 0.13580444E-01 0.20263779E+03</pdfrwt>
<totfact> 0.84986510E+04</totfact>
</mgrwt>
</event>
<event>
12    1  0.1473662E-001  0.1750599E+03  0.7546771E-02  0.1174415E+00
         21   -1    0    0  504  503  0.00000000000E+00  0.00000000000E+00  0.23040769327E+03  0.23040769327E+03  0.00000000000E+00 0.  1.
         21   -1    0    0  502  504 -0.00000000000E+00 -0.00000000000E+00 -0.50257118263E+03  0.50257118263E+03  0.00000000000E+00 0.  1.
          6    2    1    2  502    0  0.24982131109E+02 -0.98521664934E+01 -0.45319353354E+03  0.48582954200E+03  0.17298784055E+03 0.  0.
         24    2    3    3    0    0  0.72963011819E+02 -0.19152985963E+02 -0.39092672514E+03  0.40653316387E+03  0.82189238523E+02 0.  0.
         -6    2    1    2    0  503 -0.24982131109E+02  0.98521664934E+01  0.18103004418E+03  0.24714933390E+03  0.16610160835E+03 0.  0.
        -24    2    5    5    0    0  0.16902382067E+02 -0.47236862700E+02  0.88853962911E+02  0.13082225341E+03  0.81868330542E+02 0.  0.
          4    1    4    4  501    0  0.44130606021E+02  0.30030468091E+02 -0.21849503632E+03  0.22492092010E+03  0.00000000000E+00 0. -1.
         -3    1    4    4    0  501  0.28832405798E+02 -0.49183454054E+02 -0.17243168882E+03  0.18161224377E+03  0.00000000000E+00 0.  1.
          5    1    3    3  502    0 -0.47980880711E+02  0.93008194699E+01 -0.62266808399E+02  0.79296378132E+02  0.47000000000E+01 0. -1.
         11    1    6    6    0    0  0.47434176741E+02 -0.18179895851E+02  0.31958227417E+02  0.60015315011E+02  0.00000000000E+00 0. -1.
        -12    1    6    6    0    0 -0.30531794674E+02 -0.29056966849E+02  0.56895735494E+02  0.70806938402E+02  0.00000000000E+00 0.  1.
         -5    1    5    5    0  503 -0.41884513175E+02  0.57089029194E+02  0.92176081265E+02  0.11632708049E+03  0.47000000000E+01 0.  1.
<mgrwt>
<rscale>  2 0.17333419E+03</rscale>
<asrwt>0</asrwt>
<pdfrwt beam="1">  1       21 0.35447338E-01 0.17505989E+03</pdfrwt>
<pdfrwt beam="2">  1       21 0.77318643E-01 0.17505989E+03</pdfrwt>
<totfact> 0.11534495E+04</totfact>
</mgrwt>
</event>
<event>
12    1  0.1473662E-001  0.2347240E+03  0.7546771E-02  0.1123369E+00
         21   -1    0    0  504  503  0.00000000000E+00  0.00000000000E+00  0.38175084845E+02  0.38175084845E+02  0.00000000000E+00 0.  1.
         21   -1    0    0  502  504 -0.00000000000E+00 -0.00000000000E+00 -0.18710718434E+04  0.18710718434E+04  0.00000000000E+00 0.  1.
          6    2    1    2  502    0 -0.98617751170E+02  0.12458460054E+03 -0.13732386328E+04  0.13931545795E+04  0.17276734709E+03 0.  0.
         24    2    3    3    0    0 -0.99979913387E+02  0.57905578052E+02 -0.11743944603E+04  0.11833712569E+04  0.88408959297E+02 0.  0.
         -6    2    1    2    0  503  0.98617751170E+02 -0.12458460054E+03 -0.45965812574E+03  0.51609234873E+03  0.17268160390E+03 0.  0.
        -24    2    5    5    0    0  0.71249491086E+02 -0.13558913884E+03 -0.45324409389E+03  0.48554154960E+03  0.82821997021E+02 0.  0.
          2    1    4    4  501    0 -0.96438903266E+02  0.94544708391E+01 -0.78432132640E+03  0.79028462728E+03  0.00000000000E+00 0. -1.
         -1    1    4    4    0  501 -0.35410101213E+01  0.48451107213E+02 -0.39007313395E+03  0.39308662961E+03  0.00000000000E+00 0.  1.
          5    1    3    3  502    0  0.13621622176E+01  0.66679022490E+02 -0.19884417243E+03  0.20978332258E+03  0.47000000000E+01 0. -1.
         13    1    6    6    0    0 -0.62059031731E+01 -0.20958297788E+02 -0.15784403336E+03  0.15935025054E+03  0.00000000000E+00 0. -1.
        -14    1    6    6    0    0  0.77455394259E+02 -0.11463084105E+03 -0.29540006053E+03  0.32619129905E+03  0.00000000000E+00 0.  1.
         -5    1    5    5    0  503  0.27368260083E+02  0.11004538300E+02 -0.64140318528E+01  0.30550799135E+02  0.47000000000E+01 0.  1.
<mgrwt>
<rscale>  2 0.23470819E+03</rscale>
<asrwt>0</asrwt>
<pdfrwt beam="1">  1       21 0.58730905E-02 0.23472397E+03</pdfrwt>
<pdfrwt beam="2">  1       21 0.28785718E+00 0.23472397E+03</pdfrwt>
<totfact> 0.78653896E+03</totfact>
</mgrwt>
</event>
<event>
12    1  0.1473662E-001  0.2069403E+03  0.7546771E-02  0.1145326E+00
         21   -1    0    0  504  503  0.00000000000E+00  0.00000000000E+00  0.59394699887E+03  0.59394699887E+03  0.00000000000E+00 0.  1.
         21   -1    0    0  502  504 -0.00000000000E+00 -0.00000000000E+00 -0.75826093481E+02  0.75826093481E+02  0.00000000000E+00 0.  1.
          6    2    1    2  502    0 -0.54259176901E+02 -0.87797144643E+02  0.34901417383E+03  0.40252529394E+03  0.17193987857E+03 0.  0.
         24    2    3    3    0    0 -0.10146641487E+03 -0.61110371627E+02  0.27905405479E+03  0.31388435855E+03  0.81377602450E+02 0.  0.
         -6    2    1    2    0  503  0.54259176901E+02  0.87797144643E+02  0.16910673156E+03  0.26724779842E+03  0.17936527594E+03 0.  0.
        -24    2    5    5    0    0  0.76071158807E+02  0.31243997655E+01  0.72487671349E+02  0.13685389873E+03  0.87623878154E+02 0.  0.
          2    1    4    4  501    0 -0.46579982201E+02  0.76960833323E+01  0.51316638813E+02  0.69730351064E+02  0.00000000000E+00 0. -1.
         -1    1    4    4    0  501 -0.54886432669E+02 -0.68806454959E+02  0.22773741598E+03  0.24415400749E+03  0.00000000000E+00 0.  1.
          5    1    3    3  502    0  0.47207237969E+02 -0.26686773016E+02  0.69960119036E+02  0.88640935387E+02  0.47000000000E+01 0. -1.
         13    1    6    6    0    0 -0.16592484641E+01 -0.28473007430E+02  0.34458750939E+02  0.44731094038E+02  0.00000000000E+00 0. -1.
        -14    1    6    6    0    0  0.77730407271E+02  0.31597407195E+02  0.38028920410E+02  0.92122804688E+02  0.00000000000E+00 0.  1.
         -5    1    5    5    0  503 -0.21811981906E+02  0.84672744877E+02  0.96619060214E+02  0.13039389969E+03  0.47000000000E+01 0.  1.
<mgrwt>
<rscale>  2 0.20532098E+03</rscale>
<asrwt>0</asrwt>
<pdfrwt beam="1">  1       21 0.91376458E-01 0.20694033E+03</pdfrwt>
<pdfrwt beam="2">  1       21 0.11665553E-01 0.20694033E+03</pdfrwt>
<totfact> 0.62175785E+04</totfact>
</mgrwt>
</event>
<event>
12    1  0.1473662E-001  0.2201638E+03  0.7546771E-02  0.1133799E+00
         21   -1    0    0  504  503  0.00000000000E+00  0.00000000000E+00  0.30452068063E+03  0.30452068063E+03  0.00000000000E+00 0. -1.
         21   -1    0    0  502  504 -0.00000000000E+00 -0.00000000000E+00 -0.16576099578E+03  0.16576099578E+03  0.00000000000E+00 0. -1.
          6    2    1    2  502    0  0.56205892369E+02  0.12346583014E+03  0.11674279931E+03  0.24901969803E+03  0.17314449245E+03 0.  0.
         24    2    3    3    0    0  0.10259516234E+02  0.85173898987E+02  0.23828587872E+00  0.11797492277E+03  0.80982559119E+02 0.  0.
         -6    2    1    2    0  503 -0.56205892369E+02 -0.12346583014E+03  0.22016885529E+02  0.22126197838E+03  0.17340474700E+03 0.  0.
        -24    2    5    5    0    0 -0.95500286443E+02 -0.12690159705E+03  0.44123184797E+01  0.17781241359E+03  0.79833989165E+02 0.  0.
          4    1    4    4  501    0 -0.86009542432E+01  0.91714412276E+02 -0.14379968050E+02  0.93232469205E+02  0.00000000000E+00 0. -1.
         -3    1    4    4    0  501  0.18860470477E+02 -0.65405132886E+01  0.14618253929E+02  0.24742453569E+02  0.00000000000E+00 0.  1.
          5    1    3    3  502    0  0.45946376135E+02  0.38291931149E+02  0.11650451344E+03  0.13104477526E+03  0.47000000000E+01 0. -1.
         11    1    6    6    0    0 -0.74112152189E+01 -0.74364815683E+02  0.81636401935E+01  0.75177768947E+02  0.00000000000E+00 0. -1.
        -12    1    6    6    0    0 -0.88089071224E+02 -0.52536781369E+02 -0.37513217138E+01  0.10263464464E+03  0.00000000000E+00 0.  1.
         -5    1    5    5    0  503  0.39294394074E+02  0.34357669164E+01  0.17604567050E+02  0.43449564796E+02  0.47000000000E+01 0.  1.
<mgrwt>
<rscale>  2 0.22011260E+03</rscale>
<asrwt>0</asrwt>
<pdfrwt beam="1">  1       21 0.46849336E-01 0.22016385E+03</pdfrwt>
<pdfrwt beam="2">  1       21 0.25501692E-01 0.22016385E+03</pdfrwt>
<totfact> 0.62822931E+04</totfact>
</mgrwt>
</event>
<event>
12    1  0.1473662E-001  0.2622763E+03  0.7546771E-02  0.1105916E+00
         21   -1    0    0  504  503  0.00000000000E+00  0.00000000000E+00  0.44156334615E+03  0.44156334615E+03  0.00000000000E+00 0. -1.
         21   -1    0    0  502  504 -0.00000000000E+00 -0.00000000000E+00 -0.27685215182E+03  0.27685215182E+03  0.00000000000E+00 0.  1.
          6    2    1    2  502    0  0.16580546917E+01  0.19608209826E+03 -0.15562302219E+03  0.30497109308E+03  0.17417779473E+03 0.  0.
         24    2    3    3    0    0 -0.66864979106E+01  0.94203213392E+02 -0.15974115826E+03  0.20256021581E+03  0.81206211077E+02 0.  0.
         -6    2    1    2    0  503 -0.16580546917E+01 -0.19608209826E+03  0.32033421652E+03  0.41344440488E+03  0.17283323537E+03 0.  0.
        -24    2    5    5    0    0  0.22215525266E+02 -0.88237413475E+02  0.26149226653E+03  0.28820507825E+03  0.80028688442E+02 0.  0.
          2    1    4    4  501    0  0.28217869082E+02  0.77312396252E+01 -0.23830449867E+02  0.37734739201E+02  0.00000000000E+00 0. -1.
         -1    1    4    4    0  501 -0.34904366993E+02  0.86471973767E+02 -0.13591070839E+03  0.16482547661E+03  0.00000000000E+00 0.  1.
          5    1    3    3  502    0  0.83445526023E+01  0.10187888487E+03  0.41181360687E+01  0.10241087728E+03  0.47000000000E+01 0. -1.
         13    1    6    6    0    0  0.85561914186E+01  0.11909794742E+02  0.71623072272E+02  0.73108933135E+02  0.00000000000E+00 0. -1.
        -14    1    6    6    0    0  0.13659333848E+02 -0.10014720822E+03  0.18986919426E+03  0.21509614511E+03  0.00000000000E+00 0.  1.
         -5    1    5    5    0  503 -0.23873579958E+02 -0.10784468478E+03  0.58841949996E+02  0.12523932663E+03  0.47000000000E+01 0.  1.
<mgrwt>
<rscale>  2 0.26205324E+03</rscale>
<asrwt>0</asrwt>
<pdfrwt beam="1">  1       21 0.67932823E-01 0.26227627E+03</pdfrwt>
<pdfrwt beam="2">  1       21 0.42592639E-01 0.26227627E+03</pdfrwt>
<totfact> 0.10060661E+04</totfact>
</mgrwt>
</event>
<event>
12    1  0.1473662E-001  0.2142229E+03  0.7546771E-02  0.1138740E+00
         21   -1    0    0  504  503  0.00000000000E+00  0.00000000000E+00  0.14839935603E+03  0.14839935603E+03  0.00000000000E+00 0. -1.
         21   -1    0    0  502  504 -0.00000000000E+00 -0.00000000000E+00 -0.13742503349E+04  0.13742503349E+04  0.00000000000E+00 0. -1.
          6    2    1    2  502    0  0.92983519807E+02 -0.82988327757E+02 -0.12834607759E+04  0.13008156978E+04  0.17122184121E+03 0.  0.
         24    2    3    3    0    0  0.59203760736E+01  0.12237340328E+02 -0.58964448309E+03  0.59508837298E+03  0.79150185458E+02 0.  0.
         -6    2    1    2    0  503 -0.92983519807E+02  0.82988327757E+02  0.57609797049E+02  0.22183399310E+03  0.17423671908E+03 0.  0.
        -24    2    5    5    0    0 -0.99159025300E+02  0.60541731227E+02 -0.20946282575E+02  0.13976612965E+03  0.74819855163E+02 0.  0.
          4    1    4    4  501    0  0.92689813538E+01  0.38954781225E+02 -0.49699332621E+03  0.49860380593E+03  0.00000000000E+00 0. -1.
         -3    1    4    4    0  501 -0.33486052802E+01 -0.26717440896E+02 -0.92651156888E+02  0.96484567046E+02  0.00000000000E+00 0.  1.
          5    1    3    3  502    0  0.87063143733E+02 -0.95225668085E+02 -0.69381629282E+03  0.70572732485E+03  0.47000000000E+01 0. -1.
         11    1    6    6    0    0 -0.75822883166E+02  0.77327570751E+02 -0.91197269708E+01  0.10868225352E+03  0.00000000000E+00 0. -1.
        -12    1    6    6    0    0 -0.23336142134E+02 -0.16785839524E+02 -0.11826555604E+02  0.31083876136E+02  0.00000000000E+00 0.  1.
         -5    1    5    5    0  503  0.61755054932E+01  0.22446596530E+02  0.78556079624E+02  0.82067863441E+02  0.47000000000E+01 0.  1.
<mgrwt>
<rscale>  2 0.21360901E+03</rscale>
<asrwt>0</asrwt>
<pdfrwt beam="1">  1       21 0.22830671E-01 0.21422286E+03</pdfrwt>
<pdfrwt beam="2">  1       21 0.21142312E+00 0.21422286E+03</pdfrwt>
<totfact> 0.20014156E+03</totfact>
</mgrwt>
</event>
<event>
12    1  0.1473662E-001  0.2541234E+03  0.7546771E-02  0.1110760E+00
         21   -1    0    0  504  503  0.00000000000E+00  0.00000000000E+00  0.21751095135E+03  0.21751095135E+03  0.00000000000E+00 0.  1.
         21   -1    0    0  502  504 -0.00000000000E+00 -0.00000000000E+00 -0.50200463228E+03  0.50200463228E+03  0.00000000000E+00 0. -1.
          6    2    1    2  502    0 -0.14157797064E+03  0.12107793566E+03 -0.37231024539E+03  0.45064676747E+03  0.17252072900E+03 0.  0.
         24    2    3    3    0    0 -0.24836972846E+02  0.59304779940E+01 -0.96897774812E+02  0.13008239559E+03  0.82947001684E+02 0.  0.
         -6    2    1    2    0  503  0.14157797064E+03 -0.12107793566E+03  0.87816564464E+02  0.26886881616E+03  0.17284242255E+03 0.  0.
        -24    2    5    5    0    0  0.96232837375E+02 -0.41936447563E+01  0.22389237201E+02  0.12737343205E+03  0.80276818598E+02 0.  0.
          4    1    4    4  501    0 -0.39150345540E+02 -0.22933405769E+02 -0.26210743365E+02  0.52399367590E+02  0.00000000000E+00 0. -1.
         -3    1    4    4    0  501  0.14313372693E+02  0.28863883763E+02 -0.70687031447E+02  0.77683027996E+02  0.00000000000E+00 0.  1.
          5    1    3    3  502    0 -0.11674099779E+03  0.11514745766E+03 -0.27541247058E+03  0.32056437189E+03  0.47000000000E+01 0. -1.
         11    1    6    6    0    0 -0.10114297887E+02  0.12616588273E+02 -0.37042240639E+01  0.16589110805E+02  0.00000000000E+00 0. -1.
        -12    1    6    6    0    0  0.10634713526E+03 -0.16810233029E+02  0.26093461264E+02  0.11078432124E+03  0.00000000000E+00 0.  1.
         -5    1    5    5    0  503  0.45345133263E+02 -0.11688429090E+03  0.65427327263E+02  0.14149538411E+03  0.47000000000E+01 0.  1.
<mgrwt>
<rscale>  2 0.25406869E+03</rscale>
<asrwt>0</asrwt>
<pdfrwt beam="1">  1       21 0.33463223E-01 0.25412338E+03</pdfrwt>
<pdfrwt beam="2">  1       21 0.77231483E-01 0.25412338E+03</pdfrwt>
<totfact> 0.12343486E+04</totfact>
</mgrwt>
</event>
<event>
12    1  0.1473662E-001  0.1942593E+03  0.7546771E-02  0.1155240E+00
         21   -1    0    0  504  503  0.00000000000E+00  0.00000000000E+00  0.23172235939E+03  0.23172235939E+03  0.00000000000E+00 0.  1.
         21   -1    0    0  502  504 -0.00000000000E+00 -0.00000000000E+00 -0.21878814230E+03  0.21878814230E+03  0.00000000000E+00 0. -1.
          6    2    1    2  502    0 -0.92367230381E+01  0.89459169361E+02 -0.10961676582E+03  0.22082500434E+03  0.16929142672E+03 0.  0.
         24    2    3    3    0    0 -0.67851044289E+02  0.36587857916E+02 -0.44643617692E+02  0.11847944163E+03  0.78114594861E+02 0.  0.
         -6    2    1    2    0  503  0.92367230381E+01 -0.89459169361E+02  0.12255098291E+03  0.22968549735E+03  0.17218717794E+03 0.  0.
        -24    2    5    5    0    0 -0.46926774988E+02 -0.81643560424E+02  0.11677432493E+03  0.17249387182E+03  0.85147517175E+02 0.  0.
          2    1    4    4  501    0 -0.71940151340E+02 -0.98260704805E+00 -0.28612414631E+02  0.77427521996E+02  0.00000000000E+00 0. -1.
         -1    1    4    4    0  501  0.40891070504E+01  0.37570464964E+02 -0.16031203061E+02  0.41051919634E+02  0.00000000000E+00 0.  1.
          5    1    3    3  502    0  0.58614321251E+02  0.52871311445E+02 -0.64973148124E+02  0.10234556271E+03  0.47000000000E+01 0. -1.
         13    1    6    6    0    0  0.46362094026E+01 -0.24604946817E+02 -0.76919460906E+01  0.26192821157E+02  0.00000000000E+00 0. -1.
        -14    1    6    6    0    0 -0.51562984391E+02 -0.57038613607E+02  0.12446627103E+03  0.14630105066E+03  0.00000000000E+00 0.  1.
         -5    1    5    5    0  503  0.56163498026E+02 -0.78156089375E+01  0.57766579732E+01  0.57191625532E+02  0.47000000000E+01 0.  1.
<mgrwt>
<rscale>  2 0.19361562E+03</rscale>
<asrwt>0</asrwt>
<pdfrwt beam="1">  1       21 0.35649594E-01 0.19425932E+03</pdfrwt>
<pdfrwt beam="2">  1       21 0.33659714E-01 0.19425932E+03</pdfrwt>
<totfact> 0.64461192E+04</totfact>
</mgrwt>
</event>
<event>
12    1  0.1473662E-001  0.1794534E+03  0.7546771E-02  0.1168369E+00
         21   -1    0    0  504  503  0.00000000000E+00  0.00000000000E+00  0.12407151376E+04  0.12407151376E+04  0.00000000000E+00 0. -1.
         21   -1    0    0  502  504 -0.00000000000E+00 -0.00000000000E+00 -0.45831102127E+02  0.45831102127E+02  0.00000000000E+00 0. -1.
          6    2    1    2  502    0  0.44054291441E+02 -0.18120940115E+02  0.17373617917E+03  0.24977543894E+03  0.17301549318E+03 0.  0.
         24    2    3    3    0    0  0.75034056901E+02 -0.45303592156E+02  0.17131022853E+03  0.20822284966E+03  0.79542665036E+02 0.  0.
         -6    2    1    2    0  503 -0.44054291441E+02  0.18120940115E+02  0.10211478564E+04  0.10367708008E+04  0.17286295110E+03 0.  0.
        -24    2    5    5    0    0  0.30448690966E+02  0.49049174439E+02  0.62043945560E+03  0.62799633673E+03  0.78111052944E+02 0.  0.
          4    1    4    4  501    0  0.70325360028E+01 -0.43519820567E+02  0.10194605256E+03  0.11106947816E+03  0.00000000000E+00 0. -1.
         -3    1    4    4    0  501  0.68001520898E+02 -0.17837715888E+01  0.69364175974E+02  0.97153371501E+02  0.00000000000E+00 0.  1.
          5    1    3    3  502    0 -0.30979765460E+02  0.27182652041E+02  0.24259506352E+01  0.41552589287E+02  0.47000000000E+01 0. -1.
         13    1    6    6    0    0 -0.20714279665E+02  0.55991745509E+01  0.29089426019E+03  0.29168459464E+03  0.00000000000E+00 0. -1.
        -14    1    6    6    0    0  0.51162970631E+02  0.43449999888E+02  0.32954519541E+03  0.33631174209E+03  0.00000000000E+00 0.  1.
         -5    1    5    5    0  503 -0.74502982407E+02 -0.30928234324E+02  0.40070840076E+03  0.40877446410E+03  0.47000000000E+01 0.  1.
<mgrwt>
<rscale>  2 0.17941659E+03</rscale>
<asrwt>0</asrwt>
<pdfrwt beam="1">  1       21 0.19087923E+00 0.17945336E+03</pdfrwt>
<pdfrwt beam="2">  1       21 0.70509397E-02 0.17945336E+03</pdfrwt>
<totfact> 0.23215139E+04</totfact>
</mgrwt>
</event>
<event>
12    1  0.1473662E-001  0.2732180E+03  0.7546771E-02  0.1099458E+00
         21   -1    0    0  504  503  0.00000000000E+00  0.00000000000E+00  0.28230237304E+03  0.28230237304E+03  0.00000000000E+00 0.  1.
         21   -1    0    0  502  504 -0.00000000000E+00 -0.00000000000E+00 -0.28031916155E+03  0.28031916155E+03  0.00000000000E+00 0. -1.
          6    2    1    2  502    0  0.10218650195E+03 -0.18653243215E+03 -0.66073174129E+02  0.28109382660E+03  0.17149823786E+03 0.  0.
         24    2    3    3    0    0  0.74509903834E+02 -0.20319193658E+02 -0.64298414244E+01  0.10228596361E+03  0.66756872978E+02 0.  0.
         -6    2    1    2    0  503 -0.10218650195E+03  0.18653243215E+03  0.68056385622E+02  0.28152770799E+03  0.17143438780E+03 0.  0.
        -24    2    5    5    0    0 -0.13648501415E+02  0.19817552653E+02  0.10256984222E+02  0.84054445535E+02  0.79880705460E+02 0.  0.
          2    1    4    4  501    0  0.55384613494E+02  0.96792026398E+01 -0.25707300507E+02  0.61822388137E+02  0.00000000000E+00 0. -1.
         -1    1    4    4    0  501  0.19125290340E+02 -0.29998396298E+02  0.19277459083E+02  0.40463575469E+02  0.00000000000E+00 0.  1.
          5    1    3    3  502    0  0.27676598115E+02 -0.16621323849E+03 -0.59643332705E+02  0.17880786299E+03  0.47000000000E+01 0. -1.
         11    1    6    6    0    0  0.20007609783E+02  0.20930943215E+02 -0.22808865773E+02  0.36859913062E+02  0.00000000000E+00 0. -1.
        -12    1    6    6    0    0 -0.33656111197E+02 -0.11133905617E+01  0.33065849995E+02  0.47194532473E+02  0.00000000000E+00 0.  1.
         -5    1    5    5    0  503 -0.88538000534E+02  0.16671487949E+03  0.57799401400E+02  0.19747326246E+03  0.47000000000E+01 0.  1.
<mgrwt>
<rscale>  2 0.27320798E+03</rscale>
<asrwt>0</asrwt>
<pdfrwt beam="1">  1       21 0.43431134E-01 0.27321800E+03</pdfrwt>
<pdfrwt beam="2">  1       21 0.43126025E-01 0.27321800E+03</pdfrwt>
<totfact> 0.25316876E+04</totfact>
</mgrwt>
</event>
<event>
12    1  0.1473662E-001  0.1948781E+03  0.7546771E-02  0.1158005E+00
         21   -1    0    0  504  503  0.00000000000E+00  0.00000000000E+00  0.17470117692E+03  0.17470117692E+03  0.00000000000E+00 0.  1.
         21   -1    0    0  502  504 -0.00000000000E+00 -0.00000000000E+00 -0.31040923926E+03  0.31040923926E+03  0.00000000000E+00 0.  1.
          6    2    1    2  502    0  0.86825281088E+01 -0.45222072207E+02 -0.21114171863E+03  0.27614219411E+03  0.17191062769E+03 0.  0.
         24    2    3    3    0    0 -0.39209328046E+02 -0.56088758839E+02 -0.70258689129E+02  0.12687118968E+03  0.80477916833E+02 0.  0.
         -6    2    1    2    0  503 -0.86825281088E+01  0.45222072207E+02  0.75433656280E+02  0.20896822207E+03  0.18935960294E+03 0.  0.
        -24    2    5    5    0    0  0.46202901095E+02 -0.24967484147E+02  0.65338274362E+01  0.96237300959E+02  0.80379374598E+02 0.  0.
          2    1    4    4  501    0 -0.15806478117E+02 -0.30663681578E+02  0.12890216252E+02  0.36827486928E+02  0.00000000000E+00 0. -1.
         -1    1    4    4    0  501 -0.23402849929E+02 -0.25425077260E+02 -0.83148905381E+02  0.90043702748E+02  0.00000000000E+00 0.  1.
          5    1    3    3  502    0  0.47891856155E+02  0.10866686632E+02 -0.14088302950E+03  0.14927100443E+03  0.47000000000E+01 0. -1.
         13    1    6    6    0    0  0.13167250938E+02  0.26256422945E+02 -0.13153822440E+02  0.32183835817E+02  0.00000000000E+00 0. -1.
        -14    1    6    6    0    0  0.33035650157E+02 -0.51223907092E+02  0.19687649876E+02  0.64053465142E+02  0.00000000000E+00 0.  1.
         -5    1    5    5    0  503 -0.54885429204E+02  0.70189556354E+02  0.68899828844E+02  0.11273092111E+03  0.47000000000E+01 0.  1.
<mgrwt>
<rscale>  2 0.19050643E+03</rscale>
<asrwt>0</asrwt>
<pdfrwt beam="1">  1       21 0.26877104E-01 0.19487812E+03</pdfrwt>
<pdfrwt beam="2">  1       21 0.47755267E-01 0.19487812E+03</pdfrwt>
<totfact> 0.55214504E+04</totfact>
</mgrwt>
</event>
<event>
12    1  0.1473662E-001  0.1874514E+03  0.7546771E-02  0.1163689E+00
         21   -1    0    0  504  503  0.00000000000E+00  0.00000000000E+00  0.24565133010E+03  0.24565133010E+03  0.00000000000E+00 0. -1.
         21   -1    0    0  502  504 -0.00000000000E+00 -0.00000000000E+00 -0.18026738195E+03  0.18026738195E+03  0.00000000000E+00 0. -1.
          6    2    1    2  502    0 -0.34815991999E+02 -0.12818785827E+02 -0.76127582829E+02  0.19104952837E+03  0.17125431047E+03 0.  0.
         24    2    3    3    0    0 -0.59316004963E+02  0.29161620201E+02 -0.36204901891E+01  0.10363114582E+03  0.79734044779E+02 0.  0.
         -6    2    1    2    0  503  0.34815991999E+02  0.12818785827E+02  0.14151153098E+03  0.23486918368E+03  0.18374315082E+03 0.  0.
        -24    2    5    5    0    0  0.24392901217E+01 -0.18532792197E+02  0.16525005854E+03  0.18371471213E+03  0.78064710855E+02 0.  0.
          2    1    4    4  501    0 -0.72084752370E+02  0.43560610158E+02 -0.11855843670E+01  0.84232677103E+02  0.00000000000E+00 0. -1.
         -1    1    4    4    0  501  0.12768747407E+02 -0.14398989957E+02 -0.24349058221E+01  0.19398468715E+02  0.00000000000E+00 0.  1.
          5    1    3    3  502    0  0.24500012964E+02 -0.41980406028E+02 -0.72507092640E+02  0.87418382556E+02  0.47000000000E+01 0. -1.
         13    1    6    6    0    0  0.24844864779E+02  0.22418398049E+02  0.74147030096E+02  0.81348841105E+02  0.00000000000E+00 0. -1.
        -14    1    6    6    0    0 -0.22405574657E+02 -0.40951190246E+02  0.91103028447E+02  0.10236587102E+03  0.00000000000E+00 0.  1.
         -5    1    5    5    0  503  0.32376701878E+02  0.31351578025E+02 -0.23738527562E+02  0.51154471553E+02  0.47000000000E+01 0.  1.
<mgrwt>
<rscale>  2 0.18431758E+03</rscale>
<asrwt>0</asrwt>
<pdfrwt beam="1">  1       21 0.37792513E-01 0.18745138E+03</pdfrwt>
<pdfrwt beam="2">  1       21 0.27733443E-01 0.18745138E+03</pdfrwt>
<totfact> 0.83975995E+04</totfact>
</mgrwt>
</event>
<event>
12    1  0.1473662E-001  0.1828121E+03  0.7546771E-02  0.1165341E+00
         21   -1    0    0  504  503  0.00000000000E+00  0.00000000000E+00  0.90741704140E+03  0.90741704140E+03  0.00000000000E+00 0. -1.
         21   -1    0    0  502  504 -0.00000000000E+00 -0.00000000000E+00 -0.53088855872E+02  0.53088855872E+02  0.00000000000E+00 0. -1.
          6    2    1    2  502    0 -0.15807873070E+02 -0.53228549862E+02  0.15899943477E+03  0.24154669328E+03  0.17314969652E+03 0.  0.
         24    2    3    3    0    0  0.32157213698E+02 -0.55198097648E+02  0.16427032185E+03  0.19302452394E+03  0.78694420546E+02 0.  0.
         -6    2    1    2    0  503  0.15807873070E+02  0.53228549862E+02  0.69532875076E+03  0.71895920400E+03  0.17417548048E+03 0.  0.
        -24    2    5    5    0    0  0.38235676755E+02 -0.17044829294E+02  0.53354111406E+03  0.54108654284E+03  0.79724734357E+02 0.  0.
          4    1    4    4  501    0  0.31539871459E+02  0.93502027568E+01  0.82698648190E+02  0.89001439290E+02  0.00000000000E+00 0. -1.
         -3    1    4    4    0  501  0.61734223910E+00 -0.64548300404E+02  0.81571673658E+02  0.10402308465E+03  0.00000000000E+00 0.  1.
          5    1    3    3  502    0 -0.47965086767E+02  0.19695477853E+01 -0.52708870786E+01  0.48522169342E+02  0.47000000000E+01 0. -1.
         11    1    6    6    0    0  0.41759217486E+02  0.22922287917E+02  0.34886097057E+03  0.35209833899E+03  0.00000000000E+00 0. -1.
        -12    1    6    6    0    0 -0.35235407310E+01 -0.39967117210E+02  0.18468014349E+03  0.18898820385E+03  0.00000000000E+00 0.  1.
         -5    1    5    5    0  503 -0.22427803685E+02  0.70273379156E+02  0.16178763671E+03  0.17787266116E+03  0.47000000000E+01 0.  1.
<mgrwt>
<rscale>  2 0.18256735E+03</rscale>
<asrwt>0</asrwt>
<pdfrwt beam="1">  1       21 0.13960261E+00 0.18281210E+03</pdfrwt>
<pdfrwt beam="2">  1       21 0.81675169E-02 0.18281210E+03</pdfrwt>
<totfact> 0.41955959E+04</totfact>
</mgrwt>
</event>
<event>
12    1  0.1473662E-001  0.2012652E+03  0.7546771E-02  0.1149235E+00
         21   -1    0    0  504  503  0.00000000000E+00  0.00000000000E+00  0.51107455026E+03  0.51107455026E+03  0.00000000000E+00 0. -1.
         21   -1    0    0  502  504 -0.00000000000E+00 -0.00000000000E+00 -0.11910974144E+03  0.11910974144E+03  0.00000000000E+00 0. -1.
          6    2    1    2  502    0  0.28550610611E+02  0.97820564832E+02  0.10509112667E+02  0.19888842796E+03  0.17047628884E+03 0.  0.
         24    2    3    3    0    0  0.42452741008E+02  0.84101122106E+02  0.65991892824E+02  0.13988062142E+03  0.79601660607E+02 0.  0.
         -6    2    1    2    0  503 -0.28550610611E+02 -0.97820564832E+02  0.38145569615E+03  0.43129586374E+03  0.17356172874E+03 0.  0.
        -24    2    5    5    0    0 -0.32622809790E+02 -0.40092206383E+02  0.35373496558E+03  0.36695555695E+03  0.82802911580E+02 0.  0.
          4    1    4    4  501    0  0.56685231775E+02  0.78600624773E+02  0.74658964762E+02  0.12233247621E+03  0.00000000000E+00 0. -1.
         -3    1    4    4    0  501 -0.14232490767E+02  0.55004973333E+01 -0.86670719374E+01  0.17548145210E+02  0.00000000000E+00 0.  1.
          5    1    3    3  502    0 -0.13902130397E+02  0.13719442726E+02 -0.55482780158E+02  0.59007806537E+02  0.47000000000E+01 0. -1.
         13    1    6    6    0    0 -0.49395668990E+02  0.34062471176E+01  0.21382424401E+03  0.21948198550E+03  0.00000000000E+00 0. -1.
        -14    1    6    6    0    0  0.16772859200E+02 -0.43498453501E+02  0.13991072158E+03  0.14747357144E+03  0.00000000000E+00 0.  1.
         -5    1    5    5    0  503  0.40721991795E+01 -0.57728358449E+02  0.27720730572E+02  0.64340306797E+02  0.47000000000E+01 0.  1.
<mgrwt>
<rscale>  2 0.20059823E+03</rscale>
<asrwt>0</asrwt>
<pdfrwt beam="1">  1       21 0.78626853E-01 0.20126518E+03</pdfrwt>
<pdfrwt beam="2">  1       21 0.18324576E-01 0.20126518E+03</pdfrwt>
<totfact> 0.38669356E+04</totfact>
</mgrwt>
</event>
<event>
12    1  0.1473662E-001  0.1839720E+03  0.7546771E-02  0.1164077E+00
         21   -1    0    0  504  503  0.00000000000E+00  0.00000000000E+00  0.23216636620E+03  0.23216636620E+03  0.00000000000E+00 0.  1.
         21   -1    0    0  502  504 -0.00000000000E+00 -0.00000000000E+00 -0.14866831375E+03  0.14866831375E+03  0.00000000000E+00 0.  1.
          6    2    1    2  502    0  0.21019332260E+01  0.64047616610E+02  0.14217519651E+02  0.18425015001E+03  0.17216115880E+03 0.  0.
         24    2    3    3    0    0 -0.30882990780E+02  0.10078704846E+03  0.25161772441E+02  0.13345981891E+03  0.77888511436E+02 0.  0.
         -6    2    1    2    0  503 -0.21019332260E+01 -0.64047616610E+02  0.69280532806E+02  0.19658452993E+03  0.17245048526E+03 0.  0.
        -24    2    5    5    0    0  0.51932887174E+02 -0.28433502281E+02 -0.23295972255E+01  0.99950024303E+02  0.80492804106E+02 0.  0.
          4    1    4    4  501    0  0.10777689144E+02  0.67367831444E+02  0.38599481967E+02  0.78386882224E+02  0.00000000000E+00 0. -1.
         -3    1    4    4    0  501 -0.41660679924E+02  0.33419217019E+02 -0.13437709526E+02  0.55072936685E+02  0.00000000000E+00 0.  1.
          5    1    3    3  502    0  0.32984924006E+02 -0.36739431852E+02 -0.10944252791E+02  0.50790331104E+02  0.47000000000E+01 0. -1.
         11    1    6    6    0    0 -0.19092712860E+02  0.47402838349E+01  0.72717143489E+01  0.20973311726E+02  0.00000000000E+00 0. -1.
        -12    1    6    6    0    0  0.71025600035E+02 -0.33173786116E+02 -0.96013115743E+01  0.78976712577E+02  0.00000000000E+00 0.  1.
         -5    1    5    5    0  503 -0.54034820400E+02 -0.35614114330E+02  0.71610130031E+02  0.96634505629E+02  0.47000000000E+01 0.  1.
<mgrwt>
<rscale>  2 0.18390414E+03</rscale>
<asrwt>0</asrwt>
<pdfrwt beam="1">  1       21 0.35717902E-01 0.18397197E+03</pdfrwt>
<pdfrwt beam="2">  1       21 0.22872048E-01 0.18397197E+03</pdfrwt>
<totfact> 0.13596229E+05</totfact>
</mgrwt>
</event>
<event>
12    1  0.1473662E-001  0.2089520E+03  0.7546771E-02  0.1142684E+00
         21   -1    0    0  504  503  0.00000000000E+00  0.00000000000E+00  0.64853164294E+02  0.64853164294E+02  0.00000000000E+00 0. -1.
         21   -1    0    0  502  504 -0.00000000000E+00 -0.00000000000E+00 -0.10895865653E+04  0.10895865653E+04  0.00000000000E+00 0. -1.
          6    2    1    2  502    0 -0.28923345730E+02 -0.11327703930E+03 -0.87006483448E+03  0.89447182463E+03  0.17146072815E+03 0.  0.
         24    2    3    3    0    0 -0.38014442625E+02 -0.93956133374E+02 -0.28467399310E+03  0.30867282103E+03  0.62982340766E+02 0.  0.
         -6    2    1    2    0  503  0.28923345730E+02  0.11327703930E+03 -0.15466856656E+03  0.25996790500E+03  0.17318400211E+03 0.  0.
        -24    2    5    5    0    0  0.34498576462E+01  0.12478761184E+03 -0.58142676271E+02  0.15936606917E+03  0.80206755403E+02 0.  0.
          4    1    4    4  501    0 -0.50229839608E+02 -0.45732710752E+02 -0.18902821459E+03  0.20086359434E+03  0.00000000000E+00 0. -1.
         -3    1    4    4    0  501  0.12215396983E+02 -0.48223422622E+02 -0.95645778509E+02  0.10780922669E+03  0.00000000000E+00 0.  1.
          5    1    3    3  502    0  0.90910968946E+01 -0.19320905926E+02 -0.58539084137E+03  0.58579900359E+03  0.47000000000E+01 0. -1.
         11    1    6    6    0    0  0.28263955795E+02  0.11900083207E+03 -0.53346196323E+02  0.13343862219E+03  0.00000000000E+00 0. -1.
        -12    1    6    6    0    0 -0.24814098149E+02  0.57867797759E+01 -0.47964799478E+01  0.25927446982E+02  0.00000000000E+00 0.  1.
         -5    1    5    5    0  503  0.25473488084E+02 -0.11510572542E+02 -0.96525890289E+02  0.10060183583E+03  0.47000000000E+01 0.  1.
<mgrwt>
<rscale>  2 0.20859459E+03</rscale>
<asrwt>0</asrwt>
<pdfrwt beam="1">  1       21 0.99774105E-02 0.20895202E+03</pdfrwt>
<pdfrwt beam="2">  1       21 0.16762869E+00 0.20895202E+03</pdfrwt>
<totfact> 0.17860810E+04</totfact>
</mgrwt>
</event>
<event>
12    1  0.1473662E-001  0.2089766E+03  0.7546771E-02  0.1142459E+00
         21   -1    0    0  504  503  0.00000000000E+00  0.00000000000E+00  0.28154349948E+03  0.28154349948E+03  0.00000000000E+00 0.  1.
         21   -1    0    0  502  504 -0.00000000000E+00 -0.00000000000E+00 -0.15935913242E+03  0.15935913242E+03  0.00000000000E+00 0.  1.
          6    2    1    2  502    0  0.89936432005E+02 -0.75876608627E+02  0.98251599950E+02  0.23056008762E+03  0.17221717560E+03 0.  0.
         24    2    3    3    0    0  0.35234411973E+02  0.16768060260E+02  0.64413671801E+01  0.89044878151E+02  0.79780119591E+02 0.  0.
         -6    2    1    2    0  503 -0.89936432005E+02  0.75876608627E+02  0.23932767115E+02  0.21034254429E+03  0.17270028100E+03 0.  0.
        -24    2    5    5    0    0  0.18533589428E+01  0.84788062734E+02  0.80260233275E+01  0.11664145446E+03  0.79676604638E+02 0.  0.
          2    1    4    4  501    0  0.31972739075E+02  0.44694422854E+02  0.19144138942E+02  0.58192315077E+02  0.00000000000E+00 0. -1.
         -1    1    4    4    0  501  0.32616728977E+01 -0.27926362594E+02 -0.12702771762E+02  0.30852563074E+02  0.00000000000E+00 0.  1.
          5    1    3    3  502    0  0.54702020032E+02 -0.92644668886E+02  0.91810232770E+02  0.14151520946E+03  0.47000000000E+01 0. -1.
         13    1    6    6    0    0  0.95210789623E+01  0.23150005383E+02  0.39689228101E+02  0.46923432537E+02  0.00000000000E+00 0. -1.
        -14    1    6    6    0    0 -0.76677200194E+01  0.61638057351E+02 -0.31663204774E+02  0.69718021923E+02  0.00000000000E+00 0.  1.
         -5    1    5    5    0  503 -0.91789790948E+02 -0.89114541076E+01  0.15906743787E+02  0.93701089826E+02  0.47000000000E+01 0.  1.
<mgrwt>
<rscale>  2 0.20887674E+03</rscale>
<asrwt>0</asrwt>
<pdfrwt beam="1">  1       21 0.43314384E-01 0.20897657E+03</pdfrwt>
<pdfrwt beam="2">  1       21 0.24516790E-01 0.20897657E+03</pdfrwt>
<totfact> 0.79996014E+04</totfact>
</mgrwt>
</event>
<event>
12    1  0.1473662E-001  0.2856143E+03  0.7546771E-02  0.1092708E+00
         21   -1    0    0  504  503  0.00000000000E+00  0.00000000000E+00  0.38875223496E+03  0.38875223496E+03  0.00000000000E+00 0. -1.
         21   -1    0    0  502  504 -0.00000000000E+00 -0.00000000000E+00 -0.22334465668E+03  0.22334465668E+03  0.00000000000E+00 0.  1.
          6    2    1    2  502    0  0.12637891777E+02 -0.22639386950E+03  0.15872408555E+03  0.32675503720E+03  0.17367100663E+03 0.  0.
         24    2    3    3    0    0 -0.15002850636E+02 -0.17401152205E+03  0.18010651932E+03  0.26361060404E+03  0.80914133035E+02 0.  0.
         -6    2    1    2    0  503 -0.12637891777E+02  0.22639386950E+03  0.66834927282E+01  0.28534185443E+03  0.17309362888E+03 0.  0.
        -24    2    5    5    0    0  0.58931252314E+02  0.10671890809E+03  0.67586630736E+00  0.14569078802E+03  0.79771743592E+02 0.  0.
          4    1    4    4  501    0 -0.36968950871E+02 -0.11683056963E+03  0.15455692218E+03  0.19724078565E+03  0.00000000000E+00 0. -1.
         -3    1    4    4    0  501  0.21966100235E+02 -0.57180952420E+02  0.25549597145E+02  0.66369818392E+02  0.00000000000E+00 0.  1.
          5    1    3    3  502    0  0.27640742412E+02 -0.52382347453E+02 -0.21382433771E+02  0.63144433165E+02  0.47000000000E+01 0. -1.
         13    1    6    6    0    0  0.66198617498E+02  0.91641387126E+02  0.25366816529E+02  0.11586145249E+03  0.00000000000E+00 0. -1.
        -14    1    6    6    0    0 -0.72673651843E+01  0.15077520961E+02 -0.24690950221E+02  0.29829335526E+02  0.00000000000E+00 0.  1.
         -5    1    5    5    0  503 -0.71569144090E+02  0.11967496142E+03  0.60076264209E+01  0.13965106642E+03  0.47000000000E+01 0.  1.
<mgrwt>
<rscale>  2 0.28552657E+03</rscale>
<asrwt>0</asrwt>
<pdfrwt beam="1">  1       21 0.59808036E-01 0.28561428E+03</pdfrwt>
<pdfrwt beam="2">  1       21 0.34360716E-01 0.28561428E+03</pdfrwt>
<totfact> 0.20316967E+04</totfact>
</mgrwt>
</event>
<event>
12    1  0.1473662E-001  0.1791082E+03  0.7546771E-02  0.1168727E+00
         21   -1    0    0  504  503  0.00000000000E+00  0.00000000000E+00  0.11377356388E+03  0.11377356388E+03  0.00000000000E+00 0.  1.
         21   -1    0    0  502  504 -0.00000000000E+00 -0.00000000000E+00 -0.82016843710E+03  0.82016843710E+03  0.00000000000E+00 0.  1.
          6    2    1    2  502    0 -0.39348266536E+02 -0.22117522367E+02 -0.73169077973E+03  0.75329352862E+03  0.17332706727E+03 0.  0.
         24    2    3    3    0    0 -0.36117929163E+02 -0.80528452285E+02 -0.52294510497E+03  0.53645460559E+03  0.80762767445E+02 0.  0.
         -6    2    1    2    0  503  0.39348266536E+02  0.22117522367E+02  0.25295906505E+02  0.18064847237E+03  0.17307951007E+03 0.  0.
        -24    2    5    5    0    0 -0.26379661370E+02 -0.28694224906E+02 -0.91314645679E+01  0.90596664796E+02  0.81271932117E+02 0.  0.
          2    1    4    4  501    0 -0.20512477073E+02 -0.82014917341E+02 -0.26777864706E+03  0.28080707292E+03  0.00000000000E+00 0. -1.
         -1    1    4    4    0  501 -0.15605452089E+02  0.14864650558E+01 -0.25516645791E+03  0.25564753266E+03  0.00000000000E+00 0.  1.
          5    1    3    3  502    0 -0.32303373729E+01  0.58410929918E+02 -0.20874567475E+03  0.21683892303E+03  0.47000000000E+01 0. -1.
         11    1    6    6    0    0  0.28221742563E+01 -0.33475087194E+02 -0.36981216524E+02  0.49961550274E+02  0.00000000000E+00 0. -1.
        -12    1    6    6    0    0 -0.29201835627E+02  0.47808622880E+01  0.27849751956E+02  0.40635114522E+02  0.00000000000E+00 0.  1.
         -5    1    5    5    0  503  0.65727927906E+02  0.50811747273E+02  0.34427371072E+02  0.90051807570E+02  0.47000000000E+01 0.  1.
<mgrwt>
<rscale>  2 0.17904827E+03</rscale>
<asrwt>0</asrwt>
<pdfrwt beam="1">  1       21 0.17503626E-01 0.17910819E+03</pdfrwt>
<pdfrwt beam="2">  1       21 0.12617976E+00 0.17910819E+03</pdfrwt>
<totfact> 0.13904686E+04</totfact>
</mgrwt>
</event>
<event>
12    1  0.1473662E-001  0.2114415E+03  0.7546771E-02  0.1140570E+00
         21   -1    0    0  504  503  0.00000000000E+00  0.00000000000E+00  0.78514505560E+03  0.78514505560E+03  0.00000000000E+00 0. -1.
         21   -1    0    0  502  504 -0.00000000000E+00 -0.00000000000E+00 -0.82102169581E+02  0.82102169581E+02  0.00000000000E+00 0. -1.
          6    2    1    2  502    0 -0.52102755114E+02 -0.10927665497E+03  0.59207110164E+03  0.62845395845E+03  0.17248218481E+03 0.  0.
         24    2    3    3    0    0 -0.97845860536E+02 -0.65081145195E+02  0.30550868893E+03  0.33487980911E+03  0.70707564349E+02 0.  0.
         -6    2    1    2    0  503  0.52102755114E+02  0.10927665497E+03  0.11097178438E+03  0.23879326673E+03  0.17335340463E+03 0.  0.
        -24    2    5    5    0    0  0.22161171900E+01  0.59716335486E+02 -0.80876132335E+01  0.10043817261E+03  0.80321013005E+02 0.  0.
          4    1    4    4  501    0 -0.43087749449E+02  0.99156660831E+01  0.10366247227E+03  0.11269774950E+03  0.00000000000E+00 0. -1.
         -3    1    4    4    0  501 -0.54758111087E+02 -0.74996811278E+02  0.20184621666E+03  0.22218205961E+03  0.00000000000E+00 0.  1.
          5    1    3    3  502    0  0.45743105422E+02 -0.44195509773E+02  0.28656241271E+03  0.29357414934E+03  0.47000000000E+01 0. -1.
         13    1    6    6    0    0 -0.47084906822E+01 -0.83461132425E+01 -0.27665583944E+02  0.29278183443E+02  0.00000000000E+00 0. -1.
        -14    1    6    6    0    0  0.69246078722E+01  0.68062448728E+02  0.19577970711E+02  0.71159989167E+02  0.00000000000E+00 0.  1.
         -5    1    5    5    0  503  0.49886637924E+02  0.49560319482E+02  0.11905939761E+03  0.13835509412E+03  0.47000000000E+01 0.  1.
<mgrwt>
<rscale>  2 0.21126280E+03</rscale>
<asrwt>0</asrwt>
<pdfrwt beam="1">  1       21 0.12079154E+00 0.21144145E+03</pdfrwt>
<pdfrwt beam="2">  1       21 0.12631104E-01 0.21144145E+03</pdfrwt>
<totfact> 0.27503808E+04</totfact>
</mgrwt>
</event>
<event>
12    1  0.1473662E-001  0.2785696E+03  0.7546771E-02  0.1096699E+00
         21   -1    0    0  504  503  0.00000000000E+00  0.00000000000E+00  0.32980170890E+03  0.32980170890E+03  0.00000000000E+00 0.  1.
         21   -1    0    0  502  504 -0.00000000000E+00 -0.00000000000E+00 -0.25537387729E+03  0.25537387729E+03  0.00000000000E+00 0. -1.
          6    2    1    2  502    0 -0.19120200381E+03  0.10235051146E+03  0.12193826413E+03  0.30258354379E+03  0.17220344728E+03 0.  0.
         24    2    3    3    0    0 -0.13876037702E+03  0.12022306782E+03  0.13902723268E+03  0.24441417610E+03  0.81863849076E+02 0.  0.
         -6    2    1    2    0  503  0.19120200381E+03 -0.10235051146E+03 -0.47510432523E+02  0.28259204239E+03  0.17483474416E+03 0.  0.
        -24    2    5    5    0    0  0.21513464549E+03 -0.74739772709E+02 -0.37741141319E+02  0.24447835348E+03  0.80475600390E+02 0.  0.
          4    1    4    4  501    0 -0.65441247434E+02  0.96951305118E+02  0.51264404368E+02  0.12771120384E+03  0.00000000000E+00 0. -1.
         -3    1    4    4    0  501 -0.73319129587E+02  0.23271762703E+02  0.87762828309E+02  0.11670297226E+03  0.00000000000E+00 0.  1.
          5    1    3    3  502    0 -0.52441626794E+02 -0.17872556363E+02 -0.17088968547E+02  0.58169367692E+02  0.47000000000E+01 0. -1.
         11    1    6    6    0    0  0.79073755236E+02 -0.19166133533E+02 -0.52399237180E+02  0.96776440825E+02  0.00000000000E+00 0. -1.
        -12    1    6    6    0    0  0.13606089025E+03 -0.55573639176E+02  0.14658095861E+02  0.14770191265E+03  0.00000000000E+00 0.  1.
         -5    1    5    5    0  503 -0.23932641673E+02 -0.27610738749E+02 -0.97692912041E+01  0.38113688911E+02  0.47000000000E+01 0.  1.
<mgrwt>
<rscale>  2 0.27815772E+03</rscale>
<asrwt>0</asrwt>
<pdfrwt beam="1">  1       21 0.50738724E-01 0.27856960E+03</pdfrwt>
<pdfrwt beam="2">  1       21 0.39288289E-01 0.27856960E+03</pdfrwt>
<totfact> 0.22104129E+04</totfact>
</mgrwt>
</event>
<event>
12    1  0.1473662E-001  0.2129723E+03  0.7546771E-02  0.1139592E+00
         21   -1    0    0  504  503  0.00000000000E+00  0.00000000000E+00  0.12260101268E+03  0.12260101268E+03  0.00000000000E+00 0. -1.
         21   -1    0    0  502  504 -0.00000000000E+00 -0.00000000000E+00 -0.11958094492E+04  0.11958094492E+04  0.00000000000E+00 0. -1.
          6    2    1    2  502    0  0.11150199402E+03  0.51506980115E+02 -0.10847677679E+04  0.11051246887E+04  0.17173760100E+03 0.  0.
         24    2    3    3    0    0  0.11795140711E+03  0.90932339737E+02 -0.93364732383E+03  0.94874236064E+03  0.78952623281E+02 0.  0.
         -6    2    1    2    0  503 -0.11150199402E+03 -0.51506980115E+02  0.11559331430E+02  0.21328577315E+03  0.17398718117E+03 0.  0.
        -24    2    5    5    0    0 -0.95410270192E+02  0.24422871573E+02 -0.21127309132E+02  0.12893654420E+03  0.80490203903E+02 0.  0.
          4    1    4    4  501    0  0.83640862683E+02  0.32885432349E+02 -0.69380785548E+03  0.69960459254E+03  0.00000000000E+00 0. -1.
         -3    1    4    4    0  501  0.34310544425E+02  0.58046907388E+02 -0.23983946835E+03  0.24913776810E+03  0.00000000000E+00 0.  1.
          5    1    3    3  502    0 -0.64494130839E+01 -0.39425359622E+02 -0.15112044412E+03  0.15638232810E+03  0.47000000000E+01 0. -1.
         13    1    6    6    0    0  0.84810562734E+01  0.14726616985E+02 -0.17699844244E+02  0.24537441791E+02  0.00000000000E+00 0. -1.
        -14    1    6    6    0    0 -0.10389132647E+03  0.96962545873E+01 -0.34274648881E+01  0.10439910241E+03  0.00000000000E+00 0.  1.
         -5    1    5    5    0  503 -0.16091723832E+02 -0.75929851688E+02  0.32686640563E+02  0.84349228950E+02  0.47000000000E+01 0.  1.
<mgrwt>
<rscale>  2 0.21251237E+03</rscale>
<asrwt>0</asrwt>
<pdfrwt beam="1">  1       21 0.18861694E-01 0.21297231E+03</pdfrwt>
<pdfrwt beam="2">  1       21 0.18397068E+00 0.21297231E+03</pdfrwt>
<totfact> 0.43250667E+03</totfact>
</mgrwt>
</event>
<event>
12    1  0.1473662E-001  0.2111211E+03  0.7546771E-02  0.1140782E+00
         21   -1    0    0  504  503  0.00000000000E+00  0.00000000000E+00  0.36338044134E+03  0.36338044134E+03  0.00000000000E+00 0.  1.
         21   -1    0    0  502  504 -0.00000000000E+00 -0.00000000000E+00 -0.18616778103E+03  0.18616778103E+03  0.00000000000E+00 0.  1.
          6    2    1    2  502    0  0.11922710573E+03  0.17193135111E+02 -0.72324836443E+02  0.22268265435E+03  0.17275987945E+03 0.  0.
         24    2    3    3    0    0  0.97290398201E+02 -0.31255704309E+02  0.29218208893E+00  0.13255035959E+03  0.84422578869E+02 0.  0.
         -6    2    1    2    0  503 -0.11922710573E+03 -0.17193135111E+02  0.24953749675E+03  0.32686556801E+03  0.17338232503E+03 0.  0.
        -24    2    5    5    0    0 -0.40212046814E+02 -0.32558349487E+02  0.41803700003E+02  0.10403179665E+03  0.79987564972E+02 0.  0.
          2    1    4    4  501    0  0.21481939427E+02 -0.39476687098E+02  0.26192792086E+02  0.52018697629E+02  0.00000000000E+00 0. -1.
         -1    1    4    4    0  501  0.75808458774E+02  0.82209827891E+01 -0.25900609997E+02  0.80531661959E+02  0.00000000000E+00 0.  1.
          5    1    3    3  502    0  0.21936707525E+02  0.48448839420E+02 -0.72617018531E+02  0.90132294759E+02  0.47000000000E+01 0. -1.
         11    1    6    6    0    0 -0.60373712669E+02 -0.13624945373E+02  0.44519905561E+02  0.76240712937E+02  0.00000000000E+00 0. -1.
        -12    1    6    6    0    0  0.20161665855E+02 -0.18933404114E+02 -0.27162055584E+01  0.27791083714E+02  0.00000000000E+00 0.  1.
         -5    1    5    5    0  503 -0.79015058911E+02  0.15365214377E+02  0.20773379675E+03  0.22283377136E+03  0.47000000000E+01 0.  1.
<mgrwt>
<rscale>  2 0.21099331E+03</rscale>
<asrwt>0</asrwt>
<pdfrwt beam="1">  1       21 0.55904683E-01 0.21112114E+03</pdfrwt>
<pdfrwt beam="2">  1       21 0.28641197E-01 0.21112114E+03</pdfrwt>
<totfact> 0.34796436E+04</totfact>
</mgrwt>
</event>
<event>
12    1  0.1473662E-001  0.1873832E+03  0.7546771E-02  0.1161347E+00
         21   -1    0    0  504  503  0.00000000000E+00  0.00000000000E+00  0.37592067519E+03  0.37592067519E+03  0.00000000000E+00 0. -1.
         21   -1    0    0  502  504 -0.00000000000E+00 -0.00000000000E+00 -0.15565288106E+03  0.15565288106E+03  0.00000000000E+00 0. -1.
          6    2    1    2  502    0  0.68078482521E+02 -0.38205665767E+01 -0.59788304547E+02  0.19461080913E+03  0.17219015407E+03 0.  0.
         24    2    3    3    0    0  0.80067673016E+02  0.50791375791E+02 -0.60339314019E+02  0.13849843483E+03  0.80934464338E+02 0.  0.
         -6    2    1    2    0  503 -0.68078482521E+02  0.38205665767E+01  0.28005609868E+03  0.33696274712E+03  0.17453709641E+03 0.  0.
        -24    2    5    5    0    0 -0.10394561221E+03 -0.19007727235E+02  0.25594937634E+03  0.28786278732E+03  0.78669670667E+02 0.  0.
          4    1    4    4  501    0  0.79447843466E+02  0.25594768102E+02 -0.72458547545E+02  0.11053186463E+03  0.00000000000E+00 0. -1.
         -3    1    4    4    0  501  0.61982955003E+00  0.25196607690E+02  0.12119233527E+02  0.27966570205E+02  0.00000000000E+00 0.  1.
          5    1    3    3  502    0 -0.11989190495E+02 -0.54611942368E+02  0.55100947166E+00  0.56112374298E+02  0.47000000000E+01 0. -1.
         13    1    6    6    0    0 -0.12279014574E+01  0.34157884387E+00  0.10068741578E+03  0.10069548210E+03  0.00000000000E+00 0. -1.
        -14    1    6    6    0    0 -0.10271771075E+03 -0.19349306079E+02  0.15526196055E+03  0.18716730521E+03  0.00000000000E+00 0.  1.
         -5    1    5    5    0  503  0.35867129685E+02  0.22828293812E+02  0.24106722347E+02  0.49099959802E+02  0.47000000000E+01 0.  1.
<mgrwt>
<rscale>  2 0.18683481E+03</rscale>
<asrwt>0</asrwt>
<pdfrwt beam="1">  1       21 0.57833950E-01 0.18738323E+03</pdfrwt>
<pdfrwt beam="2">  1       21 0.23946597E-01 0.18738323E+03</pdfrwt>
<totfact> 0.46208573E+04</totfact>
</mgrwt>
</event>
<event>
12    1  0.1473662E-001  0.2041450E+03  0.7546771E-02  0.1146305E+00
         21   -1    0    0  504  503  0.00000000000E+00  0.00000000000E+00  0.36226565938E+03  0.36226565938E+03  0.00000000000E+00 0.  1.
         21   -1    0    0  502  504 -0.00000000000E+00 -0.00000000000E+00 -0.12856022841E+03  0.12856022841E+03  0.00000000000E+00 0. -1.
          6    2    1    2  502    0 -0.80350018737E+02  0.73183717549E+02  0.19655342501E+03  0.28332776320E+03  0.17271187131E+03 0.  0.
         24    2    3    3    0    0 -0.22911876102E+02 -0.73200397997E+01  0.15301494499E+03  0.17517192925E+03  0.81811333909E+02 0.  0.
         -6    2    1    2    0  503  0.80350018737E+02 -0.73183717549E+02  0.37152005961E+02  0.20749812458E+03  0.17280977441E+03 0.  0.
        -24    2    5    5    0    0  0.53363238375E+02  0.25486712237E+02  0.28898346555E+02  0.10476374415E+03  0.81505336907E+02 0.  0.
          4    1    4    4  501    0 -0.17340797449E+02 -0.26710232274E+02  0.15164291356E+03  0.15495067924E+03  0.00000000000E+00 0. -1.
         -3    1    4    4    0  501 -0.55710786525E+01  0.19390192474E+02  0.13720314315E+01  0.20221250006E+02  0.00000000000E+00 0.  1.
          5    1    3    3  502    0 -0.57438142635E+02  0.80503757349E+02  0.43538480021E+02  0.10815583396E+03  0.47000000000E+01 0. -1.
         11    1    6    6    0    0  0.21179991502E+02 -0.13509800156E+02 -0.21726753415E+02  0.33213830768E+02  0.00000000000E+00 0. -1.
        -12    1    6    6    0    0  0.32183246873E+02  0.38996512393E+02  0.50625099970E+02  0.71549913383E+02  0.00000000000E+00 0.  1.
         -5    1    5    5    0  503  0.26986780362E+02 -0.98670429786E+02  0.82536594063E+01  0.10273438043E+03  0.47000000000E+01 0.  1.
<mgrwt>
<rscale>  2 0.20412433E+03</rscale>
<asrwt>0</asrwt>
<pdfrwt beam="1">  1       21 0.55733178E-01 0.20414505E+03</pdfrwt>
<pdfrwt beam="2">  1       21 0.19778497E-01 0.20414505E+03</pdfrwt>
<totfact> 0.71113333E+04</totfact>
</mgrwt>
</event>
<event>
12    1  0.1473662E-001  0.1979746E+03  0.7546771E-02  0.1152881E+00
         21   -1    0    0  504  503  0.00000000000E+00  0.00000000000E+00  0.97246230930E+03  0.97246230930E+03  0.00000000000E+00 0. -1.
         21   -1    0    0  502  504 -0.00000000000E+00 -0.00000000000E+00 -0.49577013376E+02  0.49577013376E+02  0.00000000000E+00 0.  1.
          6    2    1    2  502    0 -0.66089935181E+01 -0.97527345582E+02  0.21917611554E+03  0.29101226680E+03  0.16460470186E+03 0.  0.
         24    2    3    3    0    0 -0.59134151788E+02 -0.96073030106E+02  0.14564882641E+03  0.20051718665E+03  0.79162405762E+02 0.  0.
         -6    2    1    2    0  503  0.66089935181E+01  0.97527345582E+02  0.70370918038E+03  0.73102705587E+03  0.17215889153E+03 0.  0.
        -24    2    5    5    0    0 -0.26997003888E+02  0.69821326141E+02  0.66069632707E+03  0.66963339069E+03  0.79280423270E+02 0.  0.
          2    1    4    4  501    0 -0.39428603987E+02 -0.57475419208E+01  0.72109108956E+02  0.82385512348E+02  0.00000000000E+00 0. -1.
         -1    1    4    4    0  501 -0.19705547801E+02 -0.90325488185E+02  0.73539717451E+02  0.11813167430E+03  0.00000000000E+00 0.  1.
          5    1    3    3  502    0  0.52525158270E+02 -0.14543154761E+01  0.73527289136E+02  0.90495080156E+02  0.47000000000E+01 0. -1.
         13    1    6    6    0    0  0.23096761653E+02  0.30866888294E+01  0.95010139472E+02  0.97825940574E+02  0.00000000000E+00 0. -1.
        -14    1    6    6    0    0 -0.50093765541E+02  0.66734637312E+02  0.56568618760E+03  0.57180745011E+03  0.00000000000E+00 0.  1.
         -5    1    5    5    0  503  0.33605997406E+02  0.27706019441E+02  0.43012853310E+02  0.61393665184E+02  0.47000000000E+01 0.  1.
<mgrwt>
<rscale>  2 0.19632080E+03</rscale>
<asrwt>0</asrwt>
<pdfrwt beam="1">  1       21 0.14960957E+00 0.19797461E+03</pdfrwt>
<pdfrwt beam="2">  1       21 0.76272336E-02 0.19797461E+03</pdfrwt>
<totfact> 0.39114531E+04</totfact>
</mgrwt>
</event>
<event>
12    1  0.1473662E-001  0.2564356E+03  0.7546771E-02  0.1109361E+00
         21   -1    0    0  504  503  0.00000000000E+00  0.00000000000E+00  0.19313348946E+03  0.19313348946E+03  0.00000000000E+00 0. -1.
         21   -1    0    0  502  504 -0.00000000000E+00 -0.00000000000E+00 -0.36269459641E+03  0.36269459641E+03  0.00000000000E+00 0. -1.
          6    2    1    2  502    0  0.17229574220E+03 -0.78481765701E+02 -0.15425297751E+03  0.29893595203E+03  0.17240508118E+03 0.  0.
         24    2    3    3    0    0  0.12123778022E+03  0.19975880003E+01 -0.14190159413E+03  0.20271491210E+03  0.79086556773E+02 0.  0.
         -6    2    1    2    0  503 -0.17229574220E+03  0.78481765701E+02 -0.15308129446E+02  0.25689213384E+03  0.17295669768E+03 0.  0.
        -24    2    5    5    0    0 -0.17723060112E+02  0.15383968825E+02 -0.34900318790E+02  0.88725579786E+02  0.78124406558E+02 0.  0.
          2    1    4    4  501    0  0.98418085050E+01  0.29599993298E+00 -0.68716157331E+02  0.69418002629E+02  0.00000000000E+00 0. -1.
         -1    1    4    4    0  501  0.11139597171E+03  0.17015880673E+01 -0.73185436794E+02  0.13329690947E+03  0.00000000000E+00 0.  1.
          5    1    3    3  502    0  0.51057961985E+02 -0.80479353701E+02 -0.12351383385E+02  0.96221039933E+02  0.47000000000E+01 0. -1.
         13    1    6    6    0    0 -0.25144025082E+02 -0.26908686933E+02 -0.69134185928E+01  0.37471252800E+02  0.00000000000E+00 0. -1.
        -14    1    6    6    0    0  0.74209649693E+01  0.42292655758E+02 -0.27986900197E+02  0.51254326986E+02  0.00000000000E+00 0.  1.
         -5    1    5    5    0  503 -0.15457268209E+03  0.63097796876E+02  0.19592189344E+02  0.16816655405E+03  0.47000000000E+01 0.  1.
<mgrwt>
<rscale>  2 0.25634264E+03</rscale>
<asrwt>0</asrwt>
<pdfrwt beam="1">  1       21 0.29712845E-01 0.25643562E+03</pdfrwt>
<pdfrwt beam="2">  1       21 0.55799169E-01 0.25643562E+03</pdfrwt>
<totfact> 0.31841166E+04</totfact>
</mgrwt>
</event>
<event>
12    1  0.1473662E-001  0.1855014E+03  0.7546771E-02  0.1162821E+00
         21   -1    0    0  504  503  0.00000000000E+00  0.00000000000E+00  0.49339737080E+02  0.49339737080E+02  0.00000000000E+00 0.  1.
         21   -1    0    0  502  504 -0.00000000000E+00 -0.00000000000E+00 -0.11609288214E+04  0.11609288214E+04  0.00000000000E+00 0.  1.
          6    2    1    2  502    0 -0.45599166341E+02  0.47978294494E+02 -0.94065836685E+03  0.95877470873E+03  0.17329044482E+03 0.  0.
         24    2    3    3    0    0 -0.28839718171E+02 -0.33864051651E+02 -0.33585436371E+03  0.34821019868E+03  0.80459216381E+02 0.  0.
         -6    2    1    2    0  503  0.45599166341E+02 -0.47978294494E+02 -0.17093071743E+03  0.25149384971E+03  0.17219362812E+03 0.  0.
        -24    2    5    5    0    0  0.27736404478E+02 -0.83686841345E+02 -0.17414880839E+03  0.21116241422E+03  0.80554094668E+02 0.  0.
          4    1    4    4  501    0 -0.97877322868E+01 -0.45498833482E+02 -0.89782846223E+02  0.10112815151E+03  0.00000000000E+00 0. -1.
         -3    1    4    4    0  501 -0.19051985884E+02  0.11634781831E+02 -0.24607151749E+03  0.24708204717E+03  0.00000000000E+00 0.  1.
          5    1    3    3  502    0 -0.16759448170E+02  0.81842346145E+02 -0.60480400314E+03  0.61056451005E+03  0.47000000000E+01 0. -1.
         13    1    6    6    0    0 -0.18593992686E+02  0.50292659993E+01 -0.25422639300E+02  0.31895778239E+02  0.00000000000E+00 0. -1.
        -14    1    6    6    0    0  0.46330397164E+02 -0.88716107345E+02 -0.14872616909E+03  0.17926663598E+03  0.00000000000E+00 0.  1.
         -5    1    5    5    0  503  0.17862761863E+02  0.35708546851E+02  0.32180909535E+01  0.40331435494E+02  0.47000000000E+01 0.  1.
<mgrwt>
<rscale>  2 0.18524484E+03</rscale>
<asrwt>0</asrwt>
<pdfrwt beam="1">  1       21 0.75907284E-02 0.18550143E+03</pdfrwt>
<pdfrwt beam="2">  1       21 0.17860444E+00 0.18550143E+03</pdfrwt>
<totfact> 0.24574490E+04</totfact>
</mgrwt>
</event>
<event>
12    1  0.1473662E-001  0.2886821E+03  0.7546771E-02  0.1091228E+00
         21   -1    0    0  504  503  0.00000000000E+00  0.00000000000E+00  0.13873570594E+04  0.13873570594E+04  0.00000000000E+00 0. -1.
         21   -1    0    0  502  504 -0.00000000000E+00 -0.00000000000E+00 -0.12736436867E+03  0.12736436867E+03  0.00000000000E+00 0. -1.
          6    2    1    2  502    0 -0.16953096833E+02  0.22949506025E+03  0.77521654143E+02  0.29752173677E+03  0.17191331192E+03 0.  0.
         24    2    3    3    0    0  0.19990243658E+01  0.59265853671E+02  0.64590255647E+02  0.12568903692E+03  0.90052181357E+02 0.  0.
         -6    2    1    2    0  503  0.16953096833E+02 -0.22949506025E+03  0.11824710365E+04  0.12171996913E+04  0.17430417651E+03 0.  0.
        -24    2    5    5    0    0  0.76455693272E+02 -0.12506347824E+03  0.61820650749E+03  0.64025683182E+03  0.79140243639E+02 0.  0.
          4    1    4    4  501    0  0.16643955777E+02  0.26705874135E+02 -0.17617233081E+02  0.36063719701E+02  0.00000000000E+00 0. -1.
         -3    1    4    4    0  501 -0.14644931411E+02  0.32559979536E+02  0.82207488728E+02  0.89625317218E+02  0.00000000000E+00 0.  1.
          5    1    3    3  502    0 -0.18952121198E+02  0.17022920658E+03  0.12931398496E+02  0.17183269985E+03  0.47000000000E+01 0. -1.
         11    1    6    6    0    0  0.14736786935E+02 -0.11020805940E+02  0.23471034905E+03  0.23543062461E+03  0.00000000000E+00 0. -1.
        -12    1    6    6    0    0  0.61718906336E+02 -0.11404267230E+03  0.38349615844E+03  0.40482620721E+03  0.00000000000E+00 0.  1.
         -5    1    5    5    0  503 -0.59502596439E+02 -0.10443158201E+03  0.56426452905E+03  0.57694285943E+03  0.47000000000E+01 0.  1.
<mgrwt>
<rscale>  2 0.28832208E+03</rscale>
<asrwt>0</asrwt>
<pdfrwt beam="1">  1       21 0.21343954E+00 0.28868207E+03</pdfrwt>
<pdfrwt beam="2">  1       21 0.19594519E-01 0.28868207E+03</pdfrwt>
<totfact> 0.24398751E+03</totfact>
</mgrwt>
</event>
<event>
12    1  0.1473662E-001  0.2094670E+03  0.7546771E-02  0.1142083E+00
         21   -1    0    0  504  503  0.00000000000E+00  0.00000000000E+00  0.35013445460E+03  0.35013445460E+03  0.00000000000E+00 0. -1.
         21   -1    0    0  502  504 -0.00000000000E+00 -0.00000000000E+00 -0.29068787091E+03  0.29068787091E+03  0.00000000000E+00 0. -1.
          6    2    1    2  502    0 -0.11367865471E+03  0.31302027377E+02 -0.21214221035E+03  0.29812869961E+03  0.17312928887E+03 0.  0.
         24    2    3    3    0    0 -0.11519841648E+03  0.60666062283E+02 -0.10127018298E+03  0.18332777333E+03  0.80014850129E+02 0.  0.
         -6    2    1    2    0  503  0.11367865471E+03 -0.31302027377E+02  0.27158879404E+03  0.34269362589E+03  0.17255664207E+03 0.  0.
        -24    2    5    5    0    0 -0.69648273061E+01 -0.26757334238E+02  0.13892583612E+03  0.16325824924E+03  0.81168985762E+02 0.  0.
          4    1    4    4  501    0 -0.99586964977E+02  0.26371922178E+02 -0.10290673645E+03  0.14561194415E+03  0.00000000000E+00 0. -1.
         -3    1    4    4    0  501 -0.15611451500E+02  0.34294140105E+02  0.16365534673E+01  0.37715829179E+02  0.00000000000E+00 0.  1.
          5    1    3    3  502    0  0.15197617662E+01 -0.29364034906E+02 -0.11087202737E+03  0.11480092628E+03  0.47000000000E+01 0. -1.
         13    1    6    6    0    0  0.35323985281E+02 -0.15800101598E+02  0.42969180899E+02  0.57825406646E+02  0.00000000000E+00 0. -1.
        -14    1    6    6    0    0 -0.42288812587E+02 -0.10957232641E+02  0.95956655218E+02  0.10543284260E+03  0.00000000000E+00 0.  1.
         -5    1    5    5    0  503  0.12064348202E+03 -0.45446931382E+01  0.13266295793E+03  0.17943537665E+03  0.47000000000E+01 0.  1.
<mgrwt>
<rscale>  2 0.20934859E+03</rscale>
<asrwt>0</asrwt>
<pdfrwt beam="1">  1       21 0.53866839E-01 0.20946695E+03</pdfrwt>
<pdfrwt beam="2">  1       21 0.44721211E-01 0.20946695E+03</pdfrwt>
<totfact> 0.15479469E+04</totfact>
</mgrwt>
</event>
<event>
12    1  0.1473662E-001  0.1830245E+03  0.7546771E-02  0.1165220E+00
         21   -1    0    0  504  503  0.00000000000E+00  0.00000000000E+00  0.11446454583E+03  0.11446454583E+03  0.00000000000E+00 0. -1.
         21   -1    0    0  502  504 -0.00000000000E+00 -0.00000000000E+00 -0.34545327486E+03  0.34545327486E+03  0.00000000000E+00 0. -1.
          6    2    1    2  502    0 -0.52423758618E+02  0.22579839890E+02 -0.20681700074E+03  0.27530408192E+03  0.17251366928E+03 0.  0.
         24    2    3    3    0    0 -0.32747268137E+02  0.17413693108E+02 -0.25166864180E+02  0.92457929476E+02  0.80867035263E+02 0.  0.
         -6    2    1    2    0  503  0.52423758618E+02 -0.22579839890E+02 -0.24171728286E+02  0.18461373877E+03  0.17389611974E+03 0.  0.
        -24    2    5    5    0    0  0.16950717082E+02 -0.74118727893E+02 -0.43355771897E+02  0.11900344094E+03  0.80629916069E+02 0.  0.
          4    1    4    4  501    0 -0.44659922566E+02  0.42198518551E+02 -0.16371842417E+02  0.63586640701E+02  0.00000000000E+00 0. -1.
         -3    1    4    4    0  501  0.11912654429E+02 -0.24784825442E+02 -0.87950217635E+01  0.28871288776E+02  0.00000000000E+00 0.  1.
          5    1    3    3  502    0 -0.19676490481E+02  0.51661467812E+01 -0.18165013656E+03  0.18284615244E+03  0.47000000000E+01 0. -1.
         13    1    6    6    0    0  0.36718018942E+02 -0.31413318519E+02  0.84062806351E+01  0.49047681387E+02  0.00000000000E+00 0. -1.
        -14    1    6    6    0    0 -0.19767301859E+02 -0.42705409374E+02 -0.51762052532E+02  0.69955759555E+02  0.00000000000E+00 0.  1.
         -5    1    5    5    0  503  0.35473041536E+02  0.51538888003E+02  0.19184043611E+02  0.65610297832E+02  0.47000000000E+01 0.  1.
<mgrwt>
<rscale>  2 0.18269535E+03</rscale>
<asrwt>0</asrwt>
<pdfrwt beam="1">  1       21 0.17609930E-01 0.18302448E+03</pdfrwt>
<pdfrwt beam="2">  1       21 0.53146657E-01 0.18302448E+03</pdfrwt>
<totfact> 0.98389418E+04</totfact>
</mgrwt>
</event>
<event>
12    1  0.1473662E-001  0.2076071E+03  0.7546771E-02  0.1143602E+00
         21   -1    0    0  504  503  0.00000000000E+00  0.00000000000E+00  0.17750349185E+03  0.17750349185E+03  0.00000000000E+00 0.  1.
         21   -1    0    0  502  504 -0.00000000000E+00 -0.00000000000E+00 -0.98416546313E+03  0.98416546313E+03  0.00000000000E+00 0.  1.
          6    2    1    2  502    0 -0.11624628585E+03 -0.92506076506E+00 -0.90754582661E+03  0.93084810895E+03  0.17124461986E+03 0.  0.
         24    2    3    3    0    0 -0.95235551343E+02  0.51458424059E+02 -0.44945545679E+03  0.46926999274E+03  0.80537809741E+02 0.  0.
         -6    2    1    2    0  503  0.11624628585E+03  0.92506076506E+00  0.10088385533E+03  0.23082084602E+03  0.17200772070E+03 0.  0.
        -24    2    5    5    0    0  0.54856589589E+02 -0.53187144653E+02  0.10076868039E+03  0.14885177352E+03  0.78513729724E+02 0.  0.
          4    1    4    4  501    0 -0.39741172720E+01  0.41569046633E+02 -0.11127580330E+03  0.11885320208E+03  0.00000000000E+00 0. -1.
         -3    1    4    4    0  501 -0.91261434071E+02  0.98893774252E+01 -0.33817965349E+03  0.35041679065E+03  0.00000000000E+00 0.  1.
          5    1    3    3  502    0 -0.21010734503E+02 -0.52383484824E+02 -0.45809036982E+03  0.46157811622E+03  0.47000000000E+01 0. -1.
         13    1    6    6    0    0 -0.12330321638E+02 -0.60442704413E+01  0.51108710884E+02  0.52921360197E+02  0.00000000000E+00 0. -1.
        -14    1    6    6    0    0  0.67186911227E+02 -0.47142874212E+02  0.49659969502E+02  0.95930413322E+02  0.00000000000E+00 0.  1.
         -5    1    5    5    0  503  0.61389696258E+02  0.54112205418E+02  0.11517494817E+00  0.81969072503E+02  0.47000000000E+01 0.  1.
<mgrwt>
<rscale>  2 0.20744897E+03</rscale>
<asrwt>0</asrwt>
<pdfrwt beam="1">  1       21 0.27308230E-01 0.20760711E+03</pdfrwt>
<pdfrwt beam="2">  1       21 0.15141007E+00 0.20760711E+03</pdfrwt>
<totfact> 0.36806673E+03</totfact>
</mgrwt>
</event>
<event>
12    1  0.1473662E-001  0.1759731E+03  0.7546771E-02  0.1172466E+00
         21   -1    0    0  504  503  0.00000000000E+00  0.00000000000E+00  0.18211996292E+03  0.18211996292E+03  0.00000000000E+00 0.  1.
         21   -1    0    0  502  504 -0.00000000000E+00 -0.00000000000E+00 -0.62393792977E+03  0.62393792977E+03  0.00000000000E+00 0.  1.
          6    2    1    2  502    0 -0.12165838685E+02  0.28728269511E+01 -0.56520698299E+03  0.59113608913E+03  0.17270402856E+03 0.  0.
         24    2    3    3    0    0 -0.28736506205E+01 -0.65584146951E+02 -0.36413566770E+03  0.37847564178E+03  0.79620906347E+02 0.  0.
         -6    2    1    2    0  503  0.12165838685E+02 -0.28728269511E+01  0.12338901613E+03  0.21492180356E+03  0.17552854918E+03 0.  0.
        -24    2    5    5    0    0  0.86152952103E+01  0.66294321248E+02  0.55107540192E+02  0.11755060296E+03  0.79448995774E+02 0.  0.
          4    1    4    4  501    0  0.93527727713E+01 -0.79371080332E+02 -0.23943978884E+03  0.25242554394E+03  0.00000000000E+00 0. -1.
         -3    1    4    4    0  501 -0.12226423392E+02  0.13786933380E+02 -0.12469587886E+03  0.12605009784E+03  0.00000000000E+00 0.  1.
          5    1    3    3  502    0 -0.92921880644E+01  0.68456973902E+02 -0.20107131529E+03  0.21266044735E+03  0.47000000000E+01 0. -1.
         11    1    6    6    0    0  0.82752173077E+01 -0.16634334102E+02  0.11537433871E+01  0.18614817117E+02  0.00000000000E+00 0. -1.
        -12    1    6    6    0    0  0.34007790266E+00  0.82928655350E+02  0.53953796805E+02  0.98935785845E+02  0.00000000000E+00 0.  1.
         -5    1    5    5    0  503  0.35505434745E+01 -0.69167148199E+02  0.68281475943E+02  0.97371200598E+02  0.47000000000E+01 0.  1.
<mgrwt>
<rscale>  2 0.17526452E+03</rscale>
<asrwt>0</asrwt>
<pdfrwt beam="1">  1       21 0.28018456E-01 0.17597310E+03</pdfrwt>
<pdfrwt beam="2">  1       21 0.95990451E-01 0.17597310E+03</pdfrwt>
<totfact> 0.11130434E+04</totfact>
</mgrwt>
</event>
<event>
12    1  0.1473662E-001  0.1983224E+03  0.7546771E-02  0.1151538E+00
         21   -1    0    0  504  503  0.00000000000E+00  0.00000000000E+00  0.11665248913E+03  0.11665248913E+03  0.00000000000E+00 0.  1.
         21   -1    0    0  502  504 -0.00000000000E+00 -0.00000000000E+00 -0.40553860955E+03  0.40553860955E+03  0.00000000000E+00 0.  1.
          6    2    1    2  502    0 -0.51495512764E+02 -0.80209391322E+02 -0.25342590855E+03  0.32072346202E+03  0.17191135412E+03 0.  0.
         24    2    3    3    0    0 -0.91105240845E+02 -0.59618711180E+02 -0.12363778419E+03  0.18339191469E+03  0.80571316618E+02 0.  0.
         -6    2    1    2    0  503  0.51495512764E+02  0.80209391322E+02 -0.35460211874E+02  0.20146763666E+03  0.17391505888E+03 0.  0.
        -24    2    5    5    0    0  0.46732463976E+01  0.32018648013E+02 -0.82327522072E+02  0.11941090547E+03  0.80212906704E+02 0.  0.
          2    1    4    4  501    0 -0.78230271823E+01  0.17742276816E+02 -0.31859775776E+02  0.37296560879E+02  0.00000000000E+00 0. -1.
         -1    1    4    4    0  501 -0.83282213663E+02 -0.77360987996E+02 -0.91778008416E+02  0.14609535381E+03  0.00000000000E+00 0.  1.
          5    1    3    3  502    0  0.39609728080E+02 -0.20590680141E+02 -0.12978812436E+03  0.13733154733E+03  0.47000000000E+01 0.  1.
         11    1    6    6    0    0 -0.32441136607E+02 -0.15743220870E+01 -0.15704876118E+02  0.36076986685E+02  0.00000000000E+00 0. -1.
        -12    1    6    6    0    0  0.37114383005E+02  0.33592970100E+02 -0.66622645954E+02  0.83333918784E+02  0.00000000000E+00 0.  1.
         -5    1    5    5    0  503  0.46822266367E+02  0.48190743308E+02  0.46867310198E+02  0.82056731190E+02  0.47000000000E+01 0.  1.
<mgrwt>
<rscale>  2 0.19788227E+03</rscale>
<asrwt>0</asrwt>
<pdfrwt beam="1">  1       21 0.17946537E-01 0.19832242E+03</pdfrwt>
<pdfrwt beam="2">  1       21 0.62390555E-01 0.19832242E+03</pdfrwt>
<totfact> 0.67072735E+04</totfact>
</mgrwt>
</event>
<event>
12    1  0.1473662E-001  0.2135305E+03  0.7546771E-02  0.1138915E+00
         21   -1    0    0  504  503  0.00000000000E+00  0.00000000000E+00  0.93590888074E+02  0.93590888074E+02  0.00000000000E+00 0.  1.
         21   -1    0    0  502  504 -0.00000000000E+00 -0.00000000000E+00 -0.57595534213E+03  0.57595534213E+03  0.00000000000E+00 0.  1.
          6    2    1    2  502    0 -0.33776773837E+02 -0.12324521334E+03 -0.37332853596E+03  0.42978781158E+03  0.17033236380E+03 0.  0.
         24    2    3    3    0    0 -0.73616489985E+02 -0.69130150482E+02 -0.16890196789E+03  0.21454851511E+03  0.85468270574E+02 0.  0.
         -6    2    1    2    0  503  0.33776773837E+02  0.12324521334E+03 -0.10903591809E+03  0.23975841863E+03  0.17107020432E+03 0.  0.
        -24    2    5    5    0    0  0.34029537356E+02  0.80280780621E+01 -0.83905643033E+02  0.12173861997E+03  0.80979474000E+02 0.  0.
          4    1    4    4  501    0 -0.49361218496E+02 -0.36703861217E+02 -0.27349664963E+02  0.67317958178E+02  0.00000000000E+00 0. -1.
         -3    1    4    4    0  501 -0.24255271489E+02 -0.32426289266E+02 -0.14155230292E+03  0.14723055693E+03  0.00000000000E+00 0.  1.
          5    1    3    3  502    0  0.39839716149E+02 -0.54115062855E+02 -0.20442656807E+03  0.21523929647E+03  0.47000000000E+01 0. -1.
         11    1    6    6    0    0 -0.95742731489E+00 -0.13879368184E+02 -0.78945344353E+02  0.80161842065E+02  0.00000000000E+00 0. -1.
        -12    1    6    6    0    0  0.34986964671E+02  0.21907446246E+02 -0.49602986795E+01  0.41576777904E+02  0.00000000000E+00 0.  1.
         -5    1    5    5    0  503 -0.25276351906E+00  0.11521713528E+03 -0.25130275062E+02  0.11801979866E+03  0.47000000000E+01 0.  1.
<mgrwt>
<rscale>  2 0.21338267E+03</rscale>
<asrwt>0</asrwt>
<pdfrwt beam="1">  1       21 0.14398598E-01 0.21353048E+03</pdfrwt>
<pdfrwt beam="2">  1       21 0.88608516E-01 0.21353048E+03</pdfrwt>
<totfact> 0.45537866E+04</totfact>
</mgrwt>
</event>
<event>
12    1  0.1473662E-001  0.1992270E+03  0.7546771E-02  0.1150439E+00
         21   -1    0    0  504  503  0.00000000000E+00  0.00000000000E+00  0.87921507838E+03  0.87921507838E+03  0.00000000000E+00 0. -1.
         21   -1    0    0  502  504 -0.00000000000E+00 -0.00000000000E+00 -0.65902689668E+02  0.65902689668E+02  0.00000000000E+00 0.  1.
          6    2    1    2  502    0 -0.67602971105E+02  0.69836681662E+02  0.14127451354E+03  0.24423323917E+03  0.17390820318E+03 0.  0.
         24    2    3    3    0    0 -0.36694781164E+01  0.34489435965E+02  0.14705720946E+03  0.17079994375E+03  0.79648048741E+02 0.  0.
         -6    2    1    2    0  503  0.67602971105E+02 -0.69836681662E+02  0.67203787517E+03  0.70088452887E+03  0.17365740221E+03 0.  0.
        -24    2    5    5    0    0  0.22058151346E+02  0.10126845862E+02  0.16362666085E+03  0.18419066478E+03  0.81014824598E+02 0.  0.
          2    1    4    4  501    0  0.20002663474E+02  0.34247119069E+01  0.12357023732E+03  0.12522555151E+03  0.00000000000E+00 0. -1.
         -1    1    4    4    0  501 -0.23672141591E+02  0.31064724058E+02  0.23486972135E+02  0.45574392244E+02  0.00000000000E+00 0.  1.
          5    1    3    3  502    0 -0.63933492989E+02  0.35347245697E+02 -0.57826959222E+01  0.73433295420E+02  0.47000000000E+01 0. -1.
         13    1    6    6    0    0 -0.28114454290E+00  0.25509554421E+02  0.15291567815E+03  0.15502909737E+03  0.00000000000E+00 0. -1.
        -14    1    6    6    0    0  0.22339295889E+02 -0.15382708559E+02  0.10710982703E+02  0.29161567411E+02  0.00000000000E+00 0.  1.
         -5    1    5    5    0  503  0.45544819759E+02 -0.79963527524E+02  0.50841121432E+03  0.51669386409E+03  0.47000000000E+01 0.  1.
<mgrwt>
<rscale>  2 0.19917223E+03</rscale>
<asrwt>0</asrwt>
<pdfrwt beam="1">  1       21 0.13526385E+00 0.19922697E+03</pdfrwt>
<pdfrwt beam="2">  1       21 0.10138876E-01 0.19922697E+03</pdfrwt>
<totfact> 0.30831844E+04</totfact>
</mgrwt>
</event>
<event>
12    1  0.1473662E-001  0.2841940E+03  0.7546771E-02  0.1094081E+00
         21   -1    0    0  504  503  0.00000000000E+00  0.00000000000E+00  0.59760949354E+03  0.59760949354E+03  0.00000000000E+00 0. -1.
         21   -1    0    0  502  504 -0.00000000000E+00 -0.00000000000E+00 -0.27487447147E+03  0.27487447147E+03  0.00000000000E+00 0.  1.
          6    2    1    2  502    0 -0.20815592008E+03  0.69036721738E+02 -0.15154425902E+03  0.32207438089E+03  0.18075200793E+03 0.  0.
         24    2    3    3    0    0 -0.50502203647E+02  0.82752194402E+02 -0.68086461562E+02  0.14310482356E+03  0.80279673803E+02 0.  0.
         -6    2    1    2    0  503  0.20815592008E+03 -0.69036721738E+02  0.47427928110E+03  0.55040958412E+03  0.17295929521E+03 0.  0.
        -24    2    5    5    0    0  0.81710578133E+02 -0.95949046381E+02  0.21371690798E+03  0.25950145772E+03  0.76047693743E+02 0.  0.
          2    1    4    4  501    0 -0.17778739982E+02  0.64264432009E+01  0.16114990912E+02  0.24841008427E+02  0.00000000000E+00 0. -1.
         -1    1    4    4    0  501 -0.32723463665E+02  0.76325751201E+02 -0.84201452474E+02  0.11826381513E+03  0.00000000000E+00 0.  1.
          5    1    3    3  502    0 -0.15765371643E+03 -0.13715472664E+02 -0.83457797456E+02  0.17896955733E+03  0.47000000000E+01 0. -1.
         13    1    6    6    0    0  0.83482860462E+02 -0.60995565010E+02  0.19267941086E+03  0.21866687520E+03  0.00000000000E+00 0. -1.
        -14    1    6    6    0    0 -0.17722823285E+01 -0.34953481372E+02  0.21037497124E+02  0.40834582524E+02  0.00000000000E+00 0.  1.
         -5    1    5    5    0  503  0.12644534195E+03  0.26912324643E+02  0.26056237312E+03  0.29090812640E+03  0.47000000000E+01 0.  1.
<mgrwt>
<rscale>  2 0.28296317E+03</rscale>
<asrwt>0</asrwt>
<pdfrwt beam="1">  1       21 0.91939921E-01 0.28419403E+03</pdfrwt>
<pdfrwt beam="2">  1       21 0.42288381E-01 0.28419403E+03</pdfrwt>
<totfact> 0.50651792E+03</totfact>
</mgrwt>
</event>
<event>
12    1  0.1473662E-001  0.1900854E+03  0.7546771E-02  0.1158628E+00
         21   -1    0    0  504  503  0.00000000000E+00  0.00000000000E+00  0.10930239869E+04  0.10930239869E+04  0.00000000000E+00 0. -1.
         21   -1    0    0  502  504 -0.00000000000E+00 -0.00000000000E+00 -0.45223914701E+02  0.45223914701E+02  0.00000000000E+00 0. -1.
          6    2    1    2  502    0 -0.73706651093E+02 -0.15993244293E+02  0.22752902383E+03  0.29648255298E+03  0.17448207146E+03 0.  0.
         24    2    3    3    0    0 -0.10765693587E+03 -0.15313267858E+02  0.22415958301E+03  0.26203654689E+03  0.81185720647E+02 0.  0.
         -6    2    1    2    0  503  0.73706651093E+02  0.15993244293E+02  0.82027104841E+03  0.84176534866E+03  0.17330855450E+03 0.  0.
        -24    2    5    5    0    0  0.56043843044E+02  0.56847878776E+02  0.74473137533E+03  0.75396211320E+03  0.86379702967E+02 0.  0.
          4    1    4    4  501    0 -0.43675745753E+02 -0.30449899454E+02  0.40298922453E+02  0.66774024101E+02  0.00000000000E+00 0. -1.
         -3    1    4    4    0  501 -0.63981190115E+02  0.15136631596E+02  0.18386066056E+03  0.19526252279E+03  0.00000000000E+00 0.  1.
          5    1    3    3  502    0  0.33950284776E+02 -0.67997643508E+00  0.33694408179E+01  0.34446006092E+02  0.47000000000E+01 0. -1.
         11    1    6    6    0    0  0.59251671622E+02  0.92151424503E+00  0.45723256189E+03  0.46105664015E+03  0.00000000000E+00 0. -1.
        -12    1    6    6    0    0 -0.32078285781E+01  0.55926364531E+02  0.28749881344E+03  0.29290547305E+03  0.00000000000E+00 0.  1.
         -5    1    5    5    0  503  0.17662808049E+02 -0.40854634483E+02  0.75539673081E+02  0.87803235454E+02  0.47000000000E+01 0.  1.
<mgrwt>
<rscale>  2 0.18981564E+03</rscale>
<asrwt>0</asrwt>
<pdfrwt beam="1">  1       21 0.16815752E+00 0.19008537E+03</pdfrwt>
<pdfrwt beam="2">  1       21 0.69575262E-02 0.19008537E+03</pdfrwt>
<totfact> 0.33664498E+04</totfact>
</mgrwt>
</event>
<event>
12    1  0.1473662E-001  0.2584496E+03  0.7546771E-02  0.1108185E+00
         21   -1    0    0  504  503  0.00000000000E+00  0.00000000000E+00  0.11409873117E+03  0.11409873117E+03  0.00000000000E+00 0.  1.
         21   -1    0    0  502  504 -0.00000000000E+00 -0.00000000000E+00 -0.94255006172E+03  0.94255006172E+03  0.00000000000E+00 0. -1.
          6    2    1    2  502    0  0.19108020006E+03 -0.60231108158E+01 -0.74050840046E+03  0.78431428211E+03  0.17392033021E+03 0.  0.
         24    2    3    3    0    0  0.16872110714E+03 -0.63114637681E+02 -0.56052086545E+03  0.59411182621E+03  0.79592411355E+02 0.  0.
         -6    2    1    2    0  503 -0.19108020006E+03  0.60231108158E+01 -0.87942930090E+02  0.27233451078E+03  0.17287048937E+03 0.  0.
        -24    2    5    5    0    0 -0.32961381260E+02 -0.12786701834E+01  0.73759048851E+01  0.87503108787E+02  0.80711228602E+02 0.  0.
          4    1    4    4  501    0 -0.47526597342E+01 -0.98478577491E+01 -0.74880705581E+02  0.75674884507E+02  0.00000000000E+00 0. -1.
         -3    1    4    4    0  501  0.17347376687E+03 -0.53266779932E+02 -0.48564015987E+03  0.51843694170E+03  0.00000000000E+00 0.  1.
          5    1    3    3  502    0  0.22359092916E+02  0.57091526865E+02 -0.17998753501E+03  0.19020245591E+03  0.47000000000E+01 0. -1.
         11    1    6    6    0    0  0.95918177647E+01  0.31816980839E+02  0.13447833868E+01  0.33258557997E+02  0.00000000000E+00 0. -1.
        -12    1    6    6    0    0 -0.42553199025E+02 -0.33095651022E+02  0.60311214983E+01  0.54244550790E+02  0.00000000000E+00 0.  1.
         -5    1    5    5    0  503 -0.15811881880E+03  0.73017809992E+01 -0.95318834975E+02  0.18483140200E+03  0.47000000000E+01 0.  1.
<mgrwt>
<rscale>  2 0.25827310E+03</rscale>
<asrwt>0</asrwt>
<pdfrwt beam="1">  1       21 0.17553651E-01 0.25844961E+03</pdfrwt>
<pdfrwt beam="2">  1       21 0.14500770E+00 0.25844961E+03</pdfrwt>
<totfact> 0.91887901E+03</totfact>
</mgrwt>
</event>
<event>
12    1  0.1473662E-001  0.1838220E+03  0.7546771E-02  0.1164308E+00
         21   -1    0    0  504  503  0.00000000000E+00  0.00000000000E+00  0.59357698970E+03  0.59357698970E+03  0.00000000000E+00 0. -1.
         21   -1    0    0  502  504 -0.00000000000E+00 -0.00000000000E+00 -0.56815782485E+02  0.56815782485E+02  0.00000000000E+00 0. -1.
          6    2    1    2  502    0 -0.59693380064E+02  0.17120046521E+02  0.28085343735E+03  0.33530655284E+03  0.17232363590E+03 0.  0.
         24    2    3    3    0    0  0.42042571874E+01  0.32191033066E+02  0.59345080254E+02  0.10422629634E+03  0.79292773374E+02 0.  0.
         -6    2    1    2    0  503  0.59693380064E+02 -0.17120046521E+02  0.25590776987E+03  0.31508621935E+03  0.17301486447E+03 0.  0.
        -24    2    5    5    0    0  0.10115068178E+03 -0.16205595298E+02  0.13504299380E+03  0.18721938165E+03  0.79500974516E+02 0.  0.
          4    1    4    4  501    0  0.13902688316E+02  0.18975213568E+02 -0.15129709338E+02  0.27968760734E+02  0.00000000000E+00 0. -1.
         -3    1    4    4    0  501 -0.96984311284E+01  0.13215819498E+02  0.74474789592E+02  0.76257535602E+02  0.00000000000E+00 0.  1.
          5    1    3    3  502    0 -0.63897637251E+02 -0.15070986545E+02  0.22150835709E+03  0.23108025650E+03  0.47000000000E+01 0. -1.
         13    1    6    6    0    0  0.52761517867E+02  0.22576155457E+02  0.10179188947E+03  0.11685482158E+03  0.00000000000E+00 0. -1.
        -14    1    6    6    0    0  0.48389163918E+02 -0.38781750755E+02  0.33251104321E+02  0.70364560077E+02  0.00000000000E+00 0.  1.
         -5    1    5    5    0  503 -0.41457301721E+02 -0.91445122233E+00  0.12086477607E+03  0.12786683770E+03  0.47000000000E+01 0.  1.
<mgrwt>
<rscale>  2 0.18365920E+03</rscale>
<asrwt>0</asrwt>
<pdfrwt beam="1">  1       21 0.91319533E-01 0.18382203E+03</pdfrwt>
<pdfrwt beam="2">  1       21 0.87408900E-02 0.18382203E+03</pdfrwt>
<totfact> 0.10479543E+05</totfact>
</mgrwt>
</event>
<event>
12    1  0.1473662E-001  0.2162441E+03  0.7546771E-02  0.1137460E+00
         21   -1    0    0  504  503  0.00000000000E+00  0.00000000000E+00  0.52716841585E+03  0.52716841585E+03  0.00000000000E+00 0.  1.
         21   -1    0    0  502  504 -0.00000000000E+00 -0.00000000000E+00 -0.12342161554E+03  0.12342161554E+03  0.00000000000E+00 0.  1.
          6    2    1    2  502    0 -0.74465027785E+02  0.10828666193E+03  0.26750901014E+02  0.21789245585E+03  0.17172789551E+03 0.  0.
         24    2    3    3    0    0 -0.27786269936E+02  0.18535449670E+02 -0.40381286510E+02  0.96389340094E+02  0.80898806494E+02 0.  0.
         -6    2    1    2    0  503  0.74465027785E+02 -0.10828666193E+03  0.37699589930E+03  0.43269757554E+03  0.16682398591E+03 0.  0.
        -24    2    5    5    0    0  0.13728823181E+02 -0.11964645857E+02  0.12290589246E+03  0.15421842209E+03  0.91355514201E+02 0.  0.
          4    1    4    4  501    0 -0.35674986131E+02 -0.24518234010E+02 -0.15121403140E+02  0.45853083510E+02  0.00000000000E+00 0. -1.
         -3    1    4    4    0  501  0.78887161948E+01  0.43053683681E+02 -0.25259883370E+02  0.50536256584E+02  0.00000000000E+00 0.  1.
          5    1    3    3  502    0 -0.46678757848E+02  0.89751212258E+02  0.67132187525E+02  0.12150311575E+03  0.47000000000E+01 0. -1.
         13    1    6    6    0    0  0.21645894312E+02  0.25495066441E+02  0.98644799076E+01  0.34869056730E+02  0.00000000000E+00 0. -1.
        -14    1    6    6    0    0 -0.79170711306E+01 -0.37459712297E+02  0.11304141255E+03  0.11934936536E+03  0.00000000000E+00 0.  1.
         -5    1    5    5    0  503  0.60736204603E+02 -0.96322016071E+02  0.25409000684E+03  0.27847915345E+03  0.47000000000E+01 0.  1.
<mgrwt>
<rscale>  2 0.21526916E+03</rscale>
<asrwt>0</asrwt>
<pdfrwt beam="1">  1       21 0.81102832E-01 0.21624410E+03</pdfrwt>
<pdfrwt beam="2">  1       21 0.18987941E-01 0.21624410E+03</pdfrwt>
<totfact> 0.33480193E+04</totfact>
</mgrwt>
</event>
<event>
12    1  0.1473662E-001  0.2429312E+03  0.7546771E-02  0.1118190E+00
         21   -1    0    0  504  503  0.00000000000E+00  0.00000000000E+00  0.42884584349E+03  0.42884584349E+03  0.00000000000E+00 0.  1.
         21   -1    0    0  502  504 -0.00000000000E+00 -0.00000000000E+00 -0.20766038273E+03  0.20766038273E+03  0.00000000000E+00 0.  1.
          6    2    1    2  502    0  0.15822232107E+03  0.53713860156E+02 -0.75446652281E+02  0.25437725105E+03  0.17634088254E+03 0.  0.
         24    2    3    3    0    0  0.14926217982E+03 -0.81444576941E+01 -0.20924455139E+02  0.17130201046E+03  0.81000095363E+02 0.  0.
         -6    2    1    2    0  503 -0.15822232107E+03 -0.53713860156E+02  0.29663211305E+03  0.38212897517E+03  0.17352942549E+03 0.  0.
        -24    2    5    5    0    0 -0.58296918446E+02  0.30532017596E+02  0.91424471414E+02  0.13878822602E+03  0.81074058185E+02 0.  0.
          2    1    4    4  501    0  0.70657398191E+02 -0.44336456989E+02 -0.78672199253E+01  0.83785932512E+02  0.00000000000E+00 0. -1.
         -1    1    4    4    0  501  0.78604781630E+02  0.36191999295E+02 -0.13057235214E+02  0.87516077949E+02  0.00000000000E+00 0.  1.
          5    1    3    3  502    0  0.89601412520E+01  0.61858317850E+02 -0.54522197142E+02  0.83075240594E+02  0.47000000000E+01 0. -1.
         13    1    6    6    0    0 -0.12267914704E+02 -0.22981931725E+02  0.51448060113E+02  0.57667788291E+02  0.00000000000E+00 0. -1.
        -14    1    6    6    0    0 -0.46029003742E+02  0.53513949321E+02  0.39976411301E+02  0.81120437732E+02  0.00000000000E+00 0.  1.
         -5    1    5    5    0  503 -0.99925402627E+02 -0.84245877753E+02  0.20520764163E+03  0.24334074914E+03  0.47000000000E+01 0.  1.
<mgrwt>
<rscale>  2 0.24242138E+03</rscale>
<asrwt>0</asrwt>
<pdfrwt beam="1">  1       21 0.65976284E-01 0.24293124E+03</pdfrwt>
<pdfrwt beam="2">  1       21 0.31947751E-01 0.24293124E+03</pdfrwt>
<totfact> 0.19327635E+04</totfact>
</mgrwt>
</event>
<event>
12    1  0.1473662E-001  0.1911820E+03  0.7546771E-02  0.1158272E+00
         21   -1    0    0  504  503  0.00000000000E+00  0.00000000000E+00  0.48237125784E+03  0.48237125784E+03  0.00000000000E+00 0.  1.
         21   -1    0    0  502  504 -0.00000000000E+00 -0.00000000000E+00 -0.76054213909E+03  0.76054213909E+03  0.00000000000E+00 0.  1.
          6    2    1    2  502    0 -0.53248924112E+02 -0.45919724820E+02 -0.72928536390E+03  0.75295948090E+03  0.17362824895E+03 0.  0.
         24    2    3    3    0    0  0.33146396335E+02 -0.12258464267E+02 -0.45227905547E+03  0.46080914842E+03  0.80868867416E+02 0.  0.
         -6    2    1    2    0  503  0.53248924112E+02  0.45919724820E+02  0.45111448264E+03  0.48995391603E+03  0.17778215415E+03 0.  0.
        -24    2    5    5    0    0 -0.10629227024E+02  0.43311623937E+02  0.39187565918E+03  0.40266961854E+03  0.81162874533E+02 0.  0.
          4    1    4    4  501    0  0.16961908588E+02 -0.28774636329E+02 -0.41874577869E+03  0.42007584221E+03  0.00000000000E+00 0. -1.
         -3    1    4    4    0  501  0.16184487747E+02  0.16516172063E+02 -0.33533276775E+02  0.40733306207E+02  0.00000000000E+00 0.  1.
          5    1    3    3  502    0 -0.86395320447E+02 -0.33661260553E+02 -0.27700630843E+03  0.29215033248E+03  0.47000000000E+01 0. -1.
         13    1    6    6    0    0 -0.31056958878E+02 -0.89396978554E+00  0.63399420423E+02  0.70603260454E+02  0.00000000000E+00 0. -1.
        -14    1    6    6    0    0  0.20427731854E+02  0.44205593723E+02  0.32847623876E+03  0.33206635809E+03  0.00000000000E+00 0.  1.
         -5    1    5    5    0  503  0.63878151136E+02  0.26081008828E+01  0.59238823463E+02  0.87284297488E+02  0.47000000000E+01 0.  1.
<mgrwt>
<rscale>  2 0.19021050E+03</rscale>
<asrwt>0</asrwt>
<pdfrwt beam="1">  1       21 0.74210964E-01 0.19118202E+03</pdfrwt>
<pdfrwt beam="2">  1       21 0.11700648E+00 0.19118202E+03</pdfrwt>
<totfact> 0.91632073E+02</totfact>
</mgrwt>
</event>
<event>
12    1  0.1473662E-001  0.2342879E+03  0.7546771E-02  0.1123998E+00
         21   -1    0    0  504  503  0.00000000000E+00  0.00000000000E+00  0.13934289708E+03  0.13934289708E+03  0.00000000000E+00 0. -1.
         21   -1    0    0  502  504 -0.00000000000E+00 -0.00000000000E+00 -0.40166581225E+03  0.40166581225E+03  0.00000000000E+00 0. -1.
          6    2    1    2  502    0 -0.15503356081E+03 -0.11357076417E+02 -0.17656749428E+03  0.29337160834E+03  0.17528956723E+03 0.  0.
         24    2    3    3    0    0 -0.17464604601E+03  0.21897871752E+02 -0.12309128772E+03  0.22724796793E+03  0.74225437966E+02 0.  0.
         -6    2    1    2    0  503  0.15503356081E+03  0.11357076417E+02 -0.85755420892E+02  0.24763710100E+03  0.17264342853E+03 0.  0.
        -24    2    5    5    0    0  0.33374584391E+02 -0.17590933796E+02 -0.83911587786E+02  0.12247966590E+03  0.80850542111E+02 0.  0.
          2    1    4    4  501    0 -0.15734793968E+03 -0.30820031067E+01 -0.11738037370E+03  0.19633141622E+03  0.00000000000E+00 0. -1.
         -1    1    4    4    0  501 -0.17298106323E+02  0.24979874859E+02 -0.57109140191E+01  0.30916551704E+02  0.00000000000E+00 0.  1.
          5    1    3    3  502    0  0.19612485193E+02 -0.33254948169E+02 -0.53476206557E+02  0.66123640409E+02  0.47000000000E+01 0. -1.
         13    1    6    6    0    0  0.59189802426E+02 -0.20133005012E+02 -0.66282697399E+02  0.91116225649E+02  0.00000000000E+00 0. -1.
        -14    1    6    6    0    0 -0.25815218035E+02  0.25420712159E+01 -0.17628890387E+02  0.31363440253E+02  0.00000000000E+00 0.  1.
         -5    1    5    5    0  503  0.12165897642E+03  0.28948010213E+02 -0.18438331057E+01  0.12515743510E+03  0.47000000000E+01 0.  1.
<mgrwt>
<rscale>  2 0.23379305E+03</rscale>
<asrwt>0</asrwt>
<pdfrwt beam="1">  1       21 0.21437370E-01 0.23428790E+03</pdfrwt>
<pdfrwt beam="2">  1       21 0.61794738E-01 0.23428790E+03</pdfrwt>
<totfact> 0.48340110E+04</totfact>
</mgrwt>
</event>
<event>
12    1  0.1473662E-001  0.2089919E+03  0.7546771E-02  0.1142381E+00
         21   -1    0    0  504  503  0.00000000000E+00  0.00000000000E+00  0.67428869582E+03  0.67428869582E+03  0.00000000000E+00 0.  1.
         21   -1    0    0  502  504 -0.00000000000E+00 -0.00000000000E+00 -0.15577956922E+03  0.15577956922E+03  0.00000000000E+00 0.  1.
          6    2    1    2  502    0  0.11433924002E+03 -0.27016770201E+02 -0.58019297662E+02  0.21682880285E+03  0.17275741131E+03 0.  0.
         24    2    3    3    0    0  0.13980256246E+03 -0.19711179954E+02 -0.10920082493E+02  0.16258695085E+03  0.79887303750E+02 0.  0.
         -6    2    1    2    0  503 -0.11433924002E+03  0.27016770201E+02  0.57652842427E+03  0.61323946220E+03  0.17284167995E+03 0.  0.
        -24    2    5    5    0    0 -0.44024374853E+02  0.32375624147E+02  0.13608974188E+03  0.16716635101E+03  0.80236179156E+02 0.  0.
          2    1    4    4  501    0  0.30240391892E+02 -0.21344390644E+02  0.27886727142E+02  0.46343649667E+02  0.00000000000E+00 0. -1.
         -1    1    4    4    0  501  0.10956217056E+03  0.16332106904E+01 -0.38806809634E+02  0.11624330118E+03  0.00000000000E+00 0.  1.
          5    1    3    3  502    0 -0.25463322439E+02 -0.73055902468E+01 -0.47099215169E+02  0.54241851997E+02  0.47000000000E+01 0. -1.
         13    1    6    6    0    0  0.14523938631E+02 -0.63612196048E+01  0.22265793837E+01  0.16011482254E+02  0.00000000000E+00 0. -1.
        -14    1    6    6    0    0 -0.58548313485E+02  0.38736843752E+02  0.13386316250E+03  0.15115486876E+03  0.00000000000E+00 0.  1.
         -5    1    5    5    0  503 -0.70314865163E+02 -0.53588539462E+01  0.44043868239E+03  0.44607311119E+03  0.47000000000E+01 0.  1.
<mgrwt>
<rscale>  2 0.20897448E+03</rscale>
<asrwt>0</asrwt>
<pdfrwt beam="1">  1       21 0.10373672E+00 0.20899190E+03</pdfrwt>
<pdfrwt beam="2">  1       21 0.23966088E-01 0.20899190E+03</pdfrwt>
<totfact> 0.12211102E+04</totfact>
</mgrwt>
</event>
<event>
12    1  0.1473662E-001  0.1784312E+03  0.7546771E-02  0.1169969E+00
         21   -1    0    0  504  503  0.00000000000E+00  0.00000000000E+00  0.13133581200E+03  0.13133581200E+03  0.00000000000E+00 0. -1.
         21   -1    0    0  502  504 -0.00000000000E+00 -0.00000000000E+00 -0.25431560494E+03  0.25431560494E+03  0.00000000000E+00 0. -1.
          6    2    1    2  502    0 -0.43360504969E+01 -0.30701477011E+02 -0.10937706683E+03  0.20928694348E+03  0.17571653291E+03 0.  0.
         24    2    3    3    0    0  0.28213257369E+02  0.44788631386E+02 -0.72182260863E+02  0.11893342944E+03  0.78312658380E+02 0.  0.
         -6    2    1    2    0  503  0.43360504969E+01  0.30701477011E+02 -0.13602726115E+02  0.17636447347E+03  0.17308382743E+03 0.  0.
        -24    2    5    5    0    0 -0.22781129880E+02  0.44428887980E+01 -0.67430305917E+02  0.11045276530E+03  0.84346002074E+02 0.  0.
          2    1    4    4  501    0  0.36330009858E+02  0.14295918135E+02 -0.77646520684E+02  0.86909292173E+02  0.00000000000E+00 0. -1.
         -1    1    4    4    0  501 -0.81167524894E+01  0.30492713251E+02  0.54642598213E+01  0.32024137268E+02  0.00000000000E+00 0.  1.
          5    1    3    3  502    0 -0.32549307866E+02 -0.75490108397E+02 -0.37194805965E+02  0.90353514039E+02  0.47000000000E+01 0. -1.
         13    1    6    6    0    0  0.90723873897E+01  0.26052916359E+02  0.53677693204E+01  0.28104725781E+02  0.00000000000E+00 0. -1.
        -14    1    6    6    0    0 -0.31853517270E+02 -0.21610027561E+02 -0.72798075237E+02  0.82348039514E+02  0.00000000000E+00 0.  1.
         -5    1    5    5    0  503  0.27117180377E+02  0.26258588213E+02  0.53827579802E+02  0.65911708170E+02  0.47000000000E+01 0.  1.
<mgrwt>
<rscale>  2 0.17777959E+03</rscale>
<asrwt>0</asrwt>
<pdfrwt beam="1">  1       21 0.20205510E-01 0.17843117E+03</pdfrwt>
<pdfrwt beam="2">  1       21 0.39125477E-01 0.17843117E+03</pdfrwt>
<totfact> 0.14329899E+05</totfact>
</mgrwt>
</event>
<event>
12    1  0.1473662E-001  0.2607539E+03  0.7546771E-02  0.1106817E+00
         21   -1    0    0  504  503  0.00000000000E+00  0.00000000000E+00  0.60197010307E+03  0.60197010307E+03  0.00000000000E+00 0. -1.
         21   -1    0    0  502  504 -0.00000000000E+00 -0.00000000000E+00 -0.11300283730E+03  0.11300283730E+03  0.00000000000E+00 0. -1.
          6    2    1    2  502    0  0.56758787980E+02  0.18561391173E+03  0.22241061792E+03  0.34208551116E+03  0.17286390526E+03 0.  0.
         24    2    3    3    0    0  0.79227987089E+02  0.13649070850E+03  0.91157477697E+02  0.20007343131E+03  0.82540321853E+02 0.  0.
         -6    2    1    2    0  503 -0.56758787980E+02 -0.18561391173E+03  0.26655664784E+03  0.37288742921E+03  0.17412209542E+03 0.  0.
        -24    2    5    5    0    0  0.18831026726E+02 -0.16105409389E+03  0.18967181310E+03  0.26220602810E+03  0.80520654229E+02 0.  0.
          2    1    4    4  501    0  0.44078341490E+02  0.12799576084E+03  0.92382221612E+02  0.16389109143E+03  0.00000000000E+00 0. -1.
         -1    1    4    4    0  501  0.35149645599E+02  0.84949476640E+01 -0.12247439157E+01  0.36182339880E+02  0.00000000000E+00 0.  1.
          5    1    3    3  502    0 -0.22469199110E+02  0.49123203226E+02  0.13125314023E+03  0.14201207985E+03  0.47000000000E+01 0. -1.
         11    1    6    6    0    0  0.35571207675E+02 -0.13956466090E+03  0.12023375787E+03  0.18761599590E+03  0.00000000000E+00 0. -1.
        -12    1    6    6    0    0 -0.16740180949E+02 -0.21489432997E+02  0.69438055226E+02  0.74590032192E+02  0.00000000000E+00 0.  1.
         -5    1    5    5    0  503 -0.75589814706E+02 -0.24559817834E+02  0.76884834736E+02  0.11068140111E+03  0.47000000000E+01 0.  1.
<mgrwt>
<rscale>  2 0.26054401E+03</rscale>
<asrwt>0</asrwt>
<pdfrwt beam="1">  1       21 0.92610783E-01 0.26075388E+03</pdfrwt>
<pdfrwt beam="2">  1       21 0.17385052E-01 0.26075388E+03</pdfrwt>
<totfact> 0.28425699E+04</totfact>
</mgrwt>
</event>
<event>
12    1  0.1473662E-001  0.2143141E+03  0.7546771E-02  0.1138466E+00
         21   -1    0    0  504  503  0.00000000000E+00  0.00000000000E+00  0.11298712130E+04  0.11298712130E+04  0.00000000000E+00 0. -1.
         21   -1    0    0  502  504 -0.00000000000E+00 -0.00000000000E+00 -0.55896234278E+02  0.55896234278E+02  0.00000000000E+00 0. -1.
          6    2    1    2  502    0  0.11193205581E+03  0.54462341402E+02  0.22339244660E+03  0.30860087697E+03  0.17272922253E+03 0.  0.
         24    2    3    3    0    0  0.65059801884E+02  0.14444161078E+02  0.37915052835E+02  0.11309533601E+03  0.83135986109E+02 0.  0.
         -6    2    1    2    0  503 -0.11193205581E+03 -0.54462341402E+02  0.85058253216E+03  0.87716657035E+03  0.17445806479E+03 0.  0.
        -24    2    5    5    0    0 -0.14548432682E+03 -0.23250622655E+02  0.68361713649E+03  0.70396304952E+03  0.80779359867E+02 0.  0.
          4    1    4    4  501    0  0.63512572806E+02  0.19402506797E+02  0.60551292100E+02  0.89870813669E+02  0.00000000000E+00 0. -1.
         -3    1    4    4    0  501  0.15472290781E+01 -0.49583457191E+01 -0.22636239266E+02  0.23224522346E+02  0.00000000000E+00 0.  1.
          5    1    3    3  502    0  0.46872253931E+02  0.40018180324E+02  0.18547739377E+03  0.19550554096E+03  0.47000000000E+01 0. -1.
         13    1    6    6    0    0 -0.53767804177E+02  0.29751272167E+02  0.28132849778E+03  0.28796152282E+03  0.00000000000E+00 0. -1.
        -14    1    6    6    0    0 -0.91716522643E+02 -0.53001894822E+02  0.40228863871E+03  0.41600152670E+03  0.00000000000E+00 0.  1.
         -5    1    5    5    0  503  0.33552271005E+02 -0.31211718748E+02  0.16696539567E+03  0.17320352083E+03  0.47000000000E+01 0.  1.
<mgrwt>
<rscale>  2 0.21396203E+03</rscale>
<asrwt>0</asrwt>
<pdfrwt beam="1">  1       21 0.17382632E+00 0.21431413E+03</pdfrwt>
<pdfrwt beam="2">  1       21 0.85994215E-02 0.21431413E+03</pdfrwt>
<totfact> 0.20911771E+04</totfact>
</mgrwt>
</event>
<event>
12    1  0.1473662E-001  0.2576507E+03  0.7546771E-02  0.1108681E+00
         21   -1    0    0  504  503  0.00000000000E+00  0.00000000000E+00  0.54775437220E+02  0.54775437220E+02  0.00000000000E+00 0.  1.
         21   -1    0    0  502  504 -0.00000000000E+00 -0.00000000000E+00 -0.14628104322E+04  0.14628104322E+04  0.00000000000E+00 0.  1.
          6    2    1    2  502    0  0.17562115218E+03  0.73145539352E+02 -0.10214191401E+04  0.10534139523E+04  0.17375510382E+03 0.  0.
         24    2    3    3    0    0  0.11601069154E+03  0.97842715439E+02 -0.51182201027E+03  0.53972661329E+03  0.79444127399E+02 0.  0.
         -6    2    1    2    0  503 -0.17562115218E+03 -0.73145539352E+02 -0.38661585487E+03  0.46417191712E+03  0.17259979833E+03 0.  0.
        -24    2    5    5    0    0 -0.18016181386E+03 -0.76780676731E+02 -0.39804264615E+03  0.45051565879E+03  0.78567545238E+02 0.  0.
          4    1    4    4  501    0  0.64945546764E+01  0.52175364123E+02 -0.16403116310E+03  0.17225176437E+03  0.00000000000E+00 0. -1.
         -3    1    4    4    0  501  0.10951613686E+03  0.45667351316E+02 -0.34779084717E+03  0.36747484892E+03  0.00000000000E+00 0.  1.
          5    1    3    3  502    0  0.59610460640E+02 -0.24697176087E+02 -0.50959712983E+03  0.51368733900E+03  0.47000000000E+01 0. -1.
         13    1    6    6    0    0 -0.35354044384E+02 -0.51670570697E+02 -0.14404425662E+03  0.15706210299E+03  0.00000000000E+00 0. -1.
        -14    1    6    6    0    0 -0.14480776948E+03 -0.25110106034E+02 -0.25399838954E+03  0.29345355580E+03  0.00000000000E+00 0.  1.
         -5    1    5    5    0  503  0.45406616867E+01  0.36351373789E+01  0.11426791287E+02  0.13656258324E+02  0.47000000000E+01 0.  1.
<mgrwt>
<rscale>  2 0.25745608E+03</rscale>
<asrwt>0</asrwt>
<pdfrwt beam="1">  1       21 0.84269900E-02 0.25765072E+03</pdfrwt>
<pdfrwt beam="2">  1       21 0.22504777E+00 0.25765072E+03</pdfrwt>
<totfact> 0.97556208E+03</totfact>
</mgrwt>
</event>
<event>
12    1  0.1473662E-001  0.1936481E+03  0.7546771E-02  0.1158524E+00
         21   -1    0    0  504  503  0.00000000000E+00  0.00000000000E+00  0.39172742378E+02  0.39172742378E+02  0.00000000000E+00 0. -1.
         21   -1    0    0  502  504 -0.00000000000E+00 -0.00000000000E+00 -0.90763571707E+03  0.90763571707E+03  0.00000000000E+00 0. -1.
          6    2    1    2  502    0  0.47605747320E+02 -0.19437599974E+02 -0.34680832226E+03  0.39037052319E+03  0.17166538822E+03 0.  0.
         24    2    3    3    0    0 -0.37876101456E+02 -0.29315939384E+02 -0.17515134752E+03  0.19829518631E+03  0.79680380346E+02 0.  0.
         -6    2    1    2    0  503 -0.47605747320E+02  0.19437599974E+02 -0.52165465243E+03  0.55643793626E+03  0.18669620520E+03 0.  0.
        -24    2    5    5    0    0 -0.12640639853E+02  0.36692067604E+02 -0.10744103533E+03  0.14036668516E+03  0.81566761803E+02 0.  0.
          2    1    4    4  501    0 -0.46330866258E+02 -0.49513494278E+02 -0.10667066631E+03  0.12639923392E+03  0.00000000000E+00 0. -1.
         -1    1    4    4    0  501  0.84547648016E+01  0.20197554894E+02 -0.68480681204E+02  0.71895952388E+02  0.00000000000E+00 0.  1.
          5    1    3    3  502    0  0.85481848776E+02  0.98783394098E+01 -0.17165697474E+03  0.19207533688E+03  0.47000000000E+01 0. -1.
         13    1    6    6    0    0 -0.12720033247E+02  0.35077273553E+02 -0.12104584941E+03  0.12666614396E+03  0.00000000000E+00 0. -1.
        -14    1    6    6    0    0  0.79393394043E-01  0.16147940503E+01  0.13604814083E+02  0.13700541207E+02  0.00000000000E+00 0.  1.
         -5    1    5    5    0  503 -0.34965107467E+02 -0.17254467629E+02 -0.41421361710E+03  0.41607125109E+03  0.47000000000E+01 0.  1.
<mgrwt>
<rscale>  2 0.18993077E+03</rscale>
<asrwt>0</asrwt>
<pdfrwt beam="1">  1       21 0.60265763E-02 0.19364814E+03</pdfrwt>
<pdfrwt beam="2">  1       21 0.13963625E+00 0.19364814E+03</pdfrwt>
<totfact> 0.70464144E+04</totfact>
</mgrwt>
</event>
<event>
12    1  0.1473662E-001  0.2565622E+03  0.7546771E-02  0.1109488E+00
         21   -1    0    0  504  503  0.00000000000E+00  0.00000000000E+00  0.87336190075E+03  0.87336190075E+03  0.00000000000E+00 0.  1.
         21   -1    0    0  502  504 -0.00000000000E+00 -0.00000000000E+00 -0.12603581397E+03  0.12603581397E+03  0.00000000000E+00 0. -1.
          6    2    1    2  502    0 -0.43027274759E+02  0.18233136699E+03  0.54536204309E+02  0.26062713566E+03  0.17278956132E+03 0.  0.
         24    2    3    3    0    0  0.19391513575E+02  0.10163458175E+03  0.83070034877E+02  0.15458777612E+03  0.79316649101E+02 0.  0.
         -6    2    1    2    0  503  0.43027274759E+02 -0.18233136699E+03  0.69278988247E+03  0.73877057907E+03  0.17529424828E+03 0.  0.
        -24    2    5    5    0    0 -0.25086008962E+02 -0.16068482248E+03  0.43736142272E+03  0.47349000993E+03  0.80367004442E+02 0.  0.
          2    1    4    4  501    0  0.15882231517E+02 -0.87111280415E+01  0.21730663443E+02  0.28290471247E+02  0.00000000000E+00 0. -1.
         -1    1    4    4    0  501  0.35092820580E+01  0.11034570979E+03  0.61339371434E+02  0.12629730487E+03  0.00000000000E+00 0.  1.
          5    1    3    3  502    0 -0.62418788334E+02  0.80696785238E+02 -0.28533830568E+02  0.10603935954E+03  0.47000000000E+01 0. -1.
         13    1    6    6    0    0 -0.22719117352E+02 -0.17007486585E+03  0.41783373486E+03  0.45169309080E+03  0.00000000000E+00 0. -1.
        -14    1    6    6    0    0 -0.23668916099E+01  0.93900433794E+01  0.19527687862E+02  0.21796919136E+02  0.00000000000E+00 0.  1.
         -5    1    5    5    0  503  0.68113283721E+02 -0.21646544511E+02  0.25542845975E+03  0.26528056914E+03  0.47000000000E+01 0.  1.
<mgrwt>
<rscale>  2 0.25613492E+03</rscale>
<asrwt>0</asrwt>
<pdfrwt beam="1">  1       21 0.13436337E+00 0.25656217E+03</pdfrwt>
<pdfrwt beam="2">  1       21 0.19390126E-01 0.25656217E+03</pdfrwt>
<totfact> 0.93194546E+03</totfact>
</mgrwt>
</event>
<event>
12    1  0.1473662E-001  0.1964657E+03  0.7546771E-02  0.1152901E+00
         21   -1    0    0  504  503  0.00000000000E+00  0.00000000000E+00  0.25071525138E+02  0.25071525138E+02  0.00000000000E+00 0. -1.
         21   -1    0    0  502  504 -0.00000000000E+00 -0.00000000000E+00 -0.16467986595E+04  0.16467986595E+04  0.00000000000E+00 0. -1.
          6    2    1    2  502    0  0.90775101442E+01  0.91669542574E+02 -0.10280799776E+04  0.10465576931E+04  0.17276822158E+03 0.  0.
         24    2    3    3    0    0 -0.47574112939E+02  0.58409624478E+02 -0.41939097054E+03  0.43431588965E+03  0.84062627752E+02 0.  0.
         -6    2    1    2    0  503 -0.90775101442E+01 -0.91669542574E+02 -0.59364715676E+03  0.62531249155E+03  0.17353114744E+03 0.  0.
        -24    2    5    5    0    0  0.23474995008E+02 -0.12461322453E+03 -0.44948927553E+03  0.47382474785E+03  0.79935922670E+02 0.  0.
          4    1    4    4  501    0 -0.22844593345E+02  0.68952444117E+02 -0.19096341417E+03  0.20431187079E+03  0.00000000000E+00 0. -1.
         -3    1    4    4    0  501 -0.24729519594E+02 -0.10542819639E+02 -0.22842755637E+03  0.23000401886E+03  0.00000000000E+00 0.  1.
          5    1    3    3  502    0  0.56651623083E+02  0.33259918097E+02 -0.60868900709E+03  0.61224180346E+03  0.47000000000E+01 0. -1.
         13    1    6    6    0    0  0.30441436713E+02 -0.52463839866E+02 -0.31749787685E+03  0.32323990683E+03  0.00000000000E+00 0. -1.
        -14    1    6    6    0    0 -0.69664417050E+01 -0.72149384666E+02 -0.13199139868E+03  0.15058484102E+03  0.00000000000E+00 0.  1.
         -5    1    5    5    0  503 -0.32552505152E+02  0.32943681958E+02 -0.14415788123E+03  0.15148774370E+03  0.47000000000E+01 0.  1.
<mgrwt>
<rscale>  2 0.19629708E+03</rscale>
<asrwt>0</asrwt>
<pdfrwt beam="1">  1       21 0.38571569E-02 0.19646568E+03</pdfrwt>
<pdfrwt beam="2">  1       21 0.25335369E+00 0.19646568E+03</pdfrwt>
<totfact> 0.26378590E+04</totfact>
</mgrwt>
</event>
<event>
12    1  0.1473662E-001  0.1869305E+03  0.7546771E-02  0.1165822E+00
         21   -1    0    0  504  503  0.00000000000E+00  0.00000000000E+00  0.74574980963E+02  0.74574980963E+02  0.00000000000E+00 0.  1.
         21   -1    0    0  502  504 -0.00000000000E+00 -0.00000000000E+00 -0.60974293807E+03  0.60974293807E+03  0.00000000000E+00 0. -1.
          6    2    1    2  502    0  0.60425925141E+02  0.32667455039E+02 -0.44707329084E+03  0.47766926770E+03  0.15354135235E+03 0.  0.
         24    2    3    3    0    0  0.90533263245E+02 -0.23436630150E+01 -0.34788734479E+03  0.36816049140E+03  0.79465579032E+02 0.  0.
         -6    2    1    2    0  503 -0.60425925141E+02 -0.32667455039E+02 -0.88094666276E+02  0.20664865133E+03  0.17385206304E+03 0.  0.
        -24    2    5    5    0    0  0.43005220168E+01  0.53529253690E+01  0.12625071464E+02  0.80944165103E+02  0.79658126611E+02 0.  0.
          2    1    4    4  501    0  0.32165216006E+02 -0.39424843083E+02 -0.16341855108E+03  0.17115648457E+03  0.00000000000E+00 0. -1.
         -1    1    4    4    0  501  0.58368047239E+02  0.37081180068E+02 -0.18446879371E+03  0.19700400683E+03  0.00000000000E+00 0.  1.
          5    1    3    3  502    0 -0.30107338104E+02  0.35011118054E+02 -0.99185946041E+02  0.10950877630E+03  0.47000000000E+01 0. -1.
         13    1    6    6    0    0  0.58030621709E+01 -0.34371465040E+02  0.20471089496E+02  0.40424480760E+02  0.00000000000E+00 0. -1.
        -14    1    6    6    0    0 -0.15025401541E+01  0.39724390409E+02 -0.78460180324E+01  0.40519684343E+02  0.00000000000E+00 0.  1.
         -5    1    5    5    0  503 -0.64726447158E+02 -0.38020380408E+02 -0.10071973774E+03  0.12570448623E+03  0.47000000000E+01 0.  1.
<mgrwt>
<rscale>  2 0.18206258E+03</rscale>
<asrwt>0</asrwt>
<pdfrwt beam="1">  1       21 0.11473074E-01 0.18693045E+03</pdfrwt>
<pdfrwt beam="2">  1       21 0.93806603E-01 0.18693045E+03</pdfrwt>
<totfact> 0.60828362E+04</totfact>
</mgrwt>
</event>
<event>
12    1  0.1473662E-001  0.2717258E+03  0.7546771E-02  0.1101061E+00
         21   -1    0    0  504  503  0.00000000000E+00  0.00000000000E+00  0.14000544053E+04  0.14000544053E+04  0.00000000000E+00 0.  1.
         21   -1    0    0  502  504 -0.00000000000E+00 -0.00000000000E+00 -0.79555749513E+02  0.79555749513E+02  0.00000000000E+00 0. -1.
          6    2    1    2  502    0  0.21033656751E+03  0.69825639339E+00  0.21829719820E+03  0.34440843012E+03  0.16346724687E+03 0.  0.
         24    2    3    3    0    0  0.15989670511E+03 -0.19992625853E+02  0.22633151684E+03  0.28910081217E+03  0.79916598323E+02 0.  0.
         -6    2    1    2    0  503 -0.21033656751E+03 -0.69825639339E+00  0.11022014576E+04  0.11352017247E+04  0.17202599644E+03 0.  0.
        -24    2    5    5    0    0 -0.13288916329E+02 -0.11520639242E+02  0.37154921046E+03  0.37835319491E+03  0.69231523743E+02 0.  0.
          2    1    4    4  501    0  0.12440520216E+03  0.59407769823E+01  0.11545441654E+03  0.16982835292E+03  0.00000000000E+00 0. -1.
         -1    1    4    4    0  501  0.35491502940E+02 -0.25933402835E+02  0.11087710030E+03  0.11927245925E+03  0.00000000000E+00 0.  1.
          5    1    3    3  502    0  0.50439862407E+02  0.20690882246E+02 -0.80343186388E+01  0.55307617954E+02  0.47000000000E+01 0. -1.
         13    1    6    6    0    0  0.21692689245E+01 -0.23684239915E+02  0.42385224414E+02  0.48602018442E+02  0.00000000000E+00 0. -1.
        -14    1    6    6    0    0 -0.15458185254E+02  0.12163600673E+02  0.32916398605E+03  0.32975117647E+03  0.00000000000E+00 0.  1.
         -5    1    5    5    0  503 -0.19704765118E+03  0.10822382849E+02  0.73065224711E+03  0.75684852977E+03  0.47000000000E+01 0.  1.
<mgrwt>
<rscale>  2 0.27038184E+03</rscale>
<asrwt>0</asrwt>
<pdfrwt beam="1">  1       21 0.21539297E+00 0.27172579E+03</pdfrwt>
<pdfrwt beam="2">  1       21 0.12239347E-01 0.27172579E+03</pdfrwt>
<totfact> 0.57087929E+03</totfact>
</mgrwt>
</event>
<event>
12    1  0.1473662E-001  0.2535039E+03  0.7546771E-02  0.1111156E+00
         21   -1    0    0  504  503  0.00000000000E+00  0.00000000000E+00  0.46405946734E+02  0.46405946734E+02  0.00000000000E+00 0.  1.
         21   -1    0    0  502  504 -0.00000000000E+00 -0.00000000000E+00 -0.26914063852E+04  0.26914063852E+04  0.00000000000E+00 0. -1.
          6    2    1    2  502    0  0.15947431174E+03  0.93794451836E+02 -0.36851981763E+03  0.44729306300E+03  0.17330543247E+03 0.  0.
         24    2    3    3    0    0  0.14437158571E+03  0.12461377080E+03 -0.25491720319E+03  0.32852620414E+03  0.81086001837E+02 0.  0.
         -6    2    1    2    0  503 -0.15947431174E+03 -0.93794451836E+02 -0.22764806208E+04  0.22905192689E+04  0.17287292735E+03 0.  0.
        -24    2    5    5    0    0 -0.20387369650E+02 -0.44504625454E+02 -0.11955968424E+04  0.11995992457E+04  0.84795249726E+02 0.  0.
          4    1    4    4  501    0  0.19877127557E+02  0.50791744817E+02 -0.33528857401E+02  0.64024103431E+02  0.00000000000E+00 0. -1.
         -3    1    4    4    0  501  0.12449445815E+03  0.73822025984E+02 -0.22138834578E+03  0.26450210071E+03  0.00000000000E+00 0.  1.
          5    1    3    3  502    0  0.15102726028E+02 -0.30819318965E+02 -0.11360261445E+03  0.11876685886E+03  0.47000000000E+01 0. -1.
         13    1    6    6    0    0 -0.33442808125E+02  0.15147483966E+02 -0.47965544326E+03  0.48105842882E+03  0.00000000000E+00 0. -1.
        -14    1    6    6    0    0  0.13055438475E+02 -0.59652109420E+02 -0.71594139909E+03  0.71854081691E+03  0.00000000000E+00 0.  1.
         -5    1    5    5    0  503 -0.13908694209E+03 -0.49289826382E+02 -0.10808837785E+04  0.10909200232E+04  0.47000000000E+01 0.  1.
<mgrwt>
<rscale>  2 0.25343000E+03</rscale>
<asrwt>0</asrwt>
<pdfrwt beam="1">  1       21 0.71393759E-02 0.25350390E+03</pdfrwt>
<pdfrwt beam="2">  1       21 0.41406255E+00 0.25350390E+03</pdfrwt>
<totfact> 0.95715334E+02</totfact>
</mgrwt>
</event>
<event>
12    1  0.1473662E-001  0.2393948E+03  0.7546771E-02  0.1120256E+00
         21   -1    0    0  504  503  0.00000000000E+00  0.00000000000E+00  0.11517767964E+03  0.11517767964E+03  0.00000000000E+00 0. -1.
         21   -1    0    0  502  504 -0.00000000000E+00 -0.00000000000E+00 -0.10347451793E+04  0.10347451793E+04  0.00000000000E+00 0. -1.
          6    2    1    2  502    0 -0.97450339089E+02  0.13285570870E+03 -0.87449727135E+03  0.90667267161E+03  0.17367397024E+03 0.  0.
         24    2    3    3    0    0 -0.26820478478E+02  0.68804319697E+02 -0.22154019746E+03  0.24677405215E+03  0.79774690511E+02 0.  0.
         -6    2    1    2    0  503  0.97450339089E+02 -0.13285570870E+03 -0.45070228293E+02  0.24325018731E+03  0.17318233231E+03 0.  0.
        -24    2    5    5    0    0  0.85029812914E+02 -0.16566747851E+03 -0.30470827971E+02  0.20496031661E+03  0.80027979528E+02 0.  0.
          2    1    4    4  501    0 -0.43476467571E+02  0.21797252238E+02 -0.57444215018E+02  0.75267265638E+02  0.00000000000E+00 0. -1.
         -1    1    4    4    0  501  0.16655989093E+02  0.47007067459E+02 -0.16409598245E+03  0.17150678651E+03  0.00000000000E+00 0.  1.
          5    1    3    3  502    0 -0.70629860611E+02  0.64051389002E+02 -0.65295707388E+03  0.65989861947E+03  0.47000000000E+01 0. -1.
         11    1    6    6    0    0  0.99020939093E+02 -0.12419592598E+03 -0.26188737470E+02  0.16098330466E+03  0.00000000000E+00 0. -1.
        -12    1    6    6    0    0 -0.13991126179E+02 -0.41471552530E+02 -0.42820905014E+01  0.43977011950E+02  0.00000000000E+00 0.  1.
         -5    1    5    5    0  503  0.12420526175E+02  0.32811769809E+02 -0.14599400321E+02  0.38289870700E+02  0.47000000000E+01 0.  1.
<mgrwt>
<rscale>  2 0.23930561E+03</rscale>
<asrwt>0</asrwt>
<pdfrwt beam="1">  1       21 0.17719642E-01 0.23939477E+03</pdfrwt>
<pdfrwt beam="2">  1       21 0.15919157E+00 0.23939477E+03</pdfrwt>
<totfact> 0.71206407E+03</totfact>
</mgrwt>
</event>
<event>
12    1  0.1473662E-001  0.2428424E+03  0.7546771E-02  0.1117944E+00
         21   -1    0    0  504  503  0.00000000000E+00  0.00000000000E+00  0.95504384322E+03  0.95504384322E+03  0.00000000000E+00 0. -1.
         21   -1    0    0  502  504 -0.00000000000E+00 -0.00000000000E+00 -0.64913377386E+02  0.64913377386E+02  0.00000000000E+00 0.  1.
          6    2    1    2  502    0  0.20920283791E+02  0.16862687643E+03  0.33178535015E+03  0.41116173466E+03  0.17349285792E+03 0.  0.
         24    2    3    3    0    0  0.67124419196E+02  0.13444569151E+03  0.18258232566E+03  0.25120296482E+03  0.84766103343E+02 0.  0.
         -6    2    1    2    0  503 -0.20920283791E+02 -0.16862687643E+03  0.55834511568E+03  0.60879548594E+03  0.17323392788E+03 0.  0.
        -24    2    5    5    0    0 -0.94720887000E+01 -0.66079815978E+02  0.43257674159E+03  0.44604802912E+03  0.85906602649E+02 0.  0.
          4    1    4    4  501    0  0.34157383180E+02  0.85243527582E+02  0.16598601950E+03  0.18969592639E+03  0.00000000000E+00 0. -1.
         -3    1    4    4    0  501  0.32967036016E+02  0.49202163923E+02  0.16596306160E+02  0.61507038431E+02  0.00000000000E+00 0.  1.
          5    1    3    3  502    0 -0.46204135405E+02  0.34181184926E+02  0.14920302449E+03  0.15995876984E+03  0.47000000000E+01 0. -1.
         13    1    6    6    0    0  0.34042219302E+02 -0.41075454496E+02  0.15379718619E+03  0.16278710065E+03  0.00000000000E+00 0. -1.
        -14    1    6    6    0    0 -0.43514308002E+02 -0.25004361483E+02  0.27877955539E+03  0.28326092847E+03  0.00000000000E+00 0.  1.
         -5    1    5    5    0  503 -0.11448195091E+02 -0.10254706045E+03  0.12576837409E+03  0.16274745682E+03  0.47000000000E+01 0.  1.
<mgrwt>
<rscale>  2 0.24279620E+03</rscale>
<asrwt>0</asrwt>
<pdfrwt beam="1">  1       21 0.14692981E+00 0.24284245E+03</pdfrwt>
<pdfrwt beam="2">  1       21 0.99866742E-02 0.24284245E+03</pdfrwt>
<totfact> 0.24913355E+04</totfact>
</mgrwt>
</event>
<event>
12    1  0.1473662E-001  0.1947640E+03  0.7546771E-02  0.1154294E+00
         21   -1    0    0  504  503  0.00000000000E+00  0.00000000000E+00  0.78044622233E+02  0.78044622233E+02  0.00000000000E+00 0.  1.
         21   -1    0    0  502  504 -0.00000000000E+00 -0.00000000000E+00 -0.67975197943E+03  0.67975197943E+03  0.00000000000E+00 0. -1.
          6    2    1    2  502    0  0.25565044629E+02  0.82202415996E+02 -0.50332898857E+03  0.53959641879E+03  0.17439442574E+03 0.  0.
         24    2    3    3    0    0  0.58523674325E+02  0.77036061919E+02 -0.21545818906E+03  0.24976086248E+03  0.81232271317E+02 0.  0.
         -6    2    1    2    0  503 -0.25565044629E+02 -0.82202415996E+02 -0.98378368622E+02  0.21820018287E+03  0.17470606083E+03 0.  0.
        -24    2    5    5    0    0  0.14818357453E+02 -0.25301430747E+02 -0.11795706182E+03  0.14557817165E+03  0.80121092803E+02 0.  0.
          4    1    4    4  501    0  0.49612790248E+02  0.30947906386E+02 -0.18446363710E+03  0.19350978084E+03  0.00000000000E+00 0. -1.
         -3    1    4    4    0  501  0.89108840776E+01  0.46088155533E+02 -0.30994551953E+02  0.56251081645E+02  0.00000000000E+00 0.  1.
          5    1    3    3  502    0 -0.32958629696E+02  0.51663540771E+01 -0.28787079951E+03  0.28983555631E+03  0.47000000000E+01 0. -1.
         13    1    6    6    0    0  0.23235457080E+02 -0.26438231898E+02 -0.12781101503E+03  0.13256893352E+03  0.00000000000E+00 0. -1.
        -14    1    6    6    0    0 -0.84170996267E+01  0.11368011508E+01  0.98539532061E+01  0.13009238132E+02  0.00000000000E+00 0.  1.
         -5    1    5    5    0  503 -0.40383402083E+02 -0.56900985249E+02  0.19578693203E+02  0.72622011220E+02  0.47000000000E+01 0.  1.
<mgrwt>
<rscale>  2 0.19469409E+03</rscale>
<asrwt>0</asrwt>
<pdfrwt beam="1">  1       21 0.12006865E-01 0.19476400E+03</pdfrwt>
<pdfrwt beam="2">  1       21 0.10457723E+00 0.19476400E+03</pdfrwt>
<totfact> 0.43199643E+04</totfact>
</mgrwt>
</event>
<event>
12    1  0.1473662E-001  0.1797978E+03  0.7546771E-02  0.1169843E+00
         21   -1    0    0  504  503  0.00000000000E+00  0.00000000000E+00  0.11035910697E+03  0.11035910697E+03  0.00000000000E+00 0.  1.
         21   -1    0    0  502  504 -0.00000000000E+00 -0.00000000000E+00 -0.30648994950E+03  0.30648994950E+03  0.00000000000E+00 0.  1.
          6    2    1    2  502    0 -0.38281460894E+02 -0.21817247756E+02 -0.15634267071E+03  0.23270147407E+03  0.16662977766E+03 0.  0.
         24    2    3    3    0    0  0.14969294787E+02  0.20824166439E+02 -0.30804396016E+02  0.89747349971E+02  0.80299130248E+02 0.  0.
         -6    2    1    2    0  503  0.38281460894E+02  0.21817247756E+02 -0.39788171826E+02  0.18414758240E+03  0.17431514833E+03 0.  0.
        -24    2    5    5    0    0  0.48226275004E+02 -0.95957740051E+01  0.36868592853E+02  0.10057709218E+03  0.79615361917E+02 0.  0.
          4    1    4    4  501    0  0.29762242253E+02 -0.22953866914E+02 -0.18689608757E+02  0.41975856700E+02  0.00000000000E+00 0. -1.
         -3    1    4    4    0  501 -0.14792947466E+02  0.43778033353E+02 -0.12114787259E+02  0.47771493271E+02  0.00000000000E+00 0.  1.
          5    1    3    3  502    0 -0.53250755681E+02 -0.42641414195E+02 -0.12553827469E+03  0.14295412410E+03  0.47000000000E+01 0. -1.
         11    1    6    6    0    0 -0.95790440570E+01  0.19433570685E+02  0.27821063399E+02  0.35262349939E+02  0.00000000000E+00 0. -1.
        -12    1    6    6    0    0  0.57805319061E+02 -0.29029344690E+02  0.90475294543E+01  0.65314742242E+02  0.00000000000E+00 0.  1.
         -5    1    5    5    0  503 -0.99448141097E+01  0.31413021761E+02 -0.76656764679E+02  0.83570490215E+02  0.47000000000E+01 0.  1.
<mgrwt>
<rscale>  2 0.17790799E+03</rscale>
<asrwt>0</asrwt>
<pdfrwt beam="1">  1       21 0.16978324E-01 0.17979776E+03</pdfrwt>
<pdfrwt beam="2">  1       21 0.47152299E-01 0.17979776E+03</pdfrwt>
<totfact> 0.13516634E+05</totfact>
</mgrwt>
</event>
<event>
12    1  0.1473662E-001  0.1868331E+03  0.7546771E-02  0.1162196E+00
         21   -1    0    0  504  503  0.00000000000E+00  0.00000000000E+00  0.65624737156E+03  0.65624737156E+03  0.00000000000E+00 0.  1.
         21   -1    0    0  502  504 -0.00000000000E+00 -0.00000000000E+00 -0.53947010713E+02  0.53947010713E+02  0.00000000000E+00 0.  1.
          6    2    1    2  502    0 -0.10473652385E+02 -0.65111813241E+02  0.23940599664E+03  0.30368048777E+03  0.17480664120E+03 0.  0.
         24    2    3    3    0    0 -0.52828032386E+02  0.14735385092E+02  0.12142219090E+03  0.15498032972E+03  0.79168311706E+02 0.  0.
         -6    2    1    2    0  503  0.10473652385E+02  0.65111813241E+02  0.36289436421E+03  0.40651389450E+03  0.17091512874E+03 0.  0.
        -24    2    5    5    0    0 -0.35150260394E+02  0.39343106119E+02  0.33248886922E+03  0.34575081517E+03  0.78812164243E+02 0.  0.
          4    1    4    4  501    0 -0.39579005627E+02  0.46669872025E+02  0.85292982891E+02  0.10497365180E+03  0.00000000000E+00 0. -1.
         -3    1    4    4    0  501 -0.13249026760E+02 -0.31934486933E+02  0.36129208011E+02  0.50006677927E+02  0.00000000000E+00 0.  1.
          5    1    3    3  502    0  0.42354380001E+02 -0.79847198332E+02  0.11798380573E+03  0.14870015804E+03  0.47000000000E+01 0. -1.
         13    1    6    6    0    0 -0.44910704893E+02 -0.33003149423E+00  0.98954626669E+02  0.10866967596E+03  0.00000000000E+00 0. -1.
        -14    1    6    6    0    0  0.97604444995E+01  0.39673137613E+02  0.23353424255E+03  0.23708113921E+03  0.00000000000E+00 0.  1.
         -5    1    5    5    0  503  0.45623912779E+02  0.25768707122E+02  0.30405494986E+02  0.60763079328E+02  0.47000000000E+01 0.  1.
<mgrwt>
<rscale>  2 0.18591742E+03</rscale>
<asrwt>0</asrwt>
<pdfrwt beam="1">  1       21 0.10096113E+00 0.18683310E+03</pdfrwt>
<pdfrwt beam="2">  1       21 0.82995405E-02 0.18683310E+03</pdfrwt>
<totfact> 0.90547350E+04</totfact>
</mgrwt>
</event>
<event>
12    1  0.1473662E-001  0.1744729E+03  0.7546771E-02  0.1173879E+00
         21   -1    0    0  504  503  0.00000000000E+00  0.00000000000E+00  0.53723683881E+03  0.53723683881E+03  0.00000000000E+00 0.  1.
         21   -1    0    0  502  504 -0.00000000000E+00 -0.00000000000E+00 -0.82007192421E+02  0.82007192421E+02  0.00000000000E+00 0.  1.
          6    2    1    2  502    0  0.91925077116E+01  0.17288741839E+02  0.53925865127E+02  0.18261651851E+03  0.17337067547E+03 0.  0.
         24    2    3    3    0    0  0.57982222276E+02  0.47785060564E+02  0.60809944801E+02  0.12447924771E+03  0.78433944257E+02 0.  0.
         -6    2    1    2    0  503 -0.91925077116E+01 -0.17288741839E+02  0.40130378126E+03  0.43662751272E+03  0.17092529718E+03 0.  0.
        -24    2    5    5    0    0  0.97288121436E+01 -0.13325235220E+02  0.78890971439E+02  0.11360145236E+03  0.80058059715E+02 0.  0.
          2    1    4    4  501    0  0.23012550630E+02  0.54458407853E+02  0.65881266983E+02  0.88519133591E+02  0.00000000000E+00 0. -1.
         -1    1    4    4    0  501  0.34969671646E+02 -0.66733472895E+01 -0.50713221822E+01  0.35960114123E+02  0.00000000000E+00 0.  1.
          5    1    3    3  502    0 -0.48789714564E+02 -0.30496318725E+02 -0.68840796741E+01  0.58137270799E+02  0.47000000000E+01 0. -1.
         11    1    6    6    0    0  0.18008076135E+02  0.16245546370E+02  0.79263807920E+02  0.82891253030E+02  0.00000000000E+00 0. -1.
        -12    1    6    6    0    0 -0.82792639913E+01 -0.29570781590E+02 -0.37283648131E+00  0.30710199334E+02  0.00000000000E+00 0.  1.
         -5    1    5    5    0  503 -0.18921319855E+02 -0.39635066186E+01  0.32241280983E+03  0.32302606036E+03  0.47000000000E+01 0.  1.
<mgrwt>
<rscale>  2 0.17386228E+03</rscale>
<asrwt>0</asrwt>
<pdfrwt beam="1">  1       21 0.82651819E-01 0.17447290E+03</pdfrwt>
<pdfrwt beam="2">  1       21 0.12616492E-01 0.17447290E+03</pdfrwt>
<totfact> 0.69080436E+04</totfact>
</mgrwt>
</event>
<event>
12    1  0.1473662E-001  0.3192349E+03  0.7546771E-02  0.1076061E+00
         21   -1    0    0  504  503  0.00000000000E+00  0.00000000000E+00  0.14348566134E+03  0.14348566134E+03  0.00000000000E+00 0.  1.
         21   -1    0    0  502  504 -0.00000000000E+00 -0.00000000000E+00 -0.72011810420E+03  0.72011810420E+03  0.00000000000E+00 0. -1.
          6    2    1    2  502    0  0.13780789634E+03  0.23003157550E+03 -0.23516868632E+03  0.39650377761E+03  0.17322064719E+03 0.  0.
         24    2    3    3    0    0  0.16711203154E+03  0.19029023921E+03 -0.21919255277E+03  0.34439396094E+03  0.80156215742E+02 0.  0.
         -6    2    1    2    0  503 -0.13780789634E+03 -0.23003157550E+03 -0.34146375654E+03  0.46709998793E+03  0.17227698533E+03 0.  0.
        -24    2    5    5    0    0 -0.93000789445E+02 -0.49519900675E+02 -0.13203740168E+03  0.18696853720E+03  0.80137326273E+02 0.  0.
          2    1    4    4  501    0  0.15494880076E+03  0.12636980041E+03 -0.15497512717E+03  0.25297380765E+03  0.00000000000E+00 0. -1.
         -1    1    4    4    0  501  0.12163230781E+02  0.63920438795E+02 -0.64217425595E+02  0.91420153296E+02  0.00000000000E+00 0.  1.
          5    1    3    3  502    0 -0.29304135196E+02  0.39741336290E+02 -0.15976133549E+02  0.52109816665E+02  0.47000000000E+01 0. -1.
         11    1    6    6    0    0 -0.84865119274E+02 -0.60278988024E+02 -0.13746350559E+03  0.17242929054E+03  0.00000000000E+00 0. -1.
        -12    1    6    6    0    0 -0.81356701704E+01  0.10759087350E+02  0.54261039185E+01  0.14539246660E+02  0.00000000000E+00 0.  1.
         -5    1    5    5    0  503 -0.44807106899E+02 -0.18051167482E+03 -0.20942635487E+03  0.28013145073E+03  0.47000000000E+01 0.  1.
<mgrwt>
<rscale>  2 0.31910708E+03</rscale>
<asrwt>0</asrwt>
<pdfrwt beam="1">  1       21 0.22074717E-01 0.31923492E+03</pdfrwt>
<pdfrwt beam="2">  1       21 0.11078740E+00 0.31923492E+03</pdfrwt>
<totfact> 0.11484539E+04</totfact>
</mgrwt>
</event>
<event>
12    1  0.1473662E-001  0.2061501E+03  0.7546771E-02  0.1144758E+00
         21   -1    0    0  504  503  0.00000000000E+00  0.00000000000E+00  0.43973822026E+03  0.43973822026E+03  0.00000000000E+00 0.  1.
         21   -1    0    0  502  504 -0.00000000000E+00 -0.00000000000E+00 -0.41685812868E+03  0.41685812868E+03  0.00000000000E+00 0. -1.
          6    2    1    2  502    0  0.29416337731E+02 -0.10791544805E+03 -0.36408840922E+03  0.41814168390E+03  0.17254284463E+03 0.  0.
         24    2    3    3    0    0 -0.42338290040E+01 -0.58741595416E+02 -0.77086938449E+02  0.12498245118E+03  0.78801755590E+02 0.  0.
         -6    2    1    2    0  503 -0.29416337731E+02  0.10791544805E+03  0.38696850080E+03  0.43845466504E+03  0.17316699405E+03 0.  0.
        -24    2    5    5    0    0  0.38156206614E+01  0.11819177310E+03  0.37453944801E+03  0.40121842908E+03  0.81930308947E+02 0.  0.
          4    1    4    4  501    0 -0.38270003292E+02 -0.13559193208E+02 -0.22726763082E+02  0.46529029999E+02  0.00000000000E+00 0. -1.
         -3    1    4    4    0  501  0.34036174288E+02 -0.45182402207E+02 -0.54360175366E+02  0.78453421183E+02  0.00000000000E+00 0.  1.
          5    1    3    3  502    0  0.33650166735E+02 -0.49173852635E+02 -0.28700147077E+03  0.29315923272E+03  0.47000000000E+01 0. -1.
         11    1    6    6    0    0  0.11684010016E+02 -0.93825441397E+01  0.56562736403E+02  0.58514027155E+02  0.00000000000E+00 0. -1.
        -12    1    6    6    0    0 -0.78683893545E+01  0.12757431724E+03  0.31797671161E+03  0.34270440192E+03  0.00000000000E+00 0.  1.
         -5    1    5    5    0  503 -0.33231958392E+02 -0.10276325052E+02  0.12429052785E+02  0.37236235957E+02  0.47000000000E+01 0.  1.
<mgrwt>
<rscale>  2 0.20601899E+03</rscale>
<asrwt>0</asrwt>
<pdfrwt beam="1">  1       21 0.67652034E-01 0.20615012E+03</pdfrwt>
<pdfrwt beam="2">  1       21 0.64132020E-01 0.20615012E+03</pdfrwt>
<totfact> 0.44345345E+03</totfact>
</mgrwt>
</event>
<event>
12    1  0.1473662E-001  0.1809144E+03  0.7546771E-02  0.1168380E+00
         21   -1    0    0  504  503  0.00000000000E+00  0.00000000000E+00  0.72341608562E+02  0.72341608562E+02  0.00000000000E+00 0.  1.
         21   -1    0    0  502  504 -0.00000000000E+00 -0.00000000000E+00 -0.21637682381E+04  0.21637682381E+04  0.00000000000E+00 0.  1.
          6    2    1    2  502    0 -0.13175426307E+02 -0.47630893293E+02 -0.20407450485E+04  0.20482305581E+04  0.16782661395E+03 0.  0.
         24    2    3    3    0    0  0.17030160509E+02  0.15107665061E+02 -0.14975368637E+04  0.15005575478E+04  0.92401451495E+02 0.  0.
         -6    2    1    2    0  503  0.13175426307E+02  0.47630893293E+02 -0.50681580995E+02  0.18787928851E+03  0.17403364773E+03 0.  0.
        -24    2    5    5    0    0 -0.16406030187E+02  0.79993586738E+02 -0.75611833968E+02  0.13722344967E+03  0.80280719708E+02 0.  0.
          4    1    4    4  501    0 -0.34144502543E+02  0.10380657210E+02 -0.33722496514E+03  0.33910806864E+03  0.00000000000E+00 0. -1.
         -3    1    4    4    0  501  0.51174663051E+02  0.47270078508E+01 -0.11603118986E+04  0.11614494792E+04  0.00000000000E+00 0.  1.
          5    1    3    3  502    0 -0.30205586816E+02 -0.62738558354E+02 -0.54320818484E+03  0.54767301034E+03  0.47000000000E+01 0. -1.
         13    1    6    6    0    0  0.37281357558E+01 -0.12762105874E+02 -0.28085966162E+02  0.31073973640E+02  0.00000000000E+00 0. -1.
        -14    1    6    6    0    0 -0.20134165943E+02  0.92755692611E+02 -0.47525867807E+02  0.10614947603E+03  0.00000000000E+00 0.  1.
         -5    1    5    5    0  503  0.29581456494E+02 -0.32362693445E+02  0.24930252973E+02  0.50655838840E+02  0.47000000000E+01 0.  1.
<mgrwt>
<rscale>  2 0.17940488E+03</rscale>
<asrwt>0</asrwt>
<pdfrwt beam="1">  1       21 0.11129478E-01 0.18091436E+03</pdfrwt>
<pdfrwt beam="2">  1       21 0.33288744E+00 0.18091436E+03</pdfrwt>
<totfact> 0.15037753E+03</totfact>
</mgrwt>
</event>
<event>
12    1  0.1473662E-001  0.2123361E+03  0.7546771E-02  0.1140162E+00
         21   -1    0    0  504  503  0.00000000000E+00  0.00000000000E+00  0.34764405467E+03  0.34764405467E+03  0.00000000000E+00 0. -1.
         21   -1    0    0  502  504 -0.00000000000E+00 -0.00000000000E+00 -0.12887057449E+03  0.12887057449E+03  0.00000000000E+00 0.  1.
          6    2    1    2  502    0  0.40413371047E+02 -0.11386048133E+03  0.93669600955E+02  0.23006462750E+03  0.17192524223E+03 0.  0.
         24    2    3    3    0    0  0.18786372240E+02 -0.82919534223E+02 -0.12693893461E+02  0.11710289845E+03  0.79519663962E+02 0.  0.
         -6    2    1    2    0  503 -0.40413371047E+02  0.11386048133E+03  0.12510387922E+03  0.24645000166E+03  0.17461149148E+03 0.  0.
        -24    2    5    5    0    0  0.39694086970E+02  0.39235033500E+02  0.87230869925E+02  0.13050770082E+03  0.79423088017E+02 0.  0.
          4    1    4    4  501    0  0.37027599714E+02 -0.38881914448E+02  0.22127027204E+02  0.58072814161E+02  0.00000000000E+00 0. -1.
         -3    1    4    4    0  501 -0.18241227474E+02 -0.44037619775E+02 -0.34820920666E+02  0.59030084289E+02  0.00000000000E+00 0.  1.
          5    1    3    3  502    0  0.21626998807E+02 -0.30940947102E+02  0.10636349442E+03  0.11296172905E+03  0.47000000000E+01 0. -1.
         11    1    6    6    0    0  0.83191410505E+01 -0.24266774584E+02  0.29794910755E+02  0.39316932274E+02  0.00000000000E+00 0. -1.
        -12    1    6    6    0    0  0.31374945920E+02  0.63501808084E+02  0.57435959170E+02  0.91190768541E+02  0.00000000000E+00 0.  1.
         -5    1    5    5    0  503 -0.80107458017E+02  0.74625447825E+02  0.37873009295E+02  0.11594230085E+03  0.47000000000E+01 0.  1.
<mgrwt>
<rscale>  2 0.21178309E+03</rscale>
<asrwt>0</asrwt>
<pdfrwt beam="1">  1       21 0.53483700E-01 0.21233611E+03</pdfrwt>
<pdfrwt beam="2">  1       21 0.19826242E-01 0.21233611E+03</pdfrwt>
<totfact> 0.76974707E+04</totfact>
</mgrwt>
</event>
<event>
12    1  0.1473662E-001  0.2659278E+03  0.7546771E-02  0.1103684E+00
         21   -1    0    0  504  503  0.00000000000E+00  0.00000000000E+00  0.36345484796E+03  0.36345484796E+03  0.00000000000E+00 0.  1.
         21   -1    0    0  502  504 -0.00000000000E+00 -0.00000000000E+00 -0.25478944330E+03  0.25478944330E+03  0.00000000000E+00 0. -1.
          6    2    1    2  502    0  0.18035827073E+03  0.90563776265E+02 -0.96295523032E+02  0.28249651712E+03  0.17262836104E+03 0.  0.
         24    2    3    3    0    0  0.89954785931E+02  0.44827477872E+02 -0.12262020810E+03  0.17771255795E+03  0.80278711585E+02 0.  0.
         -6    2    1    2    0  503 -0.18035827073E+03 -0.90563776265E+02  0.20496092769E+03  0.33574777414E+03  0.17316663237E+03 0.  0.
        -24    2    5    5    0    0 -0.17790133797E+03 -0.97523099935E+02  0.11679036829E+03  0.24714412721E+03  0.79250163502E+02 0.  0.
          4    1    4    4  501    0  0.95515520545E+02  0.16201375354E+02 -0.77852396361E+02  0.12428473296E+03  0.00000000000E+00 0. -1.
         -3    1    4    4    0  501 -0.55607346138E+01  0.28626102517E+02 -0.44767811742E+02  0.53427824988E+02  0.00000000000E+00 0.  1.
          5    1    3    3  502    0  0.90403484801E+02  0.45736298394E+02  0.26324685070E+02  0.10478395917E+03  0.47000000000E+01 0. -1.
         11    1    6    6    0    0 -0.28864646084E+02 -0.55761732583E+02  0.28491899934E+02  0.68951627798E+02  0.00000000000E+00 0. -1.
        -12    1    6    6    0    0 -0.14903669189E+03 -0.41761367352E+02  0.88298468355E+02  0.17819249941E+03  0.00000000000E+00 0.  1.
         -5    1    5    5    0  503 -0.24569327620E+01  0.69593236696E+01  0.88170559404E+02  0.88603646934E+02  0.47000000000E+01 0.  1.
<mgrwt>
<rscale>  2 0.26584019E+03</rscale>
<asrwt>0</asrwt>
<pdfrwt beam="1">  1       21 0.55916130E-01 0.26592778E+03</pdfrwt>
<pdfrwt beam="2">  1       21 0.39198376E-01 0.26592778E+03</pdfrwt>
<totfact> 0.18168648E+04</totfact>
</mgrwt>
</event>
<event>
12    1  0.1473662E-001  0.2216119E+03  0.7546771E-02  0.1132757E+00
         21   -1    0    0  504  503  0.00000000000E+00  0.00000000000E+00  0.58660686877E+03  0.58660686877E+03  0.00000000000E+00 0.  1.
         21   -1    0    0  502  504 -0.00000000000E+00 -0.00000000000E+00 -0.32443300946E+03  0.32443300946E+03  0.00000000000E+00 0. -1.
          6    2    1    2  502    0 -0.60014694857E+02  0.12473632162E+03 -0.26142606580E+03  0.34247264609E+03  0.17257755331E+03 0.  0.
         24    2    3    3    0    0 -0.14254594398E+02 -0.22982794787E+00 -0.60917317090E+02  0.10177288779E+03  0.80271756463E+02 0.  0.
         -6    2    1    2    0  503  0.60014694857E+02 -0.12473632162E+03  0.52359992512E+03  0.56856723214E+03  0.17306329000E+03 0.  0.
        -24    2    5    5    0    0 -0.80277212250E+01 -0.99552616458E+02  0.20341975499E+03  0.24023596537E+03  0.79740545437E+02 0.  0.
          2    1    4    4  501    0 -0.40084704064E+02 -0.10614870996E+02 -0.61208221516E+02  0.73931761560E+02  0.00000000000E+00 0. -1.
         -1    1    4    4    0  501  0.25830109666E+02  0.10385043048E+02  0.29090442621E+00  0.27841126232E+02  0.00000000000E+00 0.  1.
          5    1    3    3  502    0 -0.45760100459E+02  0.12496614957E+03 -0.20050874871E+03  0.24069975830E+03  0.47000000000E+01 0. -1.
         11    1    6    6    0    0  0.19530494593E+02 -0.96375842536E+01  0.77097077110E+01  0.23103308037E+02  0.00000000000E+00 0. -1.
        -12    1    6    6    0    0 -0.27558215818E+02 -0.89915032204E+02  0.19571004728E+03  0.21713265734E+03  0.00000000000E+00 0.  1.
         -5    1    5    5    0  503  0.68042416082E+02 -0.25183705167E+02  0.32018017013E+03  0.32833126676E+03  0.47000000000E+01 0.  1.
<mgrwt>
<rscale>  2 0.22151702E+03</rscale>
<asrwt>0</asrwt>
<pdfrwt beam="1">  1       21 0.90247211E-01 0.22161186E+03</pdfrwt>
<pdfrwt beam="2">  1       21 0.49912771E-01 0.22161186E+03</pdfrwt>
<totfact> 0.39025172E+03</totfact>
</mgrwt>
</event>
<event>
12    1  0.1473662E-001  0.3960977E+03  0.7546771E-02  0.1045225E+00
         21   -1    0    0  504  503  0.00000000000E+00  0.00000000000E+00  0.41423609485E+03  0.41423609485E+03  0.00000000000E+00 0.  1.
         21   -1    0    0  502  504 -0.00000000000E+00 -0.00000000000E+00 -0.50240025093E+03  0.50240025093E+03  0.00000000000E+00 0. -1.
          6    2    1    2  502    0 -0.35473148338E+03 -0.29193152007E+02 -0.27226888466E+03  0.47984357144E+03  0.17156002470E+03 0.  0.
         24    2    3    3    0    0 -0.35738754415E+03 -0.57694974727E+01 -0.23497849747E+03  0.43547708378E+03  0.81647121279E+02 0.  0.
         -6    2    1    2    0  503  0.35473148338E+03  0.29193152007E+02  0.18410472859E+03  0.43679277434E+03  0.17380078021E+03 0.  0.
        -24    2    5    5    0    0  0.86632226805E+02  0.14211752449E+02  0.19138982435E+02  0.12161434692E+03  0.81955061456E+02 0.  0.
          2    1    4    4  501    0 -0.29011431299E+03  0.26795733987E+02 -0.19642241929E+03  0.35137742210E+03  0.00000000000E+00 0. -1.
         -1    1    4    4    0  501 -0.67273231158E+02 -0.32565231460E+02 -0.38556078175E+02  0.84099661680E+02  0.00000000000E+00 0.  1.
          5    1    3    3  502    0  0.26560607647E+01 -0.23423654534E+02 -0.37290387191E+02  0.44366487661E+02  0.47000000000E+01 0. -1.
         13    1    6    6    0    0  0.21525839798E+02 -0.25786127456E+02 -0.16357033396E+02  0.37360924636E+02  0.00000000000E+00 0. -1.
        -14    1    6    6    0    0  0.65106387007E+02  0.39997879904E+02  0.35496015831E+02  0.84253422280E+02  0.00000000000E+00 0.  1.
         -5    1    5    5    0  503  0.26809925658E+03  0.14981399558E+02  0.16496574615E+03  0.31517842742E+03  0.47000000000E+01 0.  1.
<mgrwt>
<rscale>  2 0.39585294E+03</rscale>
<asrwt>0</asrwt>
<pdfrwt beam="1">  1       21 0.63728630E-01 0.39609769E+03</pdfrwt>
<pdfrwt beam="2">  1       21 0.77292347E-01 0.39609769E+03</pdfrwt>
<totfact> 0.30041327E+03</totfact>
</mgrwt>
</event>
<event>
12    1  0.1473662E-001  0.2275199E+03  0.7546771E-02  0.1129573E+00
         21   -1    0    0  504  503  0.00000000000E+00  0.00000000000E+00  0.15355015066E+04  0.15355015066E+04  0.00000000000E+00 0.  1.
         21   -1    0    0  502  504 -0.00000000000E+00 -0.00000000000E+00 -0.58996493836E+02  0.58996493836E+02  0.00000000000E+00 0.  1.
          6    2    1    2  502    0  0.12821750236E+03 -0.68348626158E+02  0.20067615759E+03  0.29854098551E+03  0.16656691508E+03 0.  0.
         24    2    3    3    0    0  0.74079196011E+02 -0.37441018922E+02  0.20565580591E+03  0.23582636763E+03  0.80188577642E+02 0.  0.
         -6    2    1    2    0  503 -0.12821750236E+03  0.68348626158E+02  0.12758288551E+04  0.12959570149E+04  0.17508299237E+03 0.  0.
        -24    2    5    5    0    0 -0.35639261808E+02  0.74640900174E+02  0.35146515792E+03  0.36693567064E+03  0.65365190985E+02 0.  0.
          4    1    4    4  501    0  0.67941180963E+02 -0.21692052030E+02  0.20692989067E+03  0.21887560130E+03  0.00000000000E+00 0. -1.
         -3    1    4    4    0  501  0.61380150482E+01 -0.15748966892E+02 -0.12740847655E+01  0.16950766322E+02  0.00000000000E+00 0.  1.
          5    1    3    3  502    0  0.54138306345E+02 -0.30907607236E+02 -0.49796483226E+01  0.62714617884E+02  0.47000000000E+01 0. -1.
         11    1    6    6    0    0 -0.40768342664E+02  0.11923531054E+02  0.13813189950E+03  0.14451522416E+03  0.00000000000E+00 0. -1.
        -12    1    6    6    0    0  0.51290808561E+01  0.62717369120E+02  0.21333325843E+03  0.22242044648E+03  0.00000000000E+00 0.  1.
         -5    1    5    5    0  503 -0.92578240548E+02 -0.62922740154E+01  0.92436369721E+03  0.92902134425E+03  0.47000000000E+01 0.  1.
<mgrwt>
<rscale>  2 0.22588068E+03</rscale>
<asrwt>0</asrwt>
<pdfrwt beam="1">  1       21 0.23623097E+00 0.22751993E+03</pdfrwt>
<pdfrwt beam="2">  1       21 0.90763849E-02 0.22751993E+03</pdfrwt>
<totfact> 0.74833325E+03</totfact>
</mgrwt>
</event>
<event>
12    1  0.1473662E-001  0.2150092E+03  0.7546771E-02  0.1137827E+00
         21   -1    0    0  504  503  0.00000000000E+00  0.00000000000E+00  0.12303189598E+03  0.12303189598E+03  0.00000000000E+00 0.  1.
         21   -1    0    0  502  504 -0.00000000000E+00 -0.00000000000E+00 -0.40340510213E+03  0.40340510213E+03  0.00000000000E+00 0. -1.
          6    2    1    2  502    0 -0.53685758790E+02 -0.11499206955E+03 -0.21070937550E+03  0.30042372391E+03  0.17248372737E+03 0.  0.
         24    2    3    3    0    0 -0.20923930328E+02 -0.75851812284E+02 -0.35968811791E+02  0.11832031442E+03  0.80713277066E+02 0.  0.
         -6    2    1    2    0  503  0.53685758790E+02  0.11499206955E+03 -0.69663830650E+02  0.22601327420E+03  0.17356155697E+03 0.  0.
        -24    2    5    5    0    0  0.70994352155E+02  0.47390034636E+02  0.11881892900E+02  0.11858228445E+03  0.81452841489E+02 0.  0.
          2    1    4    4  501    0 -0.51990900934E+02 -0.51673520420E+02 -0.25104000274E+02  0.77481722505E+02  0.00000000000E+00 0. -1.
         -1    1    4    4    0  501  0.31066970605E+02 -0.24178291864E+02 -0.10864811517E+02  0.40838591912E+02  0.00000000000E+00 0.  1.
          5    1    3    3  502    0 -0.32761828462E+02 -0.39140257261E+02 -0.17474056371E+03  0.18210340949E+03  0.47000000000E+01 0. -1.
         13    1    6    6    0    0  0.71728097904E+02  0.57171985557E+02 -0.12243412611E+02  0.92538949172E+02  0.00000000000E+00 0. -1.
        -14    1    6    6    0    0 -0.73374574861E+00 -0.97819509208E+01  0.24125305511E+02  0.26043335282E+02  0.00000000000E+00 0.  1.
         -5    1    5    5    0  503 -0.17308593365E+02  0.67602034909E+02 -0.81545723550E+02  0.10743098974E+03  0.47000000000E+01 0.  1.
<mgrwt>
<rscale>  2 0.21479158E+03</rscale>
<asrwt>0</asrwt>
<pdfrwt beam="1">  1       21 0.18927984E-01 0.21500919E+03</pdfrwt>
<pdfrwt beam="2">  1       21 0.62062324E-01 0.21500919E+03</pdfrwt>
<totfact> 0.60996945E+04</totfact>
</mgrwt>
</event>
<event>
12    1  0.1473662E-001  0.2136871E+03  0.7546771E-02  0.1140445E+00
         21   -1    0    0  504  503  0.00000000000E+00  0.00000000000E+00  0.14286229575E+03  0.14286229575E+03  0.00000000000E+00 0.  1.
         21   -1    0    0  502  504 -0.00000000000E+00 -0.00000000000E+00 -0.46298435379E+03  0.46298435379E+03  0.00000000000E+00 0. -1.
          6    2    1    2  502    0 -0.87128800459E+02 -0.90120235825E+02 -0.33844442694E+03  0.40025842413E+03  0.17305805727E+03 0.  0.
         24    2    3    3    0    0 -0.67893304537E+02 -0.12288620189E+03 -0.31753148477E+03  0.35663441714E+03  0.81555773893E+02 0.  0.
         -6    2    1    2    0  503  0.87128800459E+02  0.90120235825E+02  0.18322368896E+02  0.20558822541E+03  0.16191888232E+03 0.  0.
        -24    2    5    5    0    0  0.11947567450E+03  0.59647333562E+02 -0.23589197872E+01  0.15634674154E+03  0.81280365937E+02 0.  0.
          2    1    4    4  501    0 -0.46502913425E+02 -0.12913995994E+03 -0.24587299773E+03  0.28159044945E+03  0.00000000000E+00 0. -1.
         -1    1    4    4    0  501 -0.21390391113E+02  0.62537580530E+01 -0.71658487042E+02  0.75043967692E+02  0.00000000000E+00 0.  1.
          5    1    3    3  502    0 -0.19235495921E+02  0.32765966062E+02 -0.20912942165E+02  0.43624006984E+02  0.47000000000E+01 0. -1.
         13    1    6    6    0    0  0.47599716392E+02 -0.61998464592E+01 -0.27975239681E+02  0.55558843868E+02  0.00000000000E+00 0. -1.
        -14    1    6    6    0    0  0.71875958112E+02  0.65847180021E+02  0.25616319894E+02  0.10078789767E+03  0.00000000000E+00 0.  1.
         -5    1    5    5    0  503 -0.32346874046E+02  0.30472902263E+02  0.20681288683E+02  0.49241483878E+02  0.47000000000E+01 0.  1.
<mgrwt>
<rscale>  2 0.21142210E+03</rscale>
<asrwt>0</asrwt>
<pdfrwt beam="1">  1       21 0.21978815E-01 0.21368710E+03</pdfrwt>
<pdfrwt beam="2">  1       21 0.71228362E-01 0.21368710E+03</pdfrwt>
<totfact> 0.34097972E+04</totfact>
</mgrwt>
</event>
<event>
12    1  0.1473662E-001  0.1778439E+03  0.7546771E-02  0.1170018E+00
         21   -1    0    0  504  503  0.00000000000E+00  0.00000000000E+00  0.92926433879E+03  0.92926433879E+03  0.00000000000E+00 0. -1.
         21   -1    0    0  502  504 -0.00000000000E+00 -0.00000000000E+00 -0.72608472575E+02  0.72608472575E+02  0.00000000000E+00 0. -1.
          6    2    1    2  502    0  0.23350933997E+02 -0.33014053852E+02  0.62549747840E+02  0.18809583156E+03  0.17272051709E+03 0.  0.
         24    2    3    3    0    0 -0.40281329540E+02  0.40149566541E+02  0.24176089829E+02  0.83709012752E+02  0.56463636915E+02 0.  0.
         -6    2    1    2    0  503 -0.23350933997E+02  0.33014053852E+02  0.79410611837E+03  0.81377697980E+03  0.17318559913E+03 0.  0.
        -24    2    5    5    0    0  0.41789959696E+02 -0.44954391242E+01  0.27457698143E+03  0.28881706493E+03  0.79095945259E+02 0.  0.
          4    1    4    4  501    0 -0.35554295248E+02  0.51870870446E+02  0.83233230534E+01  0.63434791858E+02  0.00000000000E+00 0. -1.
         -3    1    4    4    0  501 -0.47270342915E+01 -0.11721303905E+02  0.15852766775E+02  0.20274220894E+02  0.00000000000E+00 0.  1.
          5    1    3    3  502    0  0.63632263537E+02 -0.73163620393E+02  0.38373658011E+02  0.10438681881E+03  0.47000000000E+01 0. -1.
         13    1    6    6    0    0  0.57659167554E+01  0.35256829032E+02  0.11928269423E+03  0.12451767318E+03  0.00000000000E+00 0. -1.
        -14    1    6    6    0    0  0.36024042940E+02 -0.39752268157E+02  0.15529428720E+03  0.16429939175E+03  0.00000000000E+00 0.  1.
         -5    1    5    5    0  503 -0.65140893693E+02  0.37509492976E+02  0.51952913694E+03  0.52495991488E+03  0.47000000000E+01 0.  1.
<mgrwt>
<rscale>  2 0.17773055E+03</rscale>
<asrwt>0</asrwt>
<pdfrwt beam="1">  1       21 0.14296374E+00 0.17784388E+03</pdfrwt>
<pdfrwt beam="2">  1       21 0.11170535E-01 0.17784388E+03</pdfrwt>
<totfact> 0.22819952E+04</totfact>
</mgrwt>
</event>
<event>
12    1  0.1473662E-001  0.1844043E+03  0.7546771E-02  0.1163675E+00
         21   -1    0    0  504  503  0.00000000000E+00  0.00000000000E+00  0.20211796428E+03  0.20211796428E+03  0.00000000000E+00 0. -1.
         21   -1    0    0  502  504 -0.00000000000E+00 -0.00000000000E+00 -0.30305037848E+03  0.30305037848E+03  0.00000000000E+00 0.  1.
          6    2    1    2  502    0 -0.44855146351E+02  0.42895302728E+02 -0.21911474212E+03  0.28638472551E+03  0.17364604700E+03 0.  0.
         24    2    3    3    0    0 -0.73829880269E+02 -0.23130688231E+01 -0.84946127434E+02  0.14179344212E+03  0.86216785804E+02 0.  0.
         -6    2    1    2    0  503  0.44855146351E+02 -0.42895302728E+02  0.11818232792E+03  0.21878361725E+03  0.17334133204E+03 0.  0.
        -24    2    5    5    0    0  0.94141183982E+02 -0.31459145676E+02  0.62398005490E+02  0.14332581565E+03  0.82441118218E+02 0.  0.
          4    1    4    4  501    0 -0.80826134108E+02  0.17683490194E+02 -0.39565710282E+02  0.91711587111E+02  0.00000000000E+00 0. -1.
         -3    1    4    4    0  501  0.69962538392E+01 -0.19996559017E+02 -0.45380417152E+02  0.50081855009E+02  0.00000000000E+00 0.  1.
          5    1    3    3  502    0  0.28974733918E+02  0.45208371551E+02 -0.13416861469E+03  0.14459128339E+03  0.47000000000E+01 0. -1.
         13    1    6    6    0    0  0.62126318555E+02 -0.50759040046E+02  0.68447476441E+02  0.10545717915E+03  0.00000000000E+00 0. -1.
        -14    1    6    6    0    0  0.32014865428E+02  0.19299894370E+02 -0.60494709514E+01  0.37868636493E+02  0.00000000000E+00 0.  1.
         -5    1    5    5    0  503 -0.49286037631E+02 -0.11436157052E+02  0.55784322435E+02  0.75457801604E+02  0.47000000000E+01 0.  1.
<mgrwt>
<rscale>  2 0.18433252E+03</rscale>
<asrwt>0</asrwt>
<pdfrwt beam="1">  1       21 0.31095071E-01 0.18440429E+03</pdfrwt>
<pdfrwt beam="2">  1       21 0.46623135E-01 0.18440429E+03</pdfrwt>
<totfact> 0.43944385E+04</totfact>
</mgrwt>
</event>
<event>
12    1  0.1473662E-001  0.1815370E+03  0.7546771E-02  0.1167867E+00
         21   -1    0    0  504  503  0.00000000000E+00  0.00000000000E+00  0.14636930511E+03  0.14636930511E+03  0.00000000000E+00 0. -1.
         21   -1    0    0  502  504 -0.00000000000E+00 -0.00000000000E+00 -0.64364573970E+03  0.64364573970E+03  0.00000000000E+00 0. -1.
          6    2    1    2  502    0  0.38955085051E+02 -0.38421532554E+02 -0.56859026433E+03  0.59497315481E+03  0.16644654828E+03 0.  0.
         24    2    3    3    0    0 -0.20700530458E+02 -0.34292901782E+02 -0.16205461611E+03  0.18403622372E+03  0.77479790693E+02 0.  0.
         -6    2    1    2    0  503 -0.38955085051E+02  0.38421532554E+02  0.71313829743E+02  0.19504189000E+03  0.17309524467E+03 0.  0.
        -24    2    5    5    0    0 -0.21716878754E+02  0.87781710437E+02  0.21367902831E+02  0.12258315324E+03  0.79954929042E+02 0.  0.
          2    1    4    4  501    0 -0.85476777775E+01 -0.32279547298E+02 -0.16733462136E+03  0.17063384036E+03  0.00000000000E+00 0. -1.
         -1    1    4    4    0  501 -0.12152852680E+02 -0.20133544846E+01  0.52800052477E+01  0.13402383369E+02  0.00000000000E+00 0.  1.
          5    1    3    3  502    0  0.59655615508E+02 -0.41286307720E+01 -0.40653564822E+03  0.41093693108E+03  0.47000000000E+01 0. -1.
         11    1    6    6    0    0 -0.78075467641E+01  0.60891563865E+02  0.51305380554E+02  0.80006139828E+02  0.00000000000E+00 0. -1.
        -12    1    6    6    0    0 -0.13909331989E+02  0.26890146572E+02 -0.29937477724E+02  0.42577013417E+02  0.00000000000E+00 0.  1.
         -5    1    5    5    0  503 -0.17238206297E+02 -0.49360177882E+02  0.49945926913E+02  0.72458736754E+02  0.47000000000E+01 0.  1.
<mgrwt>
<rscale>  2 0.17993386E+03</rscale>
<asrwt>0</asrwt>
<pdfrwt beam="1">  1       21 0.22518355E-01 0.18153698E+03</pdfrwt>
<pdfrwt beam="2">  1       21 0.99022420E-01 0.18153698E+03</pdfrwt>
<totfact> 0.15634930E+04</totfact>
</mgrwt>
</event>
<event>
12    1  0.1473662E-001  0.1749880E+03  0.7546771E-02  0.1172891E+00
         21   -1    0    0  504  503  0.00000000000E+00  0.00000000000E+00  0.48979948622E+03  0.48979948622E+03  0.00000000000E+00 0.  1.
         21   -1    0    0  502  504 -0.00000000000E+00 -0.00000000000E+00 -0.85665463841E+02  0.85665463841E+02  0.00000000000E+00 0.  1.
          6    2    1    2  502    0  0.67272564260E+01  0.15778854484E+02  0.51576725910E+02  0.18186941814E+03  0.17355719049E+03 0.  0.
         24    2    3    3    0    0  0.39138143050E+02 -0.43313163062E+02  0.57851846236E+02  0.11401811569E+03  0.79028287696E+02 0.  0.
         -6    2    1    2    0  503 -0.67272564260E+01 -0.15778854484E+02  0.35255729647E+03  0.39359553192E+03  0.17414524750E+03 0.  0.
        -24    2    5    5    0    0 -0.38589414962E+02  0.34941984614E+02  0.12484299543E+03  0.15808822086E+03  0.81829254127E+02 0.  0.
          2    1    4    4  501    0 -0.25073776582E+01 -0.51872613682E+02  0.15957940077E+02  0.54329649773E+02  0.00000000000E+00 0. -1.
         -1    1    4    4    0  501  0.41645520709E+02  0.85594506201E+01  0.41893906159E+02  0.59688465915E+02  0.00000000000E+00 0.  1.
          5    1    3    3  502    0 -0.32410886624E+02  0.59092017546E+02 -0.62751203259E+01  0.67851302453E+02  0.47000000000E+01 0. -1.
         13    1    6    6    0    0  0.48333261990E+01  0.38490910973E+02  0.10150107093E+03  0.10866176269E+03  0.00000000000E+00 0. -1.
        -14    1    6    6    0    0 -0.43422741161E+02 -0.35489263584E+01  0.23341924495E+02  0.49426458172E+02  0.00000000000E+00 0.  1.
         -5    1    5    5    0  503  0.31862158536E+02 -0.50720839099E+02  0.22771430104E+03  0.23550731106E+03  0.47000000000E+01 0.  1.
<mgrwt>
<rscale>  2 0.17484150E+03</rscale>
<asrwt>0</asrwt>
<pdfrwt beam="1">  1       21 0.75353765E-01 0.17498799E+03</pdfrwt>
<pdfrwt beam="2">  1       21 0.13179302E-01 0.17498799E+03</pdfrwt>
<totfact> 0.78612851E+04</totfact>
</mgrwt>
</event>
<event>
12    1  0.1473662E-001  0.1835744E+03  0.7546771E-02  0.1164495E+00
         21   -1    0    0  504  503  0.00000000000E+00  0.00000000000E+00  0.19192625194E+03  0.19192625194E+03  0.00000000000E+00 0.  1.
         21   -1    0    0  502  504 -0.00000000000E+00 -0.00000000000E+00 -0.17880643632E+03  0.17880643632E+03  0.00000000000E+00 0.  1.
          6    2    1    2  502    0 -0.35613345528E+02 -0.46081063872E+02 -0.19942771166E+02  0.18420468369E+03  0.17361415998E+03 0.  0.
         24    2    3    3    0    0 -0.52813034184E+02 -0.62050952037E+02 -0.68211091595E+02  0.13032716171E+03  0.75451168538E+02 0.  0.
         -6    2    1    2    0  503  0.35613345528E+02  0.46081063872E+02  0.33062586785E+02  0.18652800458E+03  0.17409131805E+03 0.  0.
        -24    2    5    5    0    0 -0.11935755239E+02  0.67652378021E+02 -0.23875206155E+02  0.10913135838E+03  0.81365357539E+02 0.  0.
          4    1    4    4  501    0 -0.21993370675E+00 -0.58129414937E+02 -0.32028683898E+02  0.66369524965E+02  0.00000000000E+00 0. -1.
         -3    1    4    4    0  501 -0.52593100477E+02 -0.39215370998E+01 -0.36182407697E+02  0.63957636743E+02  0.00000000000E+00 0.  1.
          5    1    3    3  502    0  0.17199688656E+02  0.15969888165E+02  0.48268320429E+02  0.53877521982E+02  0.47000000000E+01 0. -1.
         11    1    6    6    0    0 -0.39554559076E+02  0.51495628213E+02 -0.36783425084E+02  0.74628300460E+02  0.00000000000E+00 0. -1.
        -12    1    6    6    0    0  0.27618803837E+02  0.16156749809E+02  0.12908218929E+02  0.34503057918E+02  0.00000000000E+00 0.  1.
         -5    1    5    5    0  503  0.47549100767E+02 -0.21571314150E+02  0.56937792940E+02  0.77396646198E+02  0.47000000000E+01 0.  1.
<mgrwt>
<rscale>  2 0.18346119E+03</rscale>
<asrwt>0</asrwt>
<pdfrwt beam="1">  1       21 0.29527116E-01 0.18357440E+03</pdfrwt>
<pdfrwt beam="2">  1       21 0.27508682E-01 0.18357440E+03</pdfrwt>
<totfact> 0.13898374E+05</totfact>
</mgrwt>
</event>
<event>
12    1  0.1473662E-001  0.2038830E+03  0.7546771E-02  0.1146801E+00
         21   -1    0    0  504  503  0.00000000000E+00  0.00000000000E+00  0.26608435216E+03  0.26608435216E+03  0.00000000000E+00 0. -1.
         21   -1    0    0  502  504 -0.00000000000E+00 -0.00000000000E+00 -0.22215691684E+03  0.22215691684E+03  0.00000000000E+00 0. -1.
          6    2    1    2  502    0 -0.16492662528E+02  0.10184352529E+03 -0.11208211605E+03  0.23265996976E+03  0.17585263498E+03 0.  0.
         24    2    3    3    0    0 -0.50656766702E+02 -0.48828335034E+00 -0.56338358001E+02  0.11113449245E+03  0.81305094535E+02 0.  0.
         -6    2    1    2    0  503  0.16492662528E+02 -0.10184352529E+03  0.15600955137E+03  0.25558129924E+03  0.17418010460E+03 0.  0.
        -24    2    5    5    0    0  0.79197238590E+01 -0.84885699399E+02  0.22126137887E+02  0.12027453096E+03  0.81902947630E+02 0.  0.
          2    1    4    4  501    0 -0.13352060585E+00 -0.12584261976E+02  0.17067018153E+02  0.21205296175E+02  0.00000000000E+00 0. -1.
         -1    1    4    4    0  501 -0.50523246096E+02  0.12095978626E+02 -0.73405376154E+02  0.89929196279E+02  0.00000000000E+00 0.  1.
          5    1    3    3  502    0  0.34164104174E+02  0.10233180864E+03 -0.55743758046E+02  0.12152547731E+03  0.47000000000E+01 0. -1.
         11    1    6    6    0    0 -0.34168394335E+02 -0.31650303925E+02 -0.57112276698E+01  0.46923757644E+02  0.00000000000E+00 0. -1.
        -12    1    6    6    0    0  0.42088118194E+02 -0.53235395474E+02  0.27837365557E+02  0.73350773312E+02  0.00000000000E+00 0.  1.
         -5    1    5    5    0  503  0.85729386694E+01 -0.16957825890E+02  0.13388341349E+03  0.13530676828E+03  0.47000000000E+01 0.  1.
<mgrwt>
<rscale>  2 0.20352180E+03</rscale>
<asrwt>0</asrwt>
<pdfrwt beam="1">  1       21 0.40936054E-01 0.20388296E+03</pdfrwt>
<pdfrwt beam="2">  1       21 0.34177987E-01 0.20388296E+03</pdfrwt>
<totfact> 0.47152745E+04</totfact>
</mgrwt>
</event>
<event>
12    1  0.1473662E-001  0.2595299E+03  0.7546771E-02  0.1108539E+00
         21   -1    0    0  504  503  0.00000000000E+00  0.00000000000E+00  0.10112839816E+03  0.10112839816E+03  0.00000000000E+00 0.  1.
         21   -1    0    0  502  504 -0.00000000000E+00 -0.00000000000E+00 -0.64905519663E+03  0.64905519663E+03  0.00000000000E+00 0.  1.
          6    2    1    2  502    0 -0.12944286192E+03 -0.14141656983E+03 -0.25937665844E+03  0.36692235006E+03  0.17493329959E+03 0.  0.
         24    2    3    3    0    0 -0.76024152757E+02 -0.82895885992E+02 -0.38670830395E+02  0.13237729797E+03  0.58111239687E+02 0.  0.
         -6    2    1    2    0  503  0.12944286192E+03  0.14141656983E+03 -0.28855014003E+03  0.38326124473E+03  0.16393260102E+03 0.  0.
        -24    2    5    5    0    0  0.15386385505E+03  0.14479479802E+03 -0.26274921461E+03  0.34726714683E+03  0.83172724291E+02 0.  0.
          2    1    4    4  501    0  0.64728140057E+01 -0.75652937038E+01 -0.15282050088E+02  0.18239299462E+02  0.00000000000E+00 0. -1.
         -1    1    4    4    0  501 -0.82496966762E+02 -0.75330592288E+02 -0.23388780308E+02  0.11413799851E+03  0.00000000000E+00 0.  1.
          5    1    3    3  502    0 -0.53418709162E+02 -0.58520683840E+02 -0.22070582805E+03  0.23454505209E+03  0.47000000000E+01 0. -1.
         11    1    6    6    0    0  0.74289955693E+02  0.16510455462E+02 -0.88093495277E+02  0.11641330064E+03  0.00000000000E+00 0. -1.
        -12    1    6    6    0    0  0.79573899355E+02  0.12828434256E+03 -0.17465571933E+03  0.23085384619E+03  0.00000000000E+00 0.  1.
         -5    1    5    5    0  503 -0.24420993129E+02 -0.33782281883E+01 -0.25800925419E+02  0.35994097900E+02  0.47000000000E+01 0.  1.
<mgrwt>
<rscale>  2 0.25768940E+03</rscale>
<asrwt>0</asrwt>
<pdfrwt beam="1">  1       21 0.15558216E-01 0.25952988E+03</pdfrwt>
<pdfrwt beam="2">  1       21 0.99854643E-01 0.25952988E+03</pdfrwt>
<totfact> 0.29213049E+04</totfact>
</mgrwt>
</event>
<event>
12    1  0.1473662E-001  0.1845820E+03  0.7546771E-02  0.1164373E+00
         21   -1    0    0  504  503  0.00000000000E+00  0.00000000000E+00  0.78818139848E+03  0.78818139848E+03  0.00000000000E+00 0.  1.
         21   -1    0    0  502  504 -0.00000000000E+00 -0.00000000000E+00 -0.70887395710E+02  0.70887395710E+02  0.00000000000E+00 0.  1.
          6    2    1    2  502    0  0.40048299106E+02 -0.41962476512E+02  0.83622035783E+02  0.19906070797E+03  0.17107835893E+03 0.  0.
         24    2    3    3    0    0  0.12985674512E+02 -0.91138801003E+02  0.43743217898E+02  0.13004544404E+03  0.80767812970E+02 0.  0.
         -6    2    1    2    0  503 -0.40048299106E+02  0.41962476512E+02  0.63367196698E+03  0.66000808621E+03  0.17523069489E+03 0.  0.
        -24    2    5    5    0    0 -0.51151483300E+02  0.87566532656E+02  0.37302310877E+03  0.39512522923E+03  0.81812805917E+02 0.  0.
          4    1    4    4  501    0 -0.59332881328E+01  0.28507571726E+01  0.32908556266E+02  0.33560449938E+02  0.00000000000E+00 0. -1.
         -3    1    4    4    0  501  0.18918962645E+02 -0.93989558175E+02  0.10834661631E+02  0.96484994099E+02  0.00000000000E+00 0.  1.
          5    1    3    3  502    0  0.27062624594E+02  0.49176324491E+02  0.39878817886E+02  0.69015263937E+02  0.47000000000E+01 0. -1.
         13    1    6    6    0    0 -0.57810227898E+02  0.19154863163E+02  0.19521707506E+03  0.20449605773E+03  0.00000000000E+00 0. -1.
        -14    1    6    6    0    0  0.66587445988E+01  0.68411669494E+02  0.17780603371E+03  0.19062917150E+03  0.00000000000E+00 0.  1.
         -5    1    5    5    0  503  0.11103184194E+02 -0.45604056145E+02  0.26064885821E+03  0.26488285698E+03  0.47000000000E+01 0.  1.
<mgrwt>
<rscale>  2 0.18358971E+03</rscale>
<asrwt>0</asrwt>
<pdfrwt beam="1">  1       21 0.12125867E+00 0.18458199E+03</pdfrwt>
<pdfrwt beam="2">  1       21 0.10905754E-01 0.18458199E+03</pdfrwt>
<totfact> 0.35972236E+04</totfact>
</mgrwt>
</event>
<event>
12    1  0.1473662E-001  0.1998778E+03  0.7546771E-02  0.1150292E+00
         21   -1    0    0  504  503  0.00000000000E+00  0.00000000000E+00  0.84127658852E+03  0.84127658852E+03  0.00000000000E+00 0. -1.
         21   -1    0    0  502  504 -0.00000000000E+00 -0.00000000000E+00 -0.47039664441E+02  0.47039664441E+02  0.00000000000E+00 0. -1.
          6    2    1    2  502    0  0.80851504842E+02  0.59663443457E+02  0.41418808739E+03  0.45989444576E+03  0.17278436614E+03 0.  0.
         24    2    3    3    0    0  0.57137385939E+02  0.10272610703E+03  0.35266140577E+03  0.38099973757E+03  0.83506879790E+02 0.  0.
         -6    2    1    2    0  503 -0.80851504842E+02 -0.59663443457E+02  0.38004883669E+03  0.42842180720E+03  0.17032743260E+03 0.  0.
        -24    2    5    5    0    0 -0.88227848711E+02 -0.30613550116E+01  0.15141216474E+03  0.19272067308E+03  0.80137937452E+02 0.  0.
          2    1    4    4  501    0  0.31552158706E+02  0.78157184957E+02  0.12607847512E+03  0.15165706765E+03  0.00000000000E+00 0. -1.
         -1    1    4    4    0  501  0.25585227233E+02  0.24568922069E+02  0.22658293066E+03  0.22934266993E+03  0.00000000000E+00 0.  1.
          5    1    3    3  502    0  0.23714118902E+02 -0.43062663568E+02  0.61526681616E+02  0.78894708185E+02  0.47000000000E+01 0. -1.
         13    1    6    6    0    0 -0.31909416947E+02 -0.91876633088E+01  0.12658628472E+03  0.13086906252E+03  0.00000000000E+00 0. -1.
        -14    1    6    6    0    0 -0.56318431764E+02  0.61263082972E+01  0.24825880020E+02  0.61851610557E+02  0.00000000000E+00 0.  1.
         -5    1    5    5    0  503  0.73763438698E+01 -0.56602088446E+02  0.22863667195E+03  0.23570113412E+03  0.47000000000E+01 0.  1.
<mgrwt>
<rscale>  2 0.19934566E+03</rscale>
<asrwt>0</asrwt>
<pdfrwt beam="1">  1       21 0.12942716E+00 0.19987779E+03</pdfrwt>
<pdfrwt beam="2">  1       21 0.72368721E-02 0.19987779E+03</pdfrwt>
<totfact> 0.62187798E+04</totfact>
</mgrwt>
</event>
<event>
12    1  0.1473662E-001  0.1795314E+03  0.7546771E-02  0.1168691E+00
         21   -1    0    0  504  503  0.00000000000E+00  0.00000000000E+00  0.31870951479E+02  0.31870951479E+02  0.00000000000E+00 0. -1.
         21   -1    0    0  502  504 -0.00000000000E+00 -0.00000000000E+00 -0.10113844247E+04  0.10113844247E+04  0.00000000000E+00 0. -1.
          6    2    1    2  502    0 -0.12642330616E+02  0.38777292761E+02 -0.44013454914E+03  0.47534192037E+03  0.17483710407E+03 0.  0.
         24    2    3    3    0    0  0.56229085397E+02  0.23761205966E+02 -0.19067622226E+03  0.21607313772E+03  0.81264224333E+02 0.  0.
         -6    2    1    2    0  503  0.12642330616E+02 -0.38777292761E+02 -0.53937892405E+03  0.56791345578E+03  0.17301029619E+03 0.  0.
        -24    2    5    5    0    0 -0.15765959829E+02 -0.87158532963E+02 -0.32704568184E+03  0.34824263132E+03  0.80429328619E+02 0.  0.
          4    1    4    4  501    0  0.50825137987E+02  0.45278077562E+02 -0.89226217051E+02  0.11222574022E+03  0.00000000000E+00 0. -1.
         -3    1    4    4    0  501  0.54039474101E+01 -0.21516871595E+02 -0.10145000521E+03  0.10384739750E+03  0.00000000000E+00 0.  1.
          5    1    3    3  502    0 -0.68871416013E+02  0.15016086795E+02 -0.24945832688E+03  0.25926878265E+03  0.47000000000E+01 0. -1.
         13    1    6    6    0    0  0.10607542127E+02 -0.91637491538E+02 -0.23750364542E+03  0.25478997507E+03  0.00000000000E+00 0. -1.
        -14    1    6    6    0    0 -0.26373501957E+02  0.44789585754E+01 -0.89542036417E+02  0.93452656255E+02  0.00000000000E+00 0.  1.
         -5    1    5    5    0  503  0.28408290446E+02  0.48381240202E+02 -0.21233324221E+03  0.21967082446E+03  0.47000000000E+01 0.  1.
<mgrwt>
<rscale>  2 0.17908509E+03</rscale>
<asrwt>0</asrwt>
<pdfrwt beam="1">  1       21 0.49032245E-02 0.17953139E+03</pdfrwt>
<pdfrwt beam="2">  1       21 0.15559757E+00 0.17953139E+03</pdfrwt>
<totfact> 0.75944600E+04</totfact>
</mgrwt>
</event>
<event>
12    1  0.1473662E-001  0.2910433E+03  0.7546771E-02  0.1090020E+00
         21   -1    0    0  504  503  0.00000000000E+00  0.00000000000E+00  0.13883651026E+03  0.13883651026E+03  0.00000000000E+00 0. -1.
         21   -1    0    0  502  504 -0.00000000000E+00 -0.00000000000E+00 -0.10072152742E+04  0.10072152742E+04  0.00000000000E+00 0.  1.
          6    2    1    2  502    0  0.11809459691E+03  0.19984505395E+03 -0.79480529226E+03  0.84585313036E+03  0.17282270144E+03 0.  0.
         24    2    3    3    0    0  0.20458748068E+02  0.52400241822E+02 -0.41806265371E+03  0.42964424374E+03  0.81568670678E+02 0.  0.
         -6    2    1    2    0  503 -0.11809459691E+03 -0.19984505395E+03 -0.73573471705E+02  0.30019865413E+03  0.17556137615E+03 0.  0.
        -24    2    5    5    0    0 -0.11413048332E+03 -0.20160673347E+03 -0.10627406590E+03  0.26687844147E+03  0.79113104062E+02 0.  0.
          2    1    4    4  501    0 -0.17958225534E+02  0.52044577927E+02 -0.17189284903E+03  0.18049456364E+03  0.00000000000E+00 0. -1.
         -1    1    4    4    0  501  0.38416973602E+02  0.35566389421E+00 -0.24616980468E+03  0.24914968010E+03  0.00000000000E+00 0.  1.
          5    1    3    3  502    0  0.97635848844E+02  0.14744481213E+03 -0.37674263855E+03  0.41620888663E+03  0.47000000000E+01 0. -1.
         11    1    6    6    0    0  0.21535760131E+01 -0.53570704578E+02 -0.41502493695E+02  0.67800555024E+02  0.00000000000E+00 0. -1.
        -12    1    6    6    0    0 -0.11628405933E+03 -0.14803602889E+03 -0.64771572201E+02  0.19907788645E+03  0.00000000000E+00 0.  1.
         -5    1    5    5    0  503 -0.39641135900E+01  0.17616795219E+01  0.32700594191E+02  0.33320212660E+02  0.47000000000E+01 0.  1.
<mgrwt>
<rscale>  2 0.29063144E+03</rscale>
<asrwt>0</asrwt>
<pdfrwt beam="1">  1       21 0.21359464E-01 0.29104325E+03</pdfrwt>
<pdfrwt beam="2">  1       21 0.15495619E+00 0.29104325E+03</pdfrwt>
<totfact> 0.52266791E+03</totfact>
</mgrwt>
</event>
<event>
12    1  0.1473662E-001  0.1923502E+03  0.7546771E-02  0.1156474E+00
         21   -1    0    0  504  503  0.00000000000E+00  0.00000000000E+00  0.63978025585E+03  0.63978025585E+03  0.00000000000E+00 0.  1.
         21   -1    0    0  502  504 -0.00000000000E+00 -0.00000000000E+00 -0.87309549984E+02  0.87309549984E+02  0.00000000000E+00 0.  1.
          6    2    1    2  502    0  0.85212995248E+02  0.15849790685E+01  0.64182641412E+02  0.20228143723E+03  0.17185634021E+03 0.  0.
         24    2    3    3    0    0  0.67150975750E+02  0.60070351360E+02  0.10355582305E+02  0.12063452906E+03  0.79547161238E+02 0.  0.
         -6    2    1    2    0  503 -0.85212995248E+02 -0.15849790685E+01  0.48828806445E+03  0.52480836861E+03  0.17243788202E+03 0.  0.
        -24    2    5    5    0    0 -0.16725688442E+02 -0.25940500329E+02  0.40400759273E+03  0.41341272003E+03  0.82068775321E+02 0.  0.
          4    1    4    4  501    0 -0.38899888552E+01  0.44625317504E+02 -0.83499369963E+01  0.45566132417E+02  0.00000000000E+00 0. -1.
         -3    1    4    4    0  501  0.71040964605E+02  0.15445033856E+02  0.18705519301E+02  0.75068396647E+02  0.00000000000E+00 0.  1.
          5    1    3    3  502    0  0.18062019498E+02 -0.58485372291E+02  0.53827059107E+02  0.81646908163E+02  0.47000000000E+01 0. -1.
         13    1    6    6    0    0  0.31600055768E+02 -0.62359781862E+01  0.21225673591E+03  0.21468668540E+03  0.00000000000E+00 0. -1.
        -14    1    6    6    0    0 -0.48325744211E+02 -0.19704522142E+02  0.19175085682E+03  0.19872603463E+03  0.00000000000E+00 0.  1.
         -5    1    5    5    0  503 -0.68487306805E+02  0.24355521260E+02  0.84280471718E+02  0.11139564858E+03  0.47000000000E+01 0.  1.
<mgrwt>
<rscale>  2 0.19221975E+03</rscale>
<asrwt>0</asrwt>
<pdfrwt beam="1">  1       21 0.98427729E-01 0.19235018E+03</pdfrwt>
<pdfrwt beam="2">  1       21 0.13432239E-01 0.19235018E+03</pdfrwt>
<totfact> 0.40851190E+04</totfact>
</mgrwt>
</event>
<event>
12    1  0.1473662E-001  0.2463786E+03  0.7546771E-02  0.1117010E+00
         21   -1    0    0  504  503  0.00000000000E+00  0.00000000000E+00  0.27298054141E+02  0.27298054141E+02  0.00000000000E+00 0.  1.
         21   -1    0    0  502  504 -0.00000000000E+00 -0.00000000000E+00 -0.22843364009E+04  0.22843364009E+04  0.00000000000E+00 0. -1.
          6    2    1    2  502    0  0.12490334185E+03  0.10413263500E+03 -0.14298676987E+04  0.14509390309E+04  0.18508912752E+03 0.  0.
         24    2    3    3    0    0  0.15491836182E+03  0.11942319172E+03 -0.12776564369E+04  0.12949740965E+04  0.79311677981E+02 0.  0.
         -6    2    1    2    0  503 -0.12490334185E+03 -0.10413263500E+03 -0.82717064805E+03  0.86069542413E+03  0.17361129470E+03 0.  0.
        -24    2    5    5    0    0 -0.89346815644E+02 -0.12474413120E+03 -0.46266977444E+03  0.49385475410E+03  0.79279544809E+02 0.  0.
          2    1    4    4  501    0  0.12483366440E+03  0.58180627277E+02 -0.97782933274E+03  0.98748095329E+03  0.00000000000E+00 0. -1.
         -1    1    4    4    0  501  0.30084697415E+02  0.61242564445E+02 -0.29982710421E+03  0.30749314324E+03  0.00000000000E+00 0.  1.
          5    1    3    3  502    0 -0.30015019969E+02 -0.15290556718E+02 -0.15221126176E+03  0.15596493437E+03  0.47000000000E+01 0. -1.
         11    1    6    6    0    0 -0.51933604433E+01 -0.62388775686E+02 -0.23589899087E+03  0.24406487707E+03  0.00000000000E+00 0. -1.
        -12    1    6    6    0    0 -0.84153455201E+02 -0.62355355516E+02 -0.22677078357E+03  0.24978987703E+03  0.00000000000E+00 0.  1.
         -5    1    5    5    0  503 -0.35556526204E+02  0.20611496199E+02 -0.36450087360E+03  0.36684067003E+03  0.47000000000E+01 0.  1.
<mgrwt>
<rscale>  2 0.24422509E+03</rscale>
<asrwt>0</asrwt>
<pdfrwt beam="1">  1       21 0.41996997E-02 0.24637864E+03</pdfrwt>
<pdfrwt beam="2">  1       21 0.35143645E+00 0.24637864E+03</pdfrwt>
<totfact> 0.58323164E+03</totfact>
</mgrwt>
</event>
<event>
12    1  0.1473662E-001  0.1762641E+03  0.7546771E-02  0.1172889E+00
         21   -1    0    0  504  503  0.00000000000E+00  0.00000000000E+00  0.30133220336E+02  0.30133220336E+02  0.00000000000E+00 0. -1.
         21   -1    0    0  502  504 -0.00000000000E+00 -0.00000000000E+00 -0.15060547410E+04  0.15060547410E+04  0.00000000000E+00 0. -1.
          6    2    1    2  502    0  0.26706323903E+02  0.20684170936E+02 -0.11917509082E+04  0.12047154280E+04  0.17299703035E+03 0.  0.
         24    2    3    3    0    0  0.52597753594E+02  0.66470876038E+02 -0.98762914837E+03  0.99387290063E+03  0.72021572142E+02 0.  0.
         -6    2    1    2    0  503 -0.26706323903E+02 -0.20684170936E+02 -0.28417061244E+03  0.33147253335E+03  0.16727235494E+03 0.  0.
        -24    2    5    5    0    0  0.22646853820E+01  0.15314640583E+02 -0.47738448139E+02  0.90521309810E+02  0.75335788859E+02 0.  0.
          4    1    4    4  501    0  0.46430648041E+02  0.33281309597E+02 -0.85868257322E+03  0.86058074124E+03  0.00000000000E+00 0. -1.
         -3    1    4    4    0  501  0.61671055527E+01  0.33189566442E+02 -0.12894657515E+03  0.13329215939E+03  0.00000000000E+00 0.  1.
          5    1    3    3  502    0 -0.25891429690E+02 -0.45786705103E+02 -0.20412175987E+03  0.21084252737E+03  0.47000000000E+01 0. -1.
         13    1    6    6    0    0 -0.15759661785E+01 -0.22057491512E+02  0.78176285334E+01  0.23454891112E+02  0.00000000000E+00 0. -1.
        -14    1    6    6    0    0  0.38406515605E+01  0.37372132095E+02 -0.55556076672E+02  0.67066418698E+02  0.00000000000E+00 0.  1.
         -5    1    5    5    0  503 -0.28971009285E+02 -0.35998811519E+02 -0.23643216430E+03  0.24095122354E+03  0.47000000000E+01 0.  1.
<mgrwt>
<rscale>  2 0.17484326E+03</rscale>
<asrwt>0</asrwt>
<pdfrwt beam="1">  1       21 0.46358798E-02 0.17626411E+03</pdfrwt>
<pdfrwt beam="2">  1       21 0.23170074E+00 0.17626411E+03</pdfrwt>
<totfact> 0.26464795E+04</totfact>
</mgrwt>
</event>
<event>
12    1  0.1473662E-001  0.2135898E+03  0.7546771E-02  0.1139015E+00
         21   -1    0    0  504  503  0.00000000000E+00  0.00000000000E+00  0.12932223300E+03  0.12932223300E+03  0.00000000000E+00 0.  1.
         21   -1    0    0  502  504 -0.00000000000E+00 -0.00000000000E+00 -0.40103487532E+03  0.40103487532E+03  0.00000000000E+00 0.  1.
          6    2    1    2  502    0 -0.75560379282E+02  0.98916993332E+02 -0.23030742314E+03  0.31410527497E+03  0.17357036650E+03 0.  0.
         24    2    3    3    0    0 -0.26714974189E+02  0.12190555032E+03 -0.21021940119E+03  0.25631283622E+03  0.77002729380E+02 0.  0.
         -6    2    1    2    0  503  0.75560379282E+02 -0.98916993332E+02 -0.41405219190E+02  0.21625183334E+03  0.17192009993E+03 0.  0.
        -24    2    5    5    0    0  0.53696527396E+02  0.64074963300E+01 -0.57946801318E+02  0.10731611798E+03  0.72350150881E+02 0.  0.
          4    1    4    4  501    0  0.17665176655E+02  0.89994099686E+02 -0.12410775995E+03  0.15431698716E+03  0.00000000000E+00 0. -1.
         -3    1    4    4    0  501 -0.44380150843E+02  0.31911450632E+02 -0.86111641235E+02  0.10199584907E+03  0.00000000000E+00 0.  1.
          5    1    3    3  502    0 -0.48845405093E+02 -0.22988556986E+02 -0.20088021947E+02  0.57792438751E+02  0.47000000000E+01 0. -1.
         13    1    6    6    0    0 -0.14589410765E+02 -0.12652546915E+02 -0.10188186755E+02  0.21834307849E+02  0.00000000000E+00 0. -1.
        -14    1    6    6    0    0  0.68285938160E+02  0.19060043245E+02 -0.47758614563E+02  0.85481810135E+02  0.00000000000E+00 0.  1.
         -5    1    5    5    0  503  0.21863851886E+02 -0.10532448966E+03  0.16541582128E+02  0.10893571536E+03  0.47000000000E+01 0.  1.
<mgrwt>
<rscale>  2 0.21325432E+03</rscale>
<asrwt>0</asrwt>
<pdfrwt beam="1">  1       21 0.19895728E-01 0.21358983E+03</pdfrwt>
<pdfrwt beam="2">  1       21 0.61697673E-01 0.21358983E+03</pdfrwt>
<totfact> 0.56322568E+04</totfact>
</mgrwt>
</event>
<event>
12    1  0.1473662E-001  0.2289779E+03  0.7546771E-02  0.1127480E+00
         21   -1    0    0  504  503  0.00000000000E+00  0.00000000000E+00  0.14698669464E+03  0.14698669464E+03  0.00000000000E+00 0. -1.
         21   -1    0    0  502  504 -0.00000000000E+00 -0.00000000000E+00 -0.81922677915E+03  0.81922677915E+03  0.00000000000E+00 0.  1.
          6    2    1    2  502    0 -0.14995887879E+03 -0.30429929213E+01 -0.69931589989E+03  0.73564029369E+03  0.17212492185E+03 0.  0.
         24    2    3    3    0    0 -0.97626990247E+02 -0.13708304233E+02 -0.65156099984E+03  0.66384199355E+03  0.80221624605E+02 0.  0.
         -6    2    1    2    0  503  0.14995887879E+03  0.30429929213E+01  0.27075815388E+02  0.23057318010E+03  0.17301435336E+03 0.  0.
        -24    2    5    5    0    0  0.16672159130E+03  0.23383442629E+02  0.52807182939E+02  0.19343942590E+03  0.79292739453E+02 0.  0.
          2    1    4    4  501    0 -0.10374318876E+03  0.50988452983E+01 -0.47782599689E+03  0.48898500053E+03  0.00000000000E+00 0. -1.
         -1    1    4    4    0  501  0.61161985111E+01 -0.18807149531E+02 -0.17373500295E+03  0.17485699302E+03  0.00000000000E+00 0.  1.
          5    1    3    3  502    0 -0.52331888547E+02  0.10665311312E+02 -0.47754900050E+02  0.71798300141E+02  0.47000000000E+01 0. -1.
         13    1    6    6    0    0  0.11027132226E+03  0.45429194617E+02  0.57993913637E+02  0.13261549780E+03  0.00000000000E+00 0. -1.
        -14    1    6    6    0    0  0.56450269037E+02 -0.22045751989E+02 -0.51867306986E+01  0.60823928107E+02  0.00000000000E+00 0.  1.
         -5    1    5    5    0  503 -0.16762712504E+02 -0.20340449707E+02 -0.25731367551E+02  0.37133754198E+02  0.47000000000E+01 0.  1.
<mgrwt>
<rscale>  2 0.22880992E+03</rscale>
<asrwt>0</asrwt>
<pdfrwt beam="1">  1       21 0.22613338E-01 0.22897793E+03</pdfrwt>
<pdfrwt beam="2">  1       21 0.12603489E+00 0.22897793E+03</pdfrwt>
<totfact> 0.83452474E+03</totfact>
</mgrwt>
</event>
<event>
12    1  0.1473662E-001  0.2900359E+03  0.7546771E-02  0.1092047E+00
         21   -1    0    0  504  503  0.00000000000E+00  0.00000000000E+00  0.86776514579E+03  0.86776514579E+03  0.00000000000E+00 0. -1.
         21   -1    0    0  502  504 -0.00000000000E+00 -0.00000000000E+00 -0.99898125568E+02  0.99898125568E+02  0.00000000000E+00 0.  1.
          6    2    1    2  502    0 -0.14597299299E+03  0.15838107542E+03  0.52187506380E+03  0.59705477822E+03  0.19423734512E+03 0.  0.
         24    2    3    3    0    0 -0.56176091343E+02  0.71342127151E+02  0.41522665102E+03  0.43263082616E+03  0.80689576040E+02 0.  0.
         -6    2    1    2    0  503  0.14597299299E+03 -0.15838107542E+03  0.24599195642E+03  0.37060849314E+03  0.17448762945E+03 0.  0.
        -24    2    5    5    0    0  0.87015358509E+02 -0.14696578402E+03  0.24657842872E+03  0.31036942366E+03  0.79734831436E+02 0.  0.
          4    1    4    4  501    0 -0.22114411127E+02  0.79814101488E+02  0.33455845330E+03  0.34465736123E+03  0.00000000000E+00 0. -1.
         -3    1    4    4    0  501 -0.34061680216E+02 -0.84719743365E+01  0.80668197715E+02  0.87973464924E+02  0.00000000000E+00 0.  1.
          5    1    3    3  502    0 -0.89796901651E+02  0.87038948264E+02  0.10664841278E+03  0.16442395206E+03  0.47000000000E+01 0. -1.
         11    1    6    6    0    0  0.29181661386E+02 -0.88882459882E+02  0.73874958350E+02  0.11920222526E+03  0.00000000000E+00 0. -1.
        -12    1    6    6    0    0  0.57833697123E+02 -0.58083324135E+02  0.17270347037E+03  0.19116719840E+03  0.00000000000E+00 0.  1.
         -5    1    5    5    0  503  0.58957634485E+02 -0.11415291399E+02 -0.58647230482E+00  0.60239069478E+02  0.47000000000E+01 0.  1.
<mgrwt>
<rscale>  2 0.28677168E+03</rscale>
<asrwt>0</asrwt>
<pdfrwt beam="1">  1       21 0.13350233E+00 0.29003590E+03</pdfrwt>
<pdfrwt beam="2">  1       21 0.15368943E-01 0.29003590E+03</pdfrwt>
<totfact> 0.14336575E+04</totfact>
</mgrwt>
</event>
<event>
12    1  0.1473662E-001  0.1803659E+03  0.7546771E-02  0.1167588E+00
         21   -1    0    0  504  503  0.00000000000E+00  0.00000000000E+00  0.20138233759E+03  0.20138233759E+03  0.00000000000E+00 0.  1.
         21   -1    0    0  502  504 -0.00000000000E+00 -0.00000000000E+00 -0.16216094580E+03  0.16216094580E+03  0.00000000000E+00 0. -1.
          6    2    1    2  502    0  0.21138384887E+02  0.44135791793E+02  0.34830614916E+02  0.18369815703E+03  0.17360023539E+03 0.  0.
         24    2    3    3    0    0 -0.12945600913E+02 -0.21578602497E+02 -0.25366792729E+02  0.88168488379E+02  0.80603867779E+02 0.  0.
         -6    2    1    2    0  503 -0.21138384887E+02 -0.44135791793E+02  0.43907768678E+01  0.17984512636E+03  0.17300344251E+03 0.  0.
        -24    2    5    5    0    0  0.31305787978E+02 -0.77901793553E+01  0.50892944704E+02  0.10075064852E+03  0.80745663052E+02 0.  0.
          4    1    4    4  501    0  0.17899932261E+02 -0.43163258552E+02 -0.15769068559E+02  0.49316711032E+02  0.00000000000E+00 0. -1.
         -3    1    4    4    0  501 -0.30845533174E+02  0.21584656055E+02 -0.95977241698E+01  0.38851777347E+02  0.00000000000E+00 0.  1.
          5    1    3    3  502    0  0.34083985800E+02  0.65714394289E+02  0.60197407644E+02  0.95529668648E+02  0.47000000000E+01 0. -1.
         11    1    6    6    0    0  0.26856562217E+02  0.21567350822E+02 -0.74912101959E+01  0.35249734549E+02  0.00000000000E+00 0. -1.
        -12    1    6    6    0    0  0.44492257616E+01 -0.29357530177E+02  0.58384154900E+02  0.65500913974E+02  0.00000000000E+00 0.  1.
         -5    1    5    5    0  503 -0.52444172865E+02 -0.36345612437E+02 -0.46502167836E+02  0.79094477838E+02  0.47000000000E+01 0.  1.
<mgrwt>
<rscale>  2 0.18022210E+03</rscale>
<asrwt>0</asrwt>
<pdfrwt beam="1">  1       21 0.30981898E-01 0.18036585E+03</pdfrwt>
<pdfrwt beam="2">  1       21 0.24947838E-01 0.18036585E+03</pdfrwt>
<totfact> 0.15277065E+05</totfact>
</mgrwt>
</event>
<event>
12    1  0.1473662E-001  0.1755465E+03  0.7546771E-02  0.1172253E+00
         21   -1    0    0  504  503  0.00000000000E+00  0.00000000000E+00  0.46473918267E+03  0.46473918267E+03  0.00000000000E+00 0. -1.
         21   -1    0    0  502  504 -0.00000000000E+00 -0.00000000000E+00 -0.14150301125E+03  0.14150301125E+03  0.00000000000E+00 0. -1.
          6    2    1    2  502    0  0.20450518150E+02 -0.21598105666E+02 -0.59559184486E+02  0.18511412281E+03  0.17272880520E+03 0.  0.
         24    2    3    3    0    0  0.47285033345E+02 -0.60716421665E+02 -0.77454207850E+02  0.13419599525E+03  0.78019565430E+02 0.  0.
         -6    2    1    2    0  503 -0.20450518150E+02  0.21598105666E+02  0.38279535591E+03  0.42112807112E+03  0.17300828280E+03 0.  0.
        -24    2    5    5    0    0 -0.77381503372E+02 -0.74387987255E+01  0.24904162326E+03  0.27281613670E+03  0.79772686640E+02 0.  0.
          2    1    4    4  501    0  0.50942635191E+01 -0.10839458934E+01 -0.58496006757E+02  0.58727414944E+02  0.00000000000E+00 0. -1.
         -1    1    4    4    0  501  0.42190769826E+02 -0.59632475772E+02 -0.18958201094E+02  0.75468580309E+02  0.00000000000E+00 0.  1.
          5    1    3    3  502    0 -0.26834515195E+02  0.39118315999E+02  0.17895023365E+02  0.50918127554E+02  0.47000000000E+01 0. -1.
         13    1    6    6    0    0 -0.69897777379E+02  0.65670837872E+01  0.24702625227E+03  0.25680886898E+03  0.00000000000E+00 0. -1.
        -14    1    6    6    0    0 -0.74837259932E+01 -0.14005882513E+02  0.20153709907E+01  0.16007267722E+02  0.00000000000E+00 0.  1.
         -5    1    5    5    0  503  0.56930985221E+02  0.29036904391E+02  0.13375373264E+03  0.14831193442E+03  0.47000000000E+01 0.  1.
<mgrwt>
<rscale>  2 0.17547759E+03</rscale>
<asrwt>0</asrwt>
<pdfrwt beam="1">  1       21 0.71498335E-01 0.17554648E+03</pdfrwt>
<pdfrwt beam="2">  1       21 0.21769694E-01 0.17554648E+03</pdfrwt>
<totfact> 0.35133369E+04</totfact>
</mgrwt>
</event>
<event>
12    1  0.1473662E-001  0.1906507E+03  0.7546771E-02  0.1157923E+00
         21   -1    0    0  504  503  0.00000000000E+00  0.00000000000E+00  0.17677120069E+02  0.17677120069E+02  0.00000000000E+00 0.  1.
         21   -1    0    0  502  504 -0.00000000000E+00 -0.00000000000E+00 -0.22023194781E+04  0.22023194781E+04  0.00000000000E+00 0.  1.
          6    2    1    2  502    0 -0.34787171855E+02  0.70785596979E+02 -0.80366059668E+03  0.82591686095E+03  0.17334231588E+03 0.  0.
         24    2    3    3    0    0  0.35438698010E+02 -0.51654238554E+01 -0.39998359723E+03  0.40917060691E+03  0.78429105508E+02 0.  0.
         -6    2    1    2    0  503  0.34787171855E+02 -0.70785596979E+02 -0.13809817614E+04  0.13940797373E+04  0.17357113954E+03 0.  0.
        -24    2    5    5    0    0  0.14843167390E+02 -0.23499619159E+02 -0.12520145418E+04  0.12551971943E+04  0.84894239879E+02 0.  0.
          2    1    4    4  501    0 -0.11159224787E+02  0.12060651931E+02 -0.26202186772E+03  0.26253656276E+03  0.00000000000E+00 0. -1.
         -1    1    4    4    0  501  0.46597922797E+02 -0.17226075786E+02 -0.13796172951E+03  0.14663404416E+03  0.00000000000E+00 0.  1.
          5    1    3    3  502    0 -0.70225869865E+02  0.75951020834E+02 -0.40367699946E+03  0.41674625404E+03  0.47000000000E+01 0. -1.
         11    1    6    6    0    0 -0.17266018364E+01 -0.49770919091E+02 -0.48411983839E+03  0.48667457656E+03  0.00000000000E+00 0. -1.
        -12    1    6    6    0    0  0.16569769227E+02  0.26271299931E+02 -0.76789470339E+03  0.76852261772E+03  0.00000000000E+00 0.  1.
         -5    1    5    5    0  503  0.19944004465E+02 -0.47285977820E+02 -0.12896721960E+03  0.13888254298E+03  0.47000000000E+01 0.  1.
<mgrwt>
<rscale>  2 0.19059860E+03</rscale>
<asrwt>0</asrwt>
<pdfrwt beam="1">  1       21 0.27195575E-02 0.19065070E+03</pdfrwt>
<pdfrwt beam="2">  1       21 0.33881831E+00 0.19065070E+03</pdfrwt>
<totfact> 0.15170522E+04</totfact>
</mgrwt>
</event>
<event>
12    1  0.1473662E-001  0.1921239E+03  0.7546771E-02  0.1156626E+00
         21   -1    0    0  504  503  0.00000000000E+00  0.00000000000E+00  0.93733058338E+02  0.93733058338E+02  0.00000000000E+00 0.  1.
         21   -1    0    0  502  504 -0.00000000000E+00 -0.00000000000E+00 -0.45151549849E+03  0.45151549849E+03  0.00000000000E+00 0. -1.
          6    2    1    2  502    0  0.65974550427E+02  0.51214018837E+02 -0.27676224646E+03  0.33673992769E+03  0.17268734988E+03 0.  0.
         24    2    3    3    0    0  0.38763117076E+02  0.15607600087E+02 -0.46320175140E+02  0.10193380044E+03  0.80614915625E+02 0.  0.
         -6    2    1    2    0  503 -0.65974550427E+02 -0.51214018837E+02 -0.81020193691E+02  0.20850862913E+03  0.17302040229E+03 0.  0.
        -24    2    5    5    0    0 -0.82702430264E+02  0.11917983888E+02 -0.81987641239E+02  0.14302200694E+03  0.82168064604E+02 0.  0.
          2    1    4    4  501    0  0.54267982976E+02  0.38308626333E+01 -0.57763814925E+02  0.79349529296E+02  0.00000000000E+00 0. -1.
         -1    1    4    4    0  501 -0.15504865900E+02  0.11776737453E+02  0.11443639785E+02  0.22584271145E+02  0.00000000000E+00 0.  1.
          5    1    3    3  502    0  0.27211433350E+02  0.35606418750E+02 -0.23044207132E+03  0.23480612725E+03  0.47000000000E+01 0. -1.
         13    1    6    6    0    0 -0.46635842778E+02 -0.34785284798E+02 -0.40965471149E+02  0.71155377145E+02  0.00000000000E+00 0. -1.
        -14    1    6    6    0    0 -0.36066587486E+02  0.46703268686E+02 -0.41022170090E+02  0.71866629793E+02  0.00000000000E+00 0.  1.
         -5    1    5    5    0  503  0.16727879838E+02 -0.63132002724E+02  0.96744754791E+00  0.65486622196E+02  0.47000000000E+01 0.  1.
<mgrwt>
<rscale>  2 0.19204884E+03</rscale>
<asrwt>0</asrwt>
<pdfrwt beam="1">  1       21 0.14420471E-01 0.19212386E+03</pdfrwt>
<pdfrwt beam="2">  1       21 0.69463923E-01 0.19212386E+03</pdfrwt>
<totfact> 0.79439841E+04</totfact>
</mgrwt>
</event>
<event>
12    1  0.1473662E-001  0.2953284E+03  0.7546771E-02  0.1087660E+00
         21   -1    0    0  504  503  0.00000000000E+00  0.00000000000E+00  0.12994800229E+04  0.12994800229E+04  0.00000000000E+00 0. -1.
         21   -1    0    0  502  504 -0.00000000000E+00 -0.00000000000E+00 -0.12224115476E+03  0.12224115476E+03  0.00000000000E+00 0. -1.
          6    2    1    2  502    0 -0.13925830679E+02  0.23922464036E+03  0.11053412789E+03  0.31488882502E+03  0.17179878165E+03 0.  0.
         24    2    3    3    0    0  0.41237146959E+02  0.17976853560E+03  0.12027030974E+03  0.23306666584E+03  0.76406116518E+02 0.  0.
         -6    2    1    2    0  503  0.13925830679E+02 -0.23922464036E+03  0.10667047403E+04  0.11068323527E+04  0.17261661764E+03 0.  0.
        -24    2    5    5    0    0  0.62788146991E+02 -0.95977976422E+02  0.57575418055E+03  0.59306034606E+03  0.84104543799E+02 0.  0.
          2    1    4    4  501    0  0.41067955398E+02  0.18297994054E+03  0.12639416669E+03  0.22614977554E+03  0.00000000000E+00 0. -1.
         -1    1    4    4    0  501  0.16919156147E+00 -0.32114049392E+01 -0.61238569580E+01  0.69168903064E+01  0.00000000000E+00 0.  1.
          5    1    3    3  502    0 -0.55162977638E+02  0.59456104762E+02 -0.97361818478E+01  0.81822159177E+02  0.47000000000E+01 0. -1.
         11    1    6    6    0    0  0.11016915948E+02 -0.85619722023E+02  0.41411262342E+03  0.42301462636E+03  0.00000000000E+00 0. -1.
        -12    1    6    6    0    0  0.51771231043E+02 -0.10358254399E+02  0.16164155713E+03  0.17004571970E+03  0.00000000000E+00 0.  1.
         -5    1    5    5    0  503 -0.48862316313E+02 -0.14324666394E+03  0.49095055973E+03  0.51377200662E+03  0.47000000000E+01 0.  1.
<mgrwt>
<rscale>  2 0.29520899E+03</rscale>
<asrwt>0</asrwt>
<pdfrwt beam="1">  1       21 0.19991999E+00 0.29532838E+03</pdfrwt>
<pdfrwt beam="2">  1       21 0.18806332E-01 0.29532838E+03</pdfrwt>
<totfact> 0.32067600E+03</totfact>
</mgrwt>
</event>
<event>
12    1  0.1473662E-001  0.2424511E+03  0.7546771E-02  0.1118912E+00
         21   -1    0    0  504  503  0.00000000000E+00  0.00000000000E+00  0.16009976036E+03  0.16009976036E+03  0.00000000000E+00 0. -1.
         21   -1    0    0  502  504 -0.00000000000E+00 -0.00000000000E+00 -0.36555185060E+03  0.36555185060E+03  0.00000000000E+00 0.  1.
          6    2    1    2  502    0  0.10933460683E+03  0.13111176320E+03 -0.13476523513E+03  0.27738816241E+03  0.17215740864E+03 0.  0.
         24    2    3    3    0    0  0.97908292667E+01  0.66195355697E+02 -0.99790812864E+01  0.10500261254E+03  0.80301190051E+02 0.  0.
         -6    2    1    2    0  503 -0.10933460683E+03 -0.13111176320E+03 -0.70686855109E+02  0.24826344855E+03  0.16581241722E+03 0.  0.
        -24    2    5    5    0    0 -0.51971590923E+02 -0.78476486433E+01 -0.16819774074E+01  0.95723877699E+02  0.79984997728E+02 0.  0.
          4    1    4    4  501    0 -0.25807416753E+02  0.60939043812E+02  0.42325205891E+01  0.66313679212E+02  0.00000000000E+00 0. -1.
         -3    1    4    4    0  501  0.35598246019E+02  0.52563118854E+01 -0.14211601875E+02  0.38688933329E+02  0.00000000000E+00 0.  1.
          5    1    3    3  502    0  0.99543777560E+02  0.64916407499E+02 -0.12478615384E+03  0.17238554987E+03  0.47000000000E+01 0. -1.
         13    1    6    6    0    0 -0.17699154083E+02  0.11316364624E+01  0.38357988032E+02  0.42259624966E+02  0.00000000000E+00 0. -1.
        -14    1    6    6    0    0 -0.34272436840E+02 -0.89792851057E+01 -0.40039965440E+02  0.53464252734E+02  0.00000000000E+00 0.  1.
         -5    1    5    5    0  503 -0.57363015904E+02 -0.12326411455E+03 -0.69004877701E+02  0.15253957086E+03  0.47000000000E+01 0.  1.
<mgrwt>
<rscale>  2 0.24132742E+03</rscale>
<asrwt>0</asrwt>
<pdfrwt beam="1">  1       21 0.24630733E-01 0.24245108E+03</pdfrwt>
<pdfrwt beam="2">  1       21 0.56238746E-01 0.24245108E+03</pdfrwt>
<totfact> 0.45304994E+04</totfact>
</mgrwt>
</event>
<event>
12    1  0.1473662E-001  0.2023589E+03  0.7546771E-02  0.1147961E+00
         21   -1    0    0  504  503  0.00000000000E+00  0.00000000000E+00  0.11194277539E+04  0.11194277539E+04  0.00000000000E+00 0.  1.
         21   -1    0    0  502  504 -0.00000000000E+00 -0.00000000000E+00 -0.38679894006E+02  0.38679894006E+02  0.00000000000E+00 0.  1.
          6    2    1    2  502    0 -0.87284374210E+02  0.55527419087E+02  0.68185376119E+03  0.71124795876E+03  0.17391736813E+03 0.  0.
         24    2    3    3    0    0 -0.90989445598E+02  0.42746610478E+02  0.68494408773E+03  0.69680092651E+03  0.79226106553E+02 0.  0.
         -6    2    1    2    0  503  0.87284374210E+02 -0.55527419087E+02  0.39889409870E+03  0.44685968914E+03  0.17281557671E+03 0.  0.
        -24    2    5    5    0    0  0.49249160385E+02 -0.54218750424E+02  0.39305365918E+03  0.40807063349E+03  0.81641351203E+02 0.  0.
          2    1    4    4  501    0 -0.60878401796E+02  0.23862165143E+02  0.19708744406E+03  0.20765125412E+03  0.00000000000E+00 0. -1.
         -1    1    4    4    0  501 -0.30111043803E+02  0.18884445335E+02  0.48785664366E+03  0.48914967239E+03  0.00000000000E+00 0.  1.
          5    1    3    3  502    0  0.37050713887E+01  0.12780808608E+02 -0.30903265336E+01  0.14447032248E+02  0.47000000000E+01 0. -1.
         11    1    6    6    0    0 -0.11026367509E+02 -0.43149874010E+02  0.11452950379E+03  0.12288409029E+03  0.00000000000E+00 0. -1.
        -12    1    6    6    0    0  0.60275527893E+02 -0.11068876414E+02  0.27852415540E+03  0.28518654321E+03  0.00000000000E+00 0.  1.
         -5    1    5    5    0  503  0.38035213825E+02 -0.13086686623E+01  0.58404395149E+01  0.38789055649E+02  0.47000000000E+01 0.  1.
<mgrwt>
<rscale>  2 0.20212190E+03</rscale>
<asrwt>0</asrwt>
<pdfrwt beam="1">  1       21 0.17221963E+00 0.20235886E+03</pdfrwt>
<pdfrwt beam="2">  1       21 0.59507538E-02 0.20235886E+03</pdfrwt>
<totfact> 0.40922570E+04</totfact>
</mgrwt>
</event>
<event>
12    1  0.1473662E-001  0.1754279E+03  0.7546771E-02  0.1172537E+00
         21   -1    0    0  504  503  0.00000000000E+00  0.00000000000E+00  0.16160510469E+04  0.16160510469E+04  0.00000000000E+00 0.  1.
         21   -1    0    0  502  504 -0.00000000000E+00 -0.00000000000E+00 -0.60509125393E+02  0.60509125393E+02  0.00000000000E+00 0.  1.
          6    2    1    2  502    0  0.13593869298E+02  0.11406938812E+02  0.82332329876E+02  0.19294248542E+03  0.17358939657E+03 0.  0.
         24    2    3    3    0    0 -0.49212335413E+02  0.31735726807E+02  0.20400638818E+02  0.10230307164E+03  0.81367819750E+02 0.  0.
         -6    2    1    2    0  503 -0.13593869298E+02 -0.11406938812E+02  0.14732095916E+04  0.14836176869E+04  0.17452801610E+03 0.  0.
        -24    2    5    5    0    0 -0.58399314391E+02  0.34819983498E+02  0.10765784796E+04  0.10817684797E+04  0.81110479099E+02 0.  0.
          4    1    4    4  501    0 -0.43638051813E+02  0.16356878321E+02  0.50083129848E+02  0.68411599381E+02  0.00000000000E+00 0. -1.
         -3    1    4    4    0  501 -0.55742835999E+01  0.15378848486E+02 -0.29682491030E+02  0.33891472263E+02  0.00000000000E+00 0.  1.
          5    1    3    3  502    0  0.62806204711E+02 -0.20328787995E+02  0.61931691058E+02  0.90639413772E+02  0.47000000000E+01 0. -1.
         13    1    6    6    0    0  0.17060522279E+02  0.25428637362E+01  0.81186856905E+02  0.82998995841E+02  0.00000000000E+00 0. -1.
        -14    1    6    6    0    0 -0.75459836670E+02  0.32277119762E+02  0.99539162271E+03  0.99876948390E+03  0.00000000000E+00 0.  1.
         -5    1    5    5    0  503  0.44805445092E+02 -0.46226922310E+02  0.39663111201E+03  0.40184920713E+03  0.47000000000E+01 0.  1.
<mgrwt>
<rscale>  2 0.17519396E+03</rscale>
<asrwt>0</asrwt>
<pdfrwt beam="1">  1       21 0.24862321E+00 0.17542788E+03</pdfrwt>
<pdfrwt beam="2">  1       21 0.93090974E-02 0.17542788E+03</pdfrwt>
<totfact> 0.63498028E+03</totfact>
</mgrwt>
</event>
<event>
12    1  0.1473662E-001  0.1806959E+03  0.7546771E-02  0.1167534E+00
         21   -1    0    0  504  503  0.00000000000E+00  0.00000000000E+00  0.36019853375E+02  0.36019853375E+02  0.00000000000E+00 0. -1.
         21   -1    0    0  502  504 -0.00000000000E+00 -0.00000000000E+00 -0.89915576373E+03  0.89915576373E+03  0.00000000000E+00 0. -1.
          6    2    1    2  502    0  0.46201207544E+02 -0.78095391209E+01 -0.44923485220E+03  0.48421374786E+03  0.17451492975E+03 0.  0.
         24    2    3    3    0    0 -0.58594250912E+01  0.15042508502E+02 -0.40183575841E+03  0.41004306873E+03  0.80017070354E+02 0.  0.
         -6    2    1    2    0  503 -0.46201207544E+02  0.78095391209E+01 -0.41390105815E+03  0.45096186924E+03  0.17279172750E+03 0.  0.
        -24    2    5    5    0    0 -0.65746558371E+02  0.82800745269E+01 -0.41773394200E+03  0.43049181450E+03  0.80189690630E+02 0.  0.
          4    1    4    4  501    0  0.12018171558E+02  0.22965994438E+02 -0.37938789268E+03  0.38027233197E+03  0.00000000000E+00 0. -1.
         -3    1    4    4    0  501 -0.17877596649E+02 -0.79234859356E+01 -0.22447865736E+02  0.29770736763E+02  0.00000000000E+00 0.  1.
          5    1    3    3  502    0  0.52060632635E+02 -0.22852047623E+02 -0.47399093789E+02  0.74170679132E+02  0.47000000000E+01 0. -1.
         11    1    6    6    0    0 -0.10487855345E+01  0.12036985327E+02 -0.56416662441E+01  0.13334817766E+02  0.00000000000E+00 0. -1.
        -12    1    6    6    0    0 -0.64697772836E+02 -0.37569107997E+01 -0.41209227575E+03  0.41715699673E+03  0.00000000000E+00 0.  1.
         -5    1    5    5    0  503  0.19545350827E+02 -0.47053540602E+00  0.38328838469E+01  0.20470054741E+02  0.47000000000E+01 0.  1.
<mgrwt>
<rscale>  2 0.18027851E+03</rscale>
<asrwt>0</asrwt>
<pdfrwt beam="1">  1       21 0.55415161E-02 0.18069588E+03</pdfrwt>
<pdfrwt beam="2">  1       21 0.13833165E+00 0.18069588E+03</pdfrwt>
<totfact> 0.83834489E+04</totfact>
</mgrwt>
</event>
<event>
12    1  0.1473662E-001  0.2373722E+03  0.7546771E-02  0.1121642E+00
         21   -1    0    0  504  503  0.00000000000E+00  0.00000000000E+00  0.14881564455E+03  0.14881564455E+03  0.00000000000E+00 0. -1.
         21   -1    0    0  502  504 -0.00000000000E+00 -0.00000000000E+00 -0.37828640118E+03  0.37828640118E+03  0.00000000000E+00 0.  1.
          6    2    1    2  502    0 -0.12442775980E+02 -0.16208514076E+03 -0.10530452966E+03  0.25921626350E+03  0.17227191230E+03 0.  0.
         24    2    3    3    0    0  0.32379687313E+02 -0.10100389369E+03 -0.11901826571E+03  0.18207918736E+03  0.87961651899E+02 0.  0.
         -6    2    1    2    0  503  0.12442775980E+02  0.16208514076E+03 -0.12416622697E+03  0.26788578224E+03  0.17297145682E+03 0.  0.
        -24    2    5    5    0    0 -0.61670942841E+01  0.83090086518E+02  0.34260096319E+01  0.11659660646E+03  0.81492549146E+02 0.  0.
          4    1    4    4  501    0  0.19537391798E+02 -0.51447420672E+01  0.85962851551E+01  0.21956187458E+02  0.00000000000E+00 0. -1.
         -3    1    4    4    0  501  0.12842295515E+02 -0.95859151624E+02 -0.12761455087E+03  0.16012299990E+03  0.00000000000E+00 0.  1.
          5    1    3    3  502    0 -0.44822463292E+02 -0.61081247066E+02  0.13713736053E+02  0.77137076139E+02  0.47000000000E+01 0. -1.
         13    1    6    6    0    0 -0.31167517640E+02  0.56853054478E+01  0.13873754617E+02  0.34586383463E+02  0.00000000000E+00 0. -1.
        -14    1    6    6    0    0  0.25000423356E+02  0.77404781070E+02 -0.10447744986E+02  0.82010222995E+02  0.00000000000E+00 0.  1.
         -5    1    5    5    0  503  0.18609870264E+02  0.78995054240E+02 -0.12759223660E+03  0.15128917578E+03  0.47000000000E+01 0.  1.
<mgrwt>
<rscale>  2 0.23724474E+03</rscale>
<asrwt>0</asrwt>
<pdfrwt beam="1">  1       21 0.22894715E-01 0.23737216E+03</pdfrwt>
<pdfrwt beam="2">  1       21 0.58197906E-01 0.23737216E+03</pdfrwt>
<totfact> 0.48508345E+04</totfact>
</mgrwt>
</event>
<event>
12    1  0.1473662E-001  0.1831793E+03  0.7546771E-02  0.1165121E+00
         21   -1    0    0  504  503  0.00000000000E+00  0.00000000000E+00  0.24052656884E+02  0.24052656884E+02  0.00000000000E+00 0.  1.
         21   -1    0    0  502  504 -0.00000000000E+00 -0.00000000000E+00 -0.16320273344E+04  0.16320273344E+04  0.00000000000E+00 0. -1.
          6    2    1    2  502    0 -0.58520654408E+02  0.11232384140E+02 -0.48371139433E+03  0.51723434830E+03  0.17321612112E+03 0.  0.
         24    2    3    3    0    0 -0.59094614930E+02  0.70569746706E+02 -0.34875581643E+03  0.36973400921E+03  0.81242571408E+02 0.  0.
         -6    2    1    2    0  503  0.58520654408E+02 -0.11232384140E+02 -0.11242632832E+04  0.11388456430E+04  0.17161187362E+03 0.  0.
        -24    2    5    5    0    0  0.29565204476E+01 -0.67353637271E+02 -0.69071636778E+03  0.69813940761E+03  0.75922844195E+02 0.  0.
          4    1    4    4  501    0 -0.50535628702E+02  0.32519600156E+01 -0.19862870327E+03  0.20498240601E+03  0.00000000000E+00 0. -1.
         -3    1    4    4    0  501 -0.85589862278E+01  0.67317786690E+02 -0.15012711316E+03  0.16475160319E+03  0.00000000000E+00 0.  1.
          5    1    3    3  502    0  0.57396052222E+00 -0.59337362566E+02 -0.13495557790E+03  0.14750033910E+03  0.47000000000E+01 0. -1.
         13    1    6    6    0    0 -0.11991377745E+02  0.11513831355E+02 -0.57485003808E+02  0.59840513998E+02  0.00000000000E+00 0. -1.
        -14    1    6    6    0    0  0.14947898192E+02 -0.78867468626E+02 -0.63323136397E+03  0.63829889361E+03  0.00000000000E+00 0.  1.
         -5    1    5    5    0  503  0.55564133960E+02  0.56121253131E+02 -0.43354691538E+03  0.44070623535E+03  0.47000000000E+01 0.  1.
<mgrwt>
<rscale>  2 0.18279906E+03</rscale>
<asrwt>0</asrwt>
<pdfrwt beam="1">  1       21 0.37004092E-02 0.18317931E+03</pdfrwt>
<pdfrwt beam="2">  1       21 0.25108110E+00 0.18317931E+03</pdfrwt>
<totfact> 0.29485262E+04</totfact>
</mgrwt>
</event>
<event>
12    1  0.1473662E-001  0.3639653E+03  0.7546771E-02  0.1057174E+00
         21   -1    0    0  504  503  0.00000000000E+00  0.00000000000E+00  0.83636754938E+02  0.83636754938E+02  0.00000000000E+00 0. -1.
         21   -1    0    0  502  504 -0.00000000000E+00 -0.00000000000E+00 -0.16959051539E+04  0.16959051539E+04  0.00000000000E+00 0.  1.
          6    2    1    2  502    0  0.14616661768E+03  0.28348259635E+03 -0.57234370279E+03  0.67826841295E+03  0.17533871029E+03 0.  0.
         24    2    3    3    0    0  0.24169662712E+02  0.15943267379E+03 -0.21464970853E+03  0.28047610051E+03  0.81175091730E+02 0.  0.
         -6    2    1    2    0  503 -0.14616661768E+03 -0.28348259635E+03 -0.10399246962E+04  0.11012734959E+04  0.17214202414E+03 0.  0.
        -24    2    5    5    0    0 -0.13924812300E+03 -0.26018086471E+03 -0.74486582349E+03  0.80517779410E+03  0.80012892651E+02 0.  0.
          2    1    4    4  501    0 -0.28956898643E+02  0.38467219784E+02 -0.64240307561E+02  0.80281044416E+02  0.00000000000E+00 0. -1.
         -1    1    4    4    0  501  0.53126561355E+02  0.12096545401E+03 -0.15040940097E+03  0.20019505609E+03  0.00000000000E+00 0.  1.
          5    1    3    3  502    0  0.12199695497E+03  0.12404992256E+03 -0.35769399426E+03  0.39779231244E+03  0.47000000000E+01 0. -1.
         13    1    6    6    0    0 -0.44105044342E+02 -0.11007436418E+03 -0.40008834096E+03  0.41729162603E+03  0.00000000000E+00 0. -1.
        -14    1    6    6    0    0 -0.95143078661E+02 -0.15010650054E+03 -0.34477748253E+03  0.38788616807E+03  0.00000000000E+00 0.  1.
         -5    1    5    5    0  503 -0.69184946757E+01 -0.23301731638E+02 -0.29505887267E+03  0.29609570177E+03  0.47000000000E+01 0.  1.
<mgrwt>
<rscale>  2 0.36358239E+03</rscale>
<asrwt>0</asrwt>
<pdfrwt beam="1">  1       21 0.12867193E-01 0.36396528E+03</pdfrwt>
<pdfrwt beam="2">  1       21 0.26090849E+00 0.36396528E+03</pdfrwt>
<totfact> 0.25871235E+03</totfact>
</mgrwt>
</event>
<event>
12    1  0.1473662E-001  0.2115470E+03  0.7546771E-02  0.1140493E+00
         21   -1    0    0  504  503  0.00000000000E+00  0.00000000000E+00  0.70525375563E+03  0.70525375563E+03  0.00000000000E+00 0.  1.
         21   -1    0    0  502  504 -0.00000000000E+00 -0.00000000000E+00 -0.12311790303E+03  0.12311790303E+03  0.00000000000E+00 0. -1.
          6    2    1    2  502    0 -0.27012710536E+02 -0.11874577379E+03  0.19404734786E+01  0.21081291340E+03  0.17206996744E+03 0.  0.
         24    2    3    3    0    0 -0.30034684347E+02 -0.69022756628E+02  0.67372842741E+02  0.12844182800E+03  0.79322002281E+02 0.  0.
         -6    2    1    2    0  503  0.27012710536E+02  0.11874577379E+03  0.58019537912E+03  0.61755874526E+03  0.17297942239E+03 0.  0.
        -24    2    5    5    0    0 -0.16615689129E+02  0.12912338688E+02  0.13961267205E+03  0.16232324026E+03  0.80089490671E+02 0.  0.
          4    1    4    4  501    0  0.95840421550E+01 -0.49242931444E+02  0.29315063937E+01  0.50252501341E+02  0.00000000000E+00 0. -1.
         -3    1    4    4    0  501 -0.39618726502E+02 -0.19779825184E+02  0.64441336347E+02  0.78189326664E+02  0.00000000000E+00 0.  1.
          5    1    3    3  502    0  0.30219738106E+01 -0.49723017161E+02 -0.65432369262E+02  0.82371085391E+02  0.47000000000E+01 0. -1.
         11    1    6    6    0    0  0.11901090917E+02 -0.22024708818E+02  0.13613515762E+02  0.28496518646E+02  0.00000000000E+00 0. -1.
        -12    1    6    6    0    0 -0.28516780045E+02  0.34937047507E+02  0.12599915629E+03  0.13382672161E+03  0.00000000000E+00 0.  1.
         -5    1    5    5    0  503  0.43628399665E+02  0.10583343510E+03  0.44058270707E+03  0.45523550500E+03  0.47000000000E+01 0.  1.
<mgrwt>
<rscale>  2 0.21136099E+03</rscale>
<asrwt>0</asrwt>
<pdfrwt beam="1">  1       21 0.10850058E+00 0.21154698E+03</pdfrwt>
<pdfrwt beam="2">  1       21 0.18941216E-01 0.21154698E+03</pdfrwt>
<totfact> 0.17039754E+04</totfact>
</mgrwt>
</event>
<event>
12    1  0.1473662E-001  0.2361839E+03  0.7546771E-02  0.1122498E+00
         21   -1    0    0  504  503  0.00000000000E+00  0.00000000000E+00  0.65222439264E+02  0.65222439264E+02  0.00000000000E+00 0. -1.
         21   -1    0    0  502  504 -0.00000000000E+00 -0.00000000000E+00 -0.13939443957E+04  0.13939443957E+04  0.00000000000E+00 0. -1.
          6    2    1    2  502    0  0.10385213480E+03 -0.12175312157E+03 -0.20890939021E+03  0.31471806094E+03  0.17261296605E+03 0.  0.
         24    2    3    3    0    0  0.89037331432E+02 -0.15261468924E+03 -0.20123002463E+03  0.27932063993E+03  0.79420446473E+02 0.  0.
         -6    2    1    2    0  503 -0.10385213480E+03  0.12175312157E+03 -0.11198125663E+04  0.11444487741E+04  0.17370585593E+03 0.  0.
        -24    2    5    5    0    0 -0.13388984951E+03  0.11166326643E+03 -0.78917235281E+03  0.81226040848E+03  0.81109751968E+02 0.  0.
          4    1    4    4  501    0  0.12500331451E+02 -0.10010737643E+03 -0.10300559401E+03  0.14418008704E+03  0.00000000000E+00 0. -1.
         -3    1    4    4    0  501  0.76536999981E+02 -0.52507312815E+02 -0.98224430619E+02  0.13514055289E+03  0.00000000000E+00 0.  1.
          5    1    3    3  502    0  0.14814803368E+02  0.30861567672E+02 -0.76793655776E+01  0.35397421004E+02  0.47000000000E+01 0. -1.
         11    1    6    6    0    0 -0.31220797300E+02  0.64903900376E+02 -0.20472821015E+03  0.21702740495E+03  0.00000000000E+00 0. -1.
        -12    1    6    6    0    0 -0.10266905221E+03  0.46759366050E+02 -0.58444414266E+03  0.59523300353E+03  0.00000000000E+00 0.  1.
         -5    1    5    5    0  503  0.30037714712E+02  0.10089855143E+02 -0.33064021344E+03  0.33218836558E+03  0.47000000000E+01 0.  1.
<mgrwt>
<rscale>  2 0.23598294E+03</rscale>
<asrwt>0</asrwt>
<pdfrwt beam="1">  1       21 0.10034221E-01 0.23618385E+03</pdfrwt>
<pdfrwt beam="2">  1       21 0.21445298E+00 0.23618385E+03</pdfrwt>
<totfact> 0.84690518E+03</totfact>
</mgrwt>
</event>
<event>
12    1  0.1473662E-001  0.1792220E+03  0.7546771E-02  0.1168924E+00
         21   -1    0    0  504  503  0.00000000000E+00  0.00000000000E+00  0.65500826705E+03  0.65500826705E+03  0.00000000000E+00 0. -1.
         21   -1    0    0  502  504 -0.00000000000E+00 -0.00000000000E+00 -0.80512647518E+02  0.80512647518E+02  0.00000000000E+00 0. -1.
          6    2    1    2  502    0 -0.35613643726E+02 -0.17874137330E+02  0.55092916096E+02  0.18606690512E+03  0.17319886654E+03 0.  0.
         24    2    3    3    0    0  0.29063666626E+02  0.39527309329E+02  0.24529694288E+02  0.94228563014E+02  0.76617304085E+02 0.  0.
         -6    2    1    2    0  503  0.35613643726E+02  0.17874137330E+02  0.51940270343E+03  0.54945400945E+03  0.17473615471E+03 0.  0.
        -24    2    5    5    0    0  0.42160979841E+01 -0.14684157247E+02  0.48729194707E+03  0.49378499564E+03  0.78337604528E+02 0.  0.
          2    1    4    4  501    0  0.25268017762E+02  0.61362693380E+02  0.85596399847E+01  0.66911286769E+02  0.00000000000E+00 0. -1.
         -1    1    4    4    0  501  0.37956488640E+01 -0.21835384051E+02  0.15970054304E+02  0.27317276245E+02  0.00000000000E+00 0.  1.
          5    1    3    3  502    0 -0.64677310352E+02 -0.57401446659E+02  0.30563221808E+02  0.91838342102E+02  0.47000000000E+01 0. -1.
         11    1    6    6    0    0  0.41004135861E+02 -0.39782099976E+01  0.27387497769E+03  0.27695607723E+03  0.00000000000E+00 0. -1.
        -12    1    6    6    0    0 -0.36788037877E+02 -0.10705947250E+02  0.21341696938E+03  0.21682891841E+03  0.00000000000E+00 0.  1.
         -5    1    5    5    0  503  0.31397545742E+02  0.32558294577E+02  0.32110756363E+02  0.55669013810E+02  0.47000000000E+01 0.  1.
<mgrwt>
<rscale>  2 0.17884624E+03</rscale>
<asrwt>0</asrwt>
<pdfrwt beam="1">  1       21 0.10077050E+00 0.17922204E+03</pdfrwt>
<pdfrwt beam="2">  1       21 0.12386562E-01 0.17922204E+03</pdfrwt>
<totfact> 0.45002628E+04</totfact>
</mgrwt>
</event>
<event>
12    1  0.1473662E-001  0.2139572E+03  0.7546771E-02  0.1138494E+00
         21   -1    0    0  504  503  0.00000000000E+00  0.00000000000E+00  0.47590095974E+03  0.47590095974E+03  0.00000000000E+00 0.  1.
         21   -1    0    0  502  504 -0.00000000000E+00 -0.00000000000E+00 -0.15807811990E+03  0.15807811990E+03  0.00000000000E+00 0.  1.
          6    2    1    2  502    0 -0.64795543141E+02 -0.10792915937E+03 -0.39488815581E+02  0.21757079011E+03  0.17300438231E+03 0.  0.
         24    2    3    3    0    0  0.27454198083E+02 -0.65345602426E+02  0.42518591179E+00  0.10830692786E+03  0.81892790223E+02 0.  0.
         -6    2    1    2    0  503  0.64795543141E+02  0.10792915937E+03  0.35731165542E+03  0.41640828954E+03  0.17284987314E+03 0.  0.
        -24    2    5    5    0    0  0.66737627622E+02 -0.99505016365E+00  0.17447833229E+03  0.20352717445E+03  0.80781936314E+02 0.  0.
          4    1    4    4  501    0  0.44190528091E+02 -0.10155955327E+02 -0.16422486835E+02  0.48224934167E+02  0.00000000000E+00 0. -1.
         -3    1    4    4    0  501 -0.16736330008E+02 -0.55189647099E+02  0.16847672747E+02  0.60081993693E+02  0.00000000000E+00 0.  1.
          5    1    3    3  502    0 -0.92249741224E+02 -0.42583556947E+02 -0.39914001493E+02  0.10926386225E+03  0.47000000000E+01 0. -1.
         11    1    6    6    0    0  0.57605054415E+02 -0.21944692473E+01  0.43480823461E+02  0.72206232406E+02  0.00000000000E+00 0. -1.
        -12    1    6    6    0    0  0.91325732077E+01  0.11994190836E+01  0.13099750883E+03  0.13132094204E+03  0.00000000000E+00 0.  1.
         -5    1    5    5    0  503 -0.19420844815E+01  0.10892420954E+03  0.18283332313E+03  0.21288111509E+03  0.47000000000E+01 0.  1.
<mgrwt>
<rscale>  2 0.21392596E+03</rscale>
<asrwt>0</asrwt>
<pdfrwt beam="1">  1       21 0.73215532E-01 0.21395720E+03</pdfrwt>
<pdfrwt beam="2">  1       21 0.24319711E-01 0.21395720E+03</pdfrwt>
<totfact> 0.26462763E+04</totfact>
</mgrwt>
</event>
<event>
12    1  0.1473662E-001  0.2041485E+03  0.7546771E-02  0.1146588E+00
         21   -1    0    0  504  503  0.00000000000E+00  0.00000000000E+00  0.14558326682E+04  0.14558326682E+04  0.00000000000E+00 0. -1.
         21   -1    0    0  502  504 -0.00000000000E+00 -0.00000000000E+00 -0.32772184364E+02  0.32772184364E+02  0.00000000000E+00 0. -1.
          6    2    1    2  502    0 -0.96273192081E+02 -0.43559964988E+02  0.44257920158E+03  0.48739403817E+03  0.17467283908E+03 0.  0.
         24    2    3    3    0    0 -0.44207791156E+02 -0.93479310628E+02  0.25793658345E+03  0.28910704043E+03  0.79742644998E+02 0.  0.
         -6    2    1    2    0  503  0.96273192081E+02  0.43559964988E+02  0.98048128228E+03  0.10012108144E+04  0.17295534666E+03 0.  0.
        -24    2    5    5    0    0  0.81871293389E+02 -0.18830606278E+02  0.82113690546E+03  0.82941815307E+03  0.81309007596E+02 0.  0.
          2    1    4    4  501    0 -0.47336679700E+02 -0.10574008156E+03  0.21354106831E+03  0.24294343776E+03  0.00000000000E+00 0. -1.
         -1    1    4    4    0  501  0.31288885434E+01  0.12260770936E+02  0.44395515137E+02  0.46163602673E+02  0.00000000000E+00 0.  1.
          5    1    3    3  502    0 -0.52065400925E+02  0.49919345640E+02  0.18464261813E+03  0.19828699774E+03  0.47000000000E+01 0. -1.
         11    1    6    6    0    0 -0.64989507891E+01  0.18262671642E+02  0.19909352636E+03  0.20003498138E+03  0.00000000000E+00 0. -1.
        -12    1    6    6    0    0  0.88370244178E+02 -0.37093277920E+02  0.62204337910E+03  0.62938317169E+03  0.00000000000E+00 0.  1.
         -5    1    5    5    0  503  0.14401898693E+02  0.62390571267E+02  0.15934437681E+03  0.17179266134E+03  0.47000000000E+01 0.  1.
<mgrwt>
<rscale>  2 0.20378059E+03</rscale>
<asrwt>0</asrwt>
<pdfrwt beam="1">  1       21 0.22397421E+00 0.20414847E+03</pdfrwt>
<pdfrwt beam="2">  1       21 0.50418756E-02 0.20414847E+03</pdfrwt>
<totfact> 0.25003314E+04</totfact>
</mgrwt>
</event>
<event>
12    1  0.1473662E-001  0.1764263E+03  0.7546771E-02  0.1171834E+00
         21   -1    0    0  504  503  0.00000000000E+00  0.00000000000E+00  0.18608952274E+03  0.18608952274E+03  0.00000000000E+00 0.  1.
         21   -1    0    0  502  504 -0.00000000000E+00 -0.00000000000E+00 -0.17192469141E+03  0.17192469141E+03  0.00000000000E+00 0.  1.
          6    2    1    2  502    0 -0.14784651785E+02 -0.11675113339E+02  0.42337498361E+02  0.18143510073E+03  0.17541760975E+03 0.  0.
         24    2    3    3    0    0  0.59142777559E+01 -0.55754345949E+02  0.74555164417E+02  0.12285615880E+03  0.79947716916E+02 0.  0.
         -6    2    1    2    0  503  0.14784651785E+02  0.11675113339E+02 -0.28172667030E+02  0.17657911343E+03  0.17329624904E+03 0.  0.
        -24    2    5    5    0    0  0.38110995150E+02 -0.29005780478E+02 -0.68097494052E+02  0.11481233248E+03  0.79062125825E+02 0.  0.
          2    1    4    4  501    0 -0.10813215614E+02 -0.30339236598E+02 -0.94044863922E+01  0.33553528481E+02  0.00000000000E+00 0. -1.
         -1    1    4    4    0  501  0.16727493370E+02 -0.25415109351E+02  0.83959650809E+02  0.89302630318E+02  0.00000000000E+00 0.  1.
          5    1    3    3  502    0 -0.20698929541E+02  0.44079232611E+02 -0.32217666056E+02  0.58578941931E+02  0.47000000000E+01 0. -1.
         13    1    6    6    0    0  0.24143949853E+02 -0.49485804495E+01  0.13850837390E+02  0.28271265614E+02  0.00000000000E+00 0. -1.
        -14    1    6    6    0    0  0.13967045297E+02 -0.24057200028E+02 -0.81948331442E+02  0.86541066862E+02  0.00000000000E+00 0.  1.
         -5    1    5    5    0  503 -0.23326343365E+02  0.40680893816E+02  0.39924827021E+02  0.61766780952E+02  0.47000000000E+01 0.  1.
<mgrwt>
<rscale>  2 0.17589663E+03</rscale>
<asrwt>0</asrwt>
<pdfrwt beam="1">  1       21 0.28629157E-01 0.17642628E+03</pdfrwt>
<pdfrwt beam="2">  1       21 0.26449953E-01 0.17642628E+03</pdfrwt>
<totfact> 0.15949143E+05</totfact>
</mgrwt>
</event>
<event>
12    1  0.1473662E-001  0.2399946E+03  0.7546771E-02  0.1119885E+00
         21   -1    0    0  504  503  0.00000000000E+00  0.00000000000E+00  0.54911353710E+02  0.54911353710E+02  0.00000000000E+00 0. -1.
         21   -1    0    0  502  504 -0.00000000000E+00 -0.00000000000E+00 -0.12536268799E+04  0.12536268799E+04  0.00000000000E+00 0.  1.
          6    2    1    2  502    0 -0.16347319612E+03  0.25352474484E+02 -0.33403055838E+03  0.41130743367E+03  0.17387109377E+03 0.  0.
         24    2    3    3    0    0 -0.14912847951E+03 -0.29068398636E+02 -0.18646234568E+03  0.25330151693E+03  0.79430327467E+02 0.  0.
         -6    2    1    2    0  503  0.16347319612E+03 -0.25352474484E+02 -0.86468496782E+03  0.89723079996E+03  0.17313804030E+03 0.  0.
        -24    2    5    5    0    0  0.37317549855E+02  0.35225218021E+02 -0.46884744307E+03  0.47735660461E+03  0.73606980526E+02 0.  0.
          4    1    4    4  501    0 -0.12366997568E+03  0.24858095508E+01 -0.10477368830E+03  0.16210480527E+03  0.00000000000E+00 0. -1.
         -3    1    4    4    0  501 -0.25458503831E+02 -0.31554208187E+02 -0.81688657383E+02  0.91196711654E+02  0.00000000000E+00 0.  1.
          5    1    3    3  502    0 -0.14344716610E+02  0.54420873119E+02 -0.14756821270E+03  0.15800591674E+03  0.47000000000E+01 0. -1.
         13    1    6    6    0    0 -0.71987045861E+01  0.43765784077E+02 -0.22410442365E+03  0.22845143445E+03  0.00000000000E+00 0. -1.
        -14    1    6    6    0    0  0.44516254441E+02 -0.85405660555E+01 -0.24474301942E+03  0.24890517016E+03  0.00000000000E+00 0.  1.
         -5    1    5    5    0  503  0.12615564626E+03 -0.60577692505E+02 -0.39583752475E+03  0.41987419535E+03  0.47000000000E+01 0.  1.
<mgrwt>
<rscale>  2 0.23986182E+03</rscale>
<asrwt>0</asrwt>
<pdfrwt beam="1">  1       21 0.84479015E-02 0.23999456E+03</pdfrwt>
<pdfrwt beam="2">  1       21 0.19286565E+00 0.23999456E+03</pdfrwt>
<totfact> 0.15756788E+04</totfact>
</mgrwt>
</event>
<event>
12    1  0.1473662E-001  0.2281388E+03  0.7546771E-02  0.1127998E+00
         21   -1    0    0  504  503  0.00000000000E+00  0.00000000000E+00  0.13811070963E+03  0.13811070963E+03  0.00000000000E+00 0.  1.
         21   -1    0    0  502  504 -0.00000000000E+00 -0.00000000000E+00 -0.37815569613E+03  0.37815569613E+03  0.00000000000E+00 0. -1.
          6    2    1    2  502    0  0.13291532133E+03 -0.66679369028E+02 -0.10271989547E+03  0.24998553461E+03  0.17271007408E+03 0.  0.
         24    2    3    3    0    0  0.13944849749E+03 -0.63801267347E+02 -0.13293103911E+03  0.21858857520E+03  0.81202332976E+02 0.  0.
         -6    2    1    2    0  503 -0.13291532133E+03  0.66679369028E+02 -0.13732509102E+03  0.26628087114E+03  0.17301647556E+03 0.  0.
        -24    2    5    5    0    0 -0.16800008023E+02  0.60126207783E+02 -0.27430067376E+02  0.10620365187E+03  0.81421163975E+02 0.  0.
          4    1    4    4  501    0  0.12008153466E+03 -0.71775130743E+02 -0.13855979409E+03  0.19690114498E+03  0.00000000000E+00 0. -1.
         -3    1    4    4    0  501  0.19366962835E+02  0.79738633963E+01  0.56287549717E+01  0.21687430218E+02  0.00000000000E+00 0.  1.
          5    1    3    3  502    0 -0.65331761606E+01 -0.28781016809E+01  0.30211143641E+02  0.31396959409E+02  0.47000000000E+01 0. -1.
         13    1    6    6    0    0 -0.45885348603E+02  0.38146307151E+02 -0.34703756098E+02  0.69028665444E+02  0.00000000000E+00 0. -1.
        -14    1    6    6    0    0  0.29085340580E+02  0.21979900632E+02  0.72736887215E+01  0.37174986430E+02  0.00000000000E+00 0.  1.
         -5    1    5    5    0  503 -0.11611531331E+03  0.65531612447E+01 -0.10989502365E+03  0.16007721927E+03  0.47000000000E+01 0.  1.
<mgrwt>
<rscale>  2 0.22808073E+03</rscale>
<asrwt>0</asrwt>
<pdfrwt beam="1">  1       21 0.21247802E-01 0.22813882E+03</pdfrwt>
<pdfrwt beam="2">  1       21 0.58177798E-01 0.22813882E+03</pdfrwt>
<totfact> 0.56134421E+04</totfact>
</mgrwt>
</event>
<event>
12    1  0.1473662E-001  0.2024789E+03  0.7546771E-02  0.1149700E+00
         21   -1    0    0  504  503  0.00000000000E+00  0.00000000000E+00  0.82395206794E+02  0.82395206794E+02  0.00000000000E+00 0.  1.
         21   -1    0    0  502  504 -0.00000000000E+00 -0.00000000000E+00 -0.48417871876E+03  0.48417871876E+03  0.00000000000E+00 0. -1.
          6    2    1    2  502    0 -0.39128483782E+02  0.74568593276E+02 -0.24597382846E+03  0.31859193398E+03  0.18413631571E+03 0.  0.
         24    2    3    3    0    0  0.46361257580E+02  0.26072595878E+02 -0.74859165715E+02  0.12120228013E+03  0.79100894791E+02 0.  0.
         -6    2    1    2    0  503  0.39128483782E+02 -0.74568593276E+02 -0.15580968351E+03  0.24798199157E+03  0.17357101522E+03 0.  0.
        -24    2    5    5    0    0  0.45354205008E+02  0.97746470062E+01 -0.31196506033E+02  0.97306592831E+02  0.79641718865E+02 0.  0.
          2    1    4    4  501    0  0.18204425887E+02  0.48573812190E+02 -0.66255676084E+02  0.84146485166E+02  0.00000000000E+00 0. -1.
         -1    1    4    4    0  501  0.28156831693E+02 -0.22501216312E+02 -0.86034896317E+01  0.37055794963E+02  0.00000000000E+00 0.  1.
          5    1    3    3  502    0 -0.85489741362E+02  0.48495997398E+02 -0.17111466275E+03  0.19738965386E+03  0.47000000000E+01 0. -1.
         13    1    6    6    0    0  0.50058996521E+02  0.33690158824E+01 -0.53669956535E+02  0.73469161117E+02  0.00000000000E+00 0. -1.
        -14    1    6    6    0    0 -0.47047915136E+01  0.64056311238E+01  0.22473450502E+02  0.23837431714E+02  0.00000000000E+00 0.  1.
         -5    1    5    5    0  503 -0.62257212260E+01 -0.84343240282E+02 -0.12461317747E+03  0.15067539874E+03  0.47000000000E+01 0.  1.
<mgrwt>
<rscale>  2 0.20004584E+03</rscale>
<asrwt>0</asrwt>
<pdfrwt beam="1">  1       21 0.12676186E-01 0.20247888E+03</pdfrwt>
<pdfrwt beam="2">  1       21 0.74489034E-01 0.20247888E+03</pdfrwt>
<totfact> 0.85501960E+04</totfact>
</mgrwt>
</event>
<event>
12    1  0.1473662E-001  0.2206805E+03  0.7546771E-02  0.1133637E+00
         21   -1    0    0  504  503  0.00000000000E+00  0.00000000000E+00  0.48206992723E+03  0.48206992723E+03  0.00000000000E+00 0. -1.
         21   -1    0    0  502  504 -0.00000000000E+00 -0.00000000000E+00 -0.10855466418E+03  0.10855466418E+03  0.00000000000E+00 0.  1.
          6    2    1    2  502    0  0.11048399419E+03  0.75586095546E+02  0.10628202954E+03  0.24494027076E+03  0.17544200075E+03 0.  0.
         24    2    3    3    0    0  0.14820544609E+03  0.67261027889E+02  0.92156548718E+02  0.20354179381E+03  0.80296526902E+02 0.  0.
         -6    2    1    2    0  503 -0.11048399419E+03 -0.75586095546E+02  0.26723323350E+03  0.34568432065E+03  0.17367808625E+03 0.  0.
        -24    2    5    5    0    0 -0.25869553024E+02 -0.59835439368E+02  0.22099463206E+03  0.24786926512E+03  0.91383978993E+02 0.  0.
          2    1    4    4  501    0  0.15126217133E+03  0.78088568645E+02  0.86125285708E+02  0.19077639756E+03  0.00000000000E+00 0. -1.
         -1    1    4    4    0  501 -0.30567252351E+01 -0.10827540756E+02  0.60312630103E+01  0.12765396252E+02  0.00000000000E+00 0.  1.
          5    1    3    3  502    0 -0.37721451906E+02  0.83250676575E+01  0.14125480826E+02  0.41398476952E+02  0.47000000000E+01 0. -1.
         13    1    6    6    0    0 -0.54937617242E+02 -0.60737400394E+02  0.14547595093E+03  0.16694437964E+03  0.00000000000E+00 0. -1.
        -14    1    6    6    0    0  0.29068064218E+02  0.90196102569E+00  0.75518681125E+02  0.80924885480E+02  0.00000000000E+00 0.  1.
         -5    1    5    5    0  503 -0.84614441163E+02 -0.15750656178E+02  0.46238601441E+02  0.97815055521E+02  0.47000000000E+01 0.  1.
<mgrwt>
<rscale>  2 0.22032970E+03</rscale>
<asrwt>0</asrwt>
<pdfrwt beam="1">  1       21 0.74164603E-01 0.22068046E+03</pdfrwt>
<pdfrwt beam="2">  1       21 0.16700718E-01 0.22068046E+03</pdfrwt>
<totfact> 0.51844838E+04</totfact>
</mgrwt>
</event>
<event>
12    1  0.1473662E-001  0.1840275E+03  0.7546771E-02  0.1164082E+00
         21   -1    0    0  504  503  0.00000000000E+00  0.00000000000E+00  0.17295934851E+03  0.17295934851E+03  0.00000000000E+00 0. -1.
         21   -1    0    0  502  504 -0.00000000000E+00 -0.00000000000E+00 -0.28805429737E+03  0.28805429737E+03  0.00000000000E+00 0.  1.
          6    2    1    2  502    0  0.57197233401E+02  0.16415982400E+02  0.73338177554E+02  0.19762578790E+03  0.17359854772E+03 0.  0.
         24    2    3    3    0    0  0.42998408297E+02  0.92510929560E+01 -0.27302037935E+02  0.95628311221E+02  0.80404768481E+02 0.  0.
         -6    2    1    2    0  503 -0.57197233401E+02 -0.16415982400E+02 -0.18843312642E+03  0.26338785798E+03  0.17414107101E+03 0.  0.
        -24    2    5    5    0    0 -0.97076066429E+02 -0.46590308013E+02 -0.14373656107E+03  0.19615182446E+03  0.78872807576E+02 0.  0.
          2    1    4    4  501    0  0.54735859593E+02  0.30913078399E+02 -0.61601610665E+01  0.63163124732E+02  0.00000000000E+00 0. -1.
         -1    1    4    4    0  501 -0.11737451296E+02 -0.21661985443E+02 -0.21141876869E+02  0.32465186489E+02  0.00000000000E+00 0.  1.
          5    1    3    3  502    0  0.14198825104E+02  0.71648894438E+01  0.10064021549E+03  0.10199747668E+03  0.47000000000E+01 0. -1.
         11    1    6    6    0    0 -0.75084210922E+02  0.36608323605E+01 -0.10441728109E+03  0.12866238383E+03  0.00000000000E+00 0. -1.
        -12    1    6    6    0    0 -0.21991855508E+02 -0.50251140373E+02 -0.39319279983E+02  0.67489440625E+02  0.00000000000E+00 0.  1.
         -5    1    5    5    0  503  0.39878833028E+02  0.30174325613E+02 -0.44696565348E+02  0.67236033522E+02  0.47000000000E+01 0.  1.
<mgrwt>
<rscale>  2 0.18389904E+03</rscale>
<asrwt>0</asrwt>
<pdfrwt beam="1">  1       21 0.26609131E-01 0.18402750E+03</pdfrwt>
<pdfrwt beam="2">  1       21 0.44316045E-01 0.18402750E+03</pdfrwt>
<totfact> 0.65969543E+04</totfact>
</mgrwt>
</event>
<event>
12    1  0.1473662E-001  0.1851407E+03  0.7546771E-02  0.1163419E+00
         21   -1    0    0  504  503  0.00000000000E+00  0.00000000000E+00  0.11066176713E+03  0.11066176713E+03  0.00000000000E+00 0.  1.
         21   -1    0    0  502  504 -0.00000000000E+00 -0.00000000000E+00 -0.30626319146E+03  0.30626319146E+03  0.00000000000E+00 0. -1.
          6    2    1    2  502    0 -0.58142536744E+02  0.14657951042E+02 -0.10164005072E+03  0.21120552735E+03  0.17516182451E+03 0.  0.
         24    2    3    3    0    0  0.37343388043E+02 -0.21018253094E+01 -0.47283651998E+02  0.99961830820E+02  0.79735046087E+02 0.  0.
         -6    2    1    2    0  503  0.58142536744E+02 -0.14657951042E+02 -0.93961373607E+02  0.20571943123E+03  0.17290556541E+03 0.  0.
        -24    2    5    5    0    0  0.20084627553E+01  0.40632858043E+02 -0.13785605707E+02  0.93210091222E+02  0.82722518732E+02 0.  0.
          2    1    4    4  501    0 -0.85888835765E+01  0.15576979559E+02  0.13078107552E+02  0.22078227066E+02  0.00000000000E+00 0. -1.
         -1    1    4    4    0  501  0.45932271620E+02 -0.17678804868E+02 -0.60361759550E+02  0.77883603754E+02  0.00000000000E+00 0.  1.
          5    1    3    3  502    0 -0.95485924787E+02  0.16759776352E+02 -0.54356398726E+02  0.11124369653E+03  0.47000000000E+01 0. -1.
         13    1    6    6    0    0 -0.32752460451E+02  0.15343507740E+02 -0.30277132650E+02  0.47168333200E+02  0.00000000000E+00 0. -1.
        -14    1    6    6    0    0  0.34760923206E+02  0.25289350303E+02  0.16491526942E+02  0.46041758022E+02  0.00000000000E+00 0.  1.
         -5    1    5    5    0  503  0.56134073989E+02 -0.55290809086E+02 -0.80175767900E+02  0.11250934001E+03  0.47000000000E+01 0.  1.
<mgrwt>
<rscale>  2 0.18460507E+03</rscale>
<asrwt>0</asrwt>
<pdfrwt beam="1">  1       21 0.17024888E-01 0.18514069E+03</pdfrwt>
<pdfrwt beam="2">  1       21 0.47117413E-01 0.18514069E+03</pdfrwt>
<totfact> 0.13444901E+05</totfact>
</mgrwt>
</event>
<event>
12    1  0.1473662E-001  0.1926685E+03  0.7546771E-02  0.1156377E+00
         21   -1    0    0  504  503  0.00000000000E+00  0.00000000000E+00  0.24517005881E+03  0.24517005881E+03  0.00000000000E+00 0.  1.
         21   -1    0    0  502  504 -0.00000000000E+00 -0.00000000000E+00 -0.15684562606E+03  0.15684562606E+03  0.00000000000E+00 0.  1.
          6    2    1    2  502    0 -0.66074350055E+02 -0.50416630746E+02  0.31040038698E+01  0.19134135366E+03  0.17232011603E+03 0.  0.
         24    2    3    3    0    0 -0.96261411058E+02 -0.57482363265E+02 -0.33196627692E+02  0.14337251920E+03  0.82964943349E+02 0.  0.
         -6    2    1    2    0  503  0.66074350055E+02  0.50416630746E+02  0.85220428877E+02  0.21067433120E+03  0.17382029784E+03 0.  0.
        -24    2    5    5    0    0  0.40600551655E+02  0.67854158629E+02  0.11951044065E+03  0.16429678609E+03  0.80362285041E+02 0.  0.
          2    1    4    4  501    0 -0.52510134268E+01 -0.10697054380E+02 -0.39095297969E+02  0.40871046448E+02  0.00000000000E+00 0. -1.
         -1    1    4    4    0  501 -0.91010397631E+02 -0.46785308884E+02  0.58986702773E+01  0.10250147275E+03  0.00000000000E+00 0.  1.
          5    1    3    3  502    0  0.30187061003E+02  0.70657325192E+01  0.36300631562E+02  0.47968834464E+02  0.47000000000E+01 0. -1.
         11    1    6    6    0    0  0.89402253151E+01 -0.17955417382E+02  0.12992533060E+02  0.23898337962E+02  0.00000000000E+00 0. -1.
        -12    1    6    6    0    0  0.31660326340E+02  0.85809576011E+02  0.10651790759E+03  0.14039844813E+03  0.00000000000E+00 0.  1.
         -5    1    5    5    0  503  0.25473798399E+02 -0.17437527884E+02 -0.34290011772E+02  0.46377545115E+02  0.47000000000E+01 0.  1.
<mgrwt>
<rscale>  2 0.19232953E+03</rscale>
<asrwt>0</asrwt>
<pdfrwt beam="1">  1       21 0.37718471E-01 0.19266850E+03</pdfrwt>
<pdfrwt beam="2">  1       21 0.24130096E-01 0.19266850E+03</pdfrwt>
<totfact> 0.10985384E+05</totfact>
</mgrwt>
</event>
<event>
12    1  0.1473662E-001  0.2842387E+03  0.7546771E-02  0.1093551E+00
         21   -1    0    0  504  503  0.00000000000E+00  0.00000000000E+00  0.16849832153E+04  0.16849832153E+04  0.00000000000E+00 0. -1.
         21   -1    0    0  502  504 -0.00000000000E+00 -0.00000000000E+00 -0.25393434926E+03  0.25393434926E+03  0.00000000000E+00 0.  1.
          6    2    1    2  502    0  0.22333643526E+03 -0.22471147435E+02 -0.15830718257E+03  0.32434509156E+03  0.17249480740E+03 0.  0.
         24    2    3    3    0    0  0.18749987750E+03  0.10914606290E+02 -0.17859600190E+03  0.27112297572E+03  0.79597759888E+02 0.  0.
         -6    2    1    2    0  503 -0.22333643526E+03  0.22471147435E+02  0.15893560486E+04  0.16145724730E+04  0.17437748000E+03 0.  0.
        -24    2    5    5    0    0 -0.14832417729E+03  0.58635134472E+02  0.13418459606E+04  0.13533867029E+04  0.75278451152E+02 0.  0.
          2    1    4    4  501    0  0.81045615448E+02  0.23507994103E+02 -0.33658585779E+02  0.90851075760E+02  0.00000000000E+00 0. -1.
         -1    1    4    4    0  501  0.10645426205E+03 -0.12593387813E+02 -0.14493741612E+03  0.18027189996E+03  0.00000000000E+00 0.  1.
          5    1    3    3  502    0  0.35836557768E+02 -0.33385753725E+02  0.20288819327E+02  0.53222115837E+02  0.47000000000E+01 0. -1.
         13    1    6    6    0    0 -0.14279370371E+03  0.60542222496E+02  0.10416250562E+04  0.10531088074E+04  0.00000000000E+00 0. -1.
        -14    1    6    6    0    0 -0.55304735880E+01 -0.19070880239E+01  0.30022090438E+03  0.30027789554E+03  0.00000000000E+00 0.  1.
         -5    1    5    5    0  503 -0.75012257971E+02 -0.36163987037E+02  0.24751008801E+03  0.26118577004E+03  0.47000000000E+01 0.  1.
<mgrwt>
<rscale>  2 0.28395046E+03</rscale>
<asrwt>0</asrwt>
<pdfrwt beam="1">  1       21 0.25922818E+00 0.28423867E+03</pdfrwt>
<pdfrwt beam="2">  1       21 0.39066824E-01 0.28423867E+03</pdfrwt>
<totfact> 0.33410971E+02</totfact>
</mgrwt>
</event>
<event>
12    1  0.1473662E-001  0.1794416E+03  0.7546771E-02  0.1168439E+00
         21   -1    0    0  504  503  0.00000000000E+00  0.00000000000E+00  0.88234668601E+03  0.88234668601E+03  0.00000000000E+00 0.  1.
         21   -1    0    0  502  504 -0.00000000000E+00 -0.00000000000E+00 -0.39172157650E+02  0.39172157650E+02  0.00000000000E+00 0.  1.
          6    2    1    2  502    0 -0.11484621913E+02  0.45443095397E+02  0.54427252826E+03  0.57308975267E+03  0.17321174366E+03 0.  0.
         24    2    3    3    0    0  0.59347363487E+02  0.36596819868E+02  0.35133143083E+03  0.36731370008E+03  0.81388839505E+02 0.  0.
         -6    2    1    2    0  503  0.11484621913E+02 -0.45443095397E+02  0.29890200010E+03  0.34842909099E+03  0.17281045779E+03 0.  0.
        -24    2    5    5    0    0  0.24487490249E+02  0.13777637883E+02  0.26575815905E+03  0.27917034400E+03  0.80741695421E+02 0.  0.
          4    1    4    4  501    0  0.43462946677E+02  0.59339824578E+02  0.19242341445E+03  0.20600245858E+03  0.00000000000E+00 0. -1.
         -3    1    4    4    0  501  0.15884416809E+02 -0.22743004711E+02  0.15890801638E+03  0.16131124149E+03  0.00000000000E+00 0.  1.
          5    1    3    3  502    0 -0.70831985400E+02  0.88462755292E+01  0.19294109743E+03  0.20577605260E+03  0.47000000000E+01 0. -1.
         11    1    6    6    0    0 -0.74530917871E+01 -0.12301477246E+02  0.20636906516E+03  0.20686968356E+03  0.00000000000E+00 0. -1.
        -12    1    6    6    0    0  0.31940582037E+02  0.26079115128E+02  0.59389093895E+02  0.72300660442E+02  0.00000000000E+00 0.  1.
         -5    1    5    5    0  503 -0.13002868337E+02 -0.59220733280E+02  0.33143841050E+02  0.69258746991E+02  0.47000000000E+01 0.  1.
<mgrwt>
<rscale>  2 0.17934467E+03</rscale>
<asrwt>0</asrwt>
<pdfrwt beam="1">  1       21 0.13574563E+00 0.17944158E+03</pdfrwt>
<pdfrwt beam="2">  1       21 0.60264864E-02 0.17944158E+03</pdfrwt>
<totfact> 0.76297042E+04</totfact>
</mgrwt>
</event>
<event>
12    1  0.1473662E-001  0.2024320E+03  0.7546771E-02  0.1147975E+00
         21   -1    0    0  504  503  0.00000000000E+00  0.00000000000E+00  0.28987250597E+03  0.28987250597E+03  0.00000000000E+00 0. -1.
         21   -1    0    0  502  504 -0.00000000000E+00 -0.00000000000E+00 -0.17887942981E+03  0.17887942981E+03  0.00000000000E+00 0.  1.
          6    2    1    2  502    0 -0.98377429530E+02 -0.31777681760E+02  0.16425736939E+03  0.26068988280E+03  0.17404250026E+03 0.  0.
         24    2    3    3    0    0 -0.88772777716E+02 -0.38498307797E+02  0.19211702582E+03  0.23010121485E+03  0.81700010404E+02 0.  0.
         -6    2    1    2    0  503  0.98377429530E+02  0.31777681760E+02 -0.53264293232E+02  0.20806205297E+03  0.17252476128E+03 0.  0.
        -24    2    5    5    0    0  0.10387420556E+03  0.24253279439E+02  0.19920404545E+02  0.13413694786E+03  0.78853193471E+02 0.  0.
          4    1    4    4  501    0 -0.58820581217E+02  0.99918761939E+01  0.14268280424E+03  0.15465471539E+03  0.00000000000E+00 0. -1.
         -3    1    4    4    0  501 -0.29952196499E+02 -0.48490183991E+02  0.49434221573E+02  0.75446499463E+02  0.00000000000E+00 0.  1.
          5    1    3    3  502    0 -0.96046518140E+01  0.67206260373E+01 -0.27859656427E+02  0.30588667951E+02  0.47000000000E+01 0. -1.
         11    1    6    6    0    0  0.73785185401E+02  0.37747180119E+02 -0.17029919766E+02  0.84611591161E+02  0.00000000000E+00 0. -1.
        -12    1    6    6    0    0  0.30089020159E+02 -0.13493900680E+02  0.36950324311E+02  0.49525356702E+02  0.00000000000E+00 0.  1.
         -5    1    5    5    0  503 -0.54967760295E+01  0.75244023211E+01 -0.73184697778E+02  0.73925105112E+02  0.47000000000E+01 0.  1.
<mgrwt>
<rscale>  2 0.20210540E+03</rscale>
<asrwt>0</asrwt>
<pdfrwt beam="1">  1       21 0.44595770E-01 0.20243204E+03</pdfrwt>
<pdfrwt beam="2">  1       21 0.27519912E-01 0.20243204E+03</pdfrwt>
<totfact> 0.60535147E+04</totfact>
</mgrwt>
</event>
<event>
12    1  0.1473662E-001  0.2029555E+03  0.7546771E-02  0.1147524E+00
         21   -1    0    0  504  503  0.00000000000E+00  0.00000000000E+00  0.30442243857E+03  0.30442243857E+03  0.00000000000E+00 0.  1.
         21   -1    0    0  502  504 -0.00000000000E+00 -0.00000000000E+00 -0.15176343322E+03  0.15176343322E+03  0.00000000000E+00 0.  1.
          6    2    1    2  502    0 -0.49732020104E+02 -0.92339481619E+02 -0.41516365289E+00  0.20295589182E+03  0.17375577105E+03 0.  0.
         24    2    3    3    0    0 -0.62189874857E+02 -0.12126084687E+03  0.29614903684E+02  0.15918902699E+03  0.76761515588E+02 0.  0.
         -6    2    1    2    0  503  0.49732020104E+02  0.92339481619E+02  0.15307416900E+03  0.25322997997E+03  0.17231908730E+03 0.  0.
        -24    2    5    5    0    0  0.94059919104E+02  0.61616250449E+02  0.72528029222E+02  0.15618024943E+03  0.80548895637E+02 0.  0.
          4    1    4    4  501    0  0.11243841680E+02 -0.51135465138E+02  0.23719844959E+02  0.57479481691E+02  0.00000000000E+00 0. -1.
         -3    1    4    4    0  501 -0.73433716537E+02 -0.70125381730E+02  0.58950587252E+01  0.10170954530E+03  0.00000000000E+00 0.  1.
          5    1    3    3  502    0  0.12457854753E+02  0.28921365250E+02 -0.30030067337E+02  0.43766864832E+02  0.47000000000E+01 0. -1.
         11    1    6    6    0    0 -0.13609583104E+02 -0.58757808799E+00  0.10633408754E+02  0.17281070048E+02  0.00000000000E+00 0. -1.
        -12    1    6    6    0    0  0.10766950221E+03  0.62203828537E+02  0.61894620469E+02  0.13889917938E+03  0.00000000000E+00 0.  1.
         -5    1    5    5    0  503 -0.44327899000E+02  0.30723231170E+02  0.80546139782E+02  0.97049730536E+02  0.47000000000E+01 0.  1.
<mgrwt>
<rscale>  2 0.20264761E+03</rscale>
<asrwt>0</asrwt>
<pdfrwt beam="1">  1       21 0.46834221E-01 0.20295547E+03</pdfrwt>
<pdfrwt beam="2">  1       21 0.23348221E-01 0.20295547E+03</pdfrwt>
<totfact> 0.74946748E+04</totfact>
</mgrwt>
</event>
<event>
12    1  0.1473662E-001  0.2021749E+03  0.7546771E-02  0.1148018E+00
         21   -1    0    0  504  503  0.00000000000E+00  0.00000000000E+00  0.17313110703E+04  0.17313110703E+04  0.00000000000E+00 0. -1.
         21   -1    0    0  502  504 -0.00000000000E+00 -0.00000000000E+00 -0.24088521954E+02  0.24088521954E+02  0.00000000000E+00 0.  1.
          6    2    1    2  502    0 -0.37836295534E+02  0.96426825417E+02  0.72370291869E+03  0.75141239359E+03  0.17362301919E+03 0.  0.
         24    2    3    3    0    0 -0.66681964133E+02  0.31099896406E+02  0.29631220427E+03  0.31807119657E+03  0.89188989206E+02 0.  0.
         -6    2    1    2    0  503  0.37836295534E+02 -0.96426825417E+02  0.98351962962E+03  0.10039871986E+04  0.17305986032E+03 0.  0.
        -24    2    5    5    0    0  0.79762168962E+02 -0.88471609843E+02  0.55219983048E+03  0.57053602093E+03  0.79984180044E+02 0.  0.
          2    1    4    4  501    0 -0.10753577171E+02  0.87694008576E+01  0.22194516019E+03  0.22237849704E+03  0.00000000000E+00 0. -1.
         -1    1    4    4    0  501 -0.55928386962E+02  0.22330495549E+02  0.74367044075E+02  0.95692699534E+02  0.00000000000E+00 0.  1.
          5    1    3    3  502    0  0.28845668599E+02  0.65326929011E+02  0.42739071443E+03  0.43334119701E+03  0.47000000000E+01 0. -1.
         11    1    6    6    0    0  0.12929601982E+02 -0.68491302291E+02  0.34308719437E+03  0.35009578123E+03  0.00000000000E+00 0. -1.
        -12    1    6    6    0    0  0.66832566980E+02 -0.19980307552E+02  0.20911263611E+03  0.22044023970E+03  0.00000000000E+00 0.  1.
         -5    1    5    5    0  503 -0.41925873427E+02 -0.79552155736E+01  0.43131979915E+03  0.43345117770E+03  0.47000000000E+01 0.  1.
<mgrwt>
<rscale>  2 0.20205389E+03</rscale>
<asrwt>0</asrwt>
<pdfrwt beam="1">  1       21 0.26635545E+00 0.20217485E+03</pdfrwt>
<pdfrwt beam="2">  1       21 0.37059278E-02 0.20217485E+03</pdfrwt>
<totfact> 0.23564451E+04</totfact>
</mgrwt>
</event>
<event>
12    1  0.1473662E-001  0.2181606E+03  0.7546771E-02  0.1135454E+00
         21   -1    0    0  504  503  0.00000000000E+00  0.00000000000E+00  0.87593485825E+02  0.87593485825E+02  0.00000000000E+00 0.  1.
         21   -1    0    0  502  504 -0.00000000000E+00 -0.00000000000E+00 -0.57223461970E+03  0.57223461970E+03  0.00000000000E+00 0.  1.
          6    2    1    2  502    0 -0.12787470358E+02 -0.13225116986E+03 -0.32015528086E+03  0.38741895027E+03  0.17303221619E+03 0.  0.
         24    2    3    3    0    0  0.22784680807E+02 -0.10625983357E+03 -0.31487427268E+03  0.34279937443E+03  0.80964866483E+02 0.  0.
         -6    2    1    2    0  503  0.12787470358E+02  0.13225116986E+03 -0.16448585302E+03  0.27240915526E+03  0.17174766577E+03 0.  0.
        -24    2    5    5    0    0  0.66796845602E+02  0.55453948186E+02 -0.10780739102E+03  0.16263956053E+03  0.85394579102E+02 0.  0.
          4    1    4    4  501    0 -0.17353780726E+02 -0.52281821109E+02 -0.71263312595E+02  0.90072205735E+02  0.00000000000E+00 0. -1.
         -3    1    4    4    0  501  0.40138461533E+02 -0.53978012464E+02 -0.24361096009E+03  0.25272716870E+03  0.00000000000E+00 0.  1.
          5    1    3    3  502    0 -0.35572151165E+02 -0.25991336289E+02 -0.52810081753E+01  0.44619575837E+02  0.47000000000E+01 0. -1.
         11    1    6    6    0    0 -0.18742617073E+02 -0.52850117330E-02 -0.94842143316E+01  0.21005619348E+02  0.00000000000E+00 0. -1.
        -12    1    6    6    0    0  0.85539462675E+02  0.55459233197E+02 -0.98323176686E+02  0.14163394118E+03  0.00000000000E+00 0.  1.
         -5    1    5    5    0  503 -0.54009375244E+02  0.76797221676E+02 -0.56678462005E+02  0.10976959473E+03  0.47000000000E+01 0.  1.
<mgrwt>
<rscale>  2 0.21790578E+03</rscale>
<asrwt>0</asrwt>
<pdfrwt beam="1">  1       21 0.13475921E-01 0.21816058E+03</pdfrwt>
<pdfrwt beam="2">  1       21 0.88036095E-01 0.21816058E+03</pdfrwt>
<totfact> 0.52015227E+04</totfact>
</mgrwt>
</event>
<event>
12    1  0.1473662E-001  0.2195918E+03  0.7546771E-02  0.1134302E+00
         21   -1    0    0  504  503  0.00000000000E+00  0.00000000000E+00  0.49783129821E+03  0.49783129821E+03  0.00000000000E+00 0. -1.
         21   -1    0    0  502  504 -0.00000000000E+00 -0.00000000000E+00 -0.15740728194E+03  0.15740728194E+03  0.00000000000E+00 0. -1.
          6    2    1    2  502    0 -0.12897676692E+03 -0.39854469458E+02 -0.33282789714E+02  0.22209976990E+03  0.17319693576E+03 0.  0.
         24    2    3    3    0    0 -0.45306558583E+02 -0.84333045946E+02 -0.96379800089E+01  0.12432342022E+03  0.78731666237E+02 0.  0.
         -6    2    1    2    0  503  0.12897676692E+03  0.39854469458E+02  0.37370680599E+03  0.43313881026E+03  0.17242119059E+03 0.  0.
        -24    2    5    5    0    0  0.13177309653E+03 -0.17474278064E+02  0.22133790205E+03  0.27024995969E+03  0.79844063432E+02 0.  0.
          4    1    4    4  501    0  0.14053406971E+02 -0.13460430020E+02 -0.23859034113E+02  0.30788551974E+02  0.00000000000E+00 0. -1.
         -3    1    4    4    0  501 -0.59359965554E+02 -0.70872615926E+02  0.14221054104E+02  0.93534868251E+02  0.00000000000E+00 0.  1.
          5    1    3    3  502    0 -0.83670208338E+02  0.44478576488E+02 -0.23644809705E+02  0.97776349675E+02  0.47000000000E+01 0. -1.
         13    1    6    6    0    0  0.10759072935E+03 -0.21531928325E+02  0.21981930569E+03  0.24568255155E+03  0.00000000000E+00 0. -1.
        -14    1    6    6    0    0  0.24182367178E+02  0.40576502608E+01  0.15185963593E+01  0.24567408143E+02  0.00000000000E+00 0.  1.
         -5    1    5    5    0  503 -0.27963296055E+01  0.57328747522E+02  0.15236890394E+03  0.16288885057E+03  0.47000000000E+01 0.  1.
<mgrwt>
<rscale>  2 0.21943882E+03</rscale>
<asrwt>0</asrwt>
<pdfrwt beam="1">  1       21 0.76589430E-01 0.21959181E+03</pdfrwt>
<pdfrwt beam="2">  1       21 0.24216505E-01 0.21959181E+03</pdfrwt>
<totfact> 0.24045406E+04</totfact>
</mgrwt>
</event>
<event>
12    1  0.1473662E-001  0.2233017E+03  0.7546771E-02  0.1131492E+00
         21   -1    0    0  504  503  0.00000000000E+00  0.00000000000E+00  0.61492542012E+02  0.61492542012E+02  0.00000000000E+00 0. -1.
         21   -1    0    0  502  504 -0.00000000000E+00 -0.00000000000E+00 -0.10063648838E+04  0.10063648838E+04  0.00000000000E+00 0.  1.
          6    2    1    2  502    0 -0.83546228526E+02  0.11425697814E+03 -0.70852393410E+03  0.74287940950E+03  0.17271080602E+03 0.  0.
         24    2    3    3    0    0 -0.25975717671E+02  0.12396566650E+02 -0.46424829606E+03  0.47198720864E+03  0.80106378963E+02 0.  0.
         -6    2    1    2    0  503  0.83546228526E+02 -0.11425697814E+03 -0.23634840771E+03  0.32497801633E+03  0.17238187816E+03 0.  0.
        -24    2    5    5    0    0  0.12238002812E+03 -0.11008591844E+03 -0.18454645770E+03  0.25993192687E+03  0.80071410846E+02 0.  0.
          4    1    4    4  501    0  0.10388484406E+01  0.24007851551E+02 -0.39590858575E+02  0.46312981171E+02  0.00000000000E+00 0. -1.
         -3    1    4    4    0  501 -0.27014566112E+02 -0.11611284901E+02 -0.42465743749E+03  0.42567422747E+03  0.00000000000E+00 0.  1.
          5    1    3    3  502    0 -0.57570510855E+02  0.10186041149E+03 -0.24427563804E+03  0.27089220086E+03  0.47000000000E+01 0. -1.
         13    1    6    6    0    0  0.40435541396E+02 -0.83989974459E+02 -0.69396248724E+02  0.11621182450E+03  0.00000000000E+00 0. -1.
        -14    1    6    6    0    0  0.81944486722E+02 -0.26095943982E+02 -0.11515020898E+03  0.14372010236E+03  0.00000000000E+00 0.  1.
         -5    1    5    5    0  503 -0.38833799591E+02 -0.41710596994E+01 -0.51801950008E+02  0.65046089462E+02  0.47000000000E+01 0.  1.
<mgrwt>
<rscale>  2 0.22323810E+03</rscale>
<asrwt>0</asrwt>
<pdfrwt beam="1">  1       21 0.94603914E-02 0.22330171E+03</pdfrwt>
<pdfrwt beam="2">  1       21 0.15482536E+00 0.22330171E+03</pdfrwt>
<totfact> 0.24125043E+04</totfact>
</mgrwt>
</event>
<event>
12    1  0.1473662E-001  0.1987846E+03  0.7546771E-02  0.1150972E+00
         21   -1    0    0  504  503  0.00000000000E+00  0.00000000000E+00  0.10769296757E+03  0.10769296757E+03  0.00000000000E+00 0. -1.
         21   -1    0    0  502  504 -0.00000000000E+00 -0.00000000000E+00 -0.39912070999E+03  0.39912070999E+03  0.00000000000E+00 0.  1.
          6    2    1    2  502    0  0.30138536059E+02 -0.90307617817E+02 -0.71478903435E+02  0.21034646275E+03  0.17341454254E+03 0.  0.
         24    2    3    3    0    0  0.63054759560E+02 -0.45619879543E+02 -0.98188805431E+02  0.14857283904E+03  0.79848424380E+02 0.  0.
         -6    2    1    2    0  503 -0.30138536059E+02  0.90307617817E+02 -0.21994883898E+03  0.29646721481E+03  0.17450364036E+03 0.  0.
        -24    2    5    5    0    0 -0.61809768908E+02  0.10475128784E+03 -0.11450629890E+03  0.18532808645E+03  0.80259125987E+02 0.  0.
          4    1    4    4  501    0  0.67022321397E+02 -0.81158129491E+01 -0.37795994106E+02  0.77371798193E+02  0.00000000000E+00 0. -1.
         -3    1    4    4    0  501 -0.39675618366E+01 -0.37504066594E+02 -0.60392811325E+02  0.71201040848E+02  0.00000000000E+00 0.  1.
          5    1    3    3  502    0 -0.32916223501E+02 -0.44687738274E+02  0.26709901997E+02  0.61773623710E+02  0.47000000000E+01 0. -1.
         13    1    6    6    0    0 -0.10561027810E+02  0.89866477968E+02 -0.57339454229E+02  0.10712297691E+03  0.00000000000E+00 0. -1.
        -14    1    6    6    0    0 -0.51248741098E+02  0.14884809873E+02 -0.57166844672E+02  0.78205109544E+02  0.00000000000E+00 0.  1.
         -5    1    5    5    0  503  0.31671232848E+02 -0.14443670024E+02 -0.10544254008E+03  0.11113912836E+03  0.47000000000E+01 0.  1.
<mgrwt>
<rscale>  2 0.19854532E+03</rscale>
<asrwt>0</asrwt>
<pdfrwt beam="1">  1       21 0.16568149E-01 0.19878460E+03</pdfrwt>
<pdfrwt beam="2">  1       21 0.61403187E-01 0.19878460E+03</pdfrwt>
<totfact> 0.80425971E+04</totfact>
</mgrwt>
</event>
<event>
12    1  0.1473662E-001  0.2340661E+03  0.7546771E-02  0.1123954E+00
         21   -1    0    0  504  503  0.00000000000E+00  0.00000000000E+00  0.12587917873E+03  0.12587917873E+03  0.00000000000E+00 0. -1.
         21   -1    0    0  502  504 -0.00000000000E+00 -0.00000000000E+00 -0.74883339168E+03  0.74883339168E+03  0.00000000000E+00 0.  1.
          6    2    1    2  502    0  0.33161107818E+02  0.15271789451E+03 -0.59488234356E+03  0.63896915243E+03  0.17313047304E+03 0.  0.
         24    2    3    3    0    0  0.59219330995E+02  0.94109842952E+02 -0.53230542579E+03  0.54923679850E+03  0.77125889317E+02 0.  0.
         -6    2    1    2    0  503 -0.33161107818E+02 -0.15271789451E+03 -0.28071869383E+02  0.23574341798E+03  0.17425416751E+03 0.  0.
        -24    2    5    5    0    0 -0.16306582461E+02 -0.15262836023E+03  0.28759914788E+02  0.17627893502E+03  0.81766798009E+02 0.  0.
          2    1    4    4  501    0  0.10050641466E+02  0.63332773621E+02 -0.15887704417E+03  0.17133000546E+03  0.00000000000E+00 0. -1.
         -1    1    4    4    0  501  0.49168689529E+02  0.30777069331E+02 -0.37342838162E+03  0.37790679304E+03  0.00000000000E+00 0.  1.
          5    1    3    3  502    0 -0.26058223177E+02  0.58608051560E+02 -0.62576917776E+02  0.89732353926E+02  0.47000000000E+01 0. -1.
         11    1    6    6    0    0  0.28160625529E+02 -0.21428782504E+02  0.58916254338E+01  0.35873734124E+02  0.00000000000E+00 0. -1.
        -12    1    6    6    0    0 -0.44467207989E+02 -0.13119957772E+03  0.22868289355E+02  0.14040520090E+03  0.00000000000E+00 0.  1.
         -5    1    5    5    0  503 -0.16854525358E+02 -0.89534286563E-01 -0.56831784171E+02  0.59464482958E+02  0.47000000000E+01 0.  1.
<mgrwt>
<rscale>  2 0.23385696E+03</rscale>
<asrwt>0</asrwt>
<pdfrwt beam="1">  1       21 0.19366027E-01 0.23406608E+03</pdfrwt>
<pdfrwt beam="2">  1       21 0.11520514E+00 0.23406608E+03</pdfrwt>
<totfact> 0.13935996E+04</totfact>
</mgrwt>
</event>
<event>
12    1  0.1473662E-001  0.1836170E+03  0.7546771E-02  0.1165219E+00
         21   -1    0    0  504  503  0.00000000000E+00  0.00000000000E+00  0.46196053149E+03  0.46196053149E+03  0.00000000000E+00 0. -1.
         21   -1    0    0  502  504 -0.00000000000E+00 -0.00000000000E+00 -0.72175481645E+02  0.72175481645E+02  0.00000000000E+00 0. -1.
          6    2    1    2  502    0  0.42503892150E+02 -0.43629562869E+02  0.17171951749E+03  0.25140166929E+03  0.17321976513E+03 0.  0.
         24    2    3    3    0    0 -0.41752895607E+02 -0.23216423086E+02  0.49034370870E+02  0.10110317375E+03  0.74398760904E+02 0.  0.
         -6    2    1    2    0  503 -0.42503892150E+02  0.43629562869E+02  0.21806553235E+03  0.28273434384E+03  0.16933993382E+03 0.  0.
        -24    2    5    5    0    0  0.20004302856E+02 -0.17580805558E+02  0.66031348379E+02  0.10726221859E+03  0.80223361377E+02 0.  0.
          4    1    4    4  501    0 -0.15150447344E+02  0.15098872895E+02  0.50069301735E+02  0.54446735381E+02  0.00000000000E+00 0. -1.
         -3    1    4    4    0  501 -0.26602448263E+02 -0.38315295981E+02 -0.10349308652E+01  0.46656438373E+02  0.00000000000E+00 0.  1.
          5    1    3    3  502    0  0.84256787757E+02 -0.20413139783E+02  0.12268514662E+03  0.15029849554E+03  0.47000000000E+01 0. -1.
         11    1    6    6    0    0 -0.26657797191E+02  0.10467693476E+02  0.32514694486E+02  0.43329160104E+02  0.00000000000E+00 0. -1.
        -12    1    6    6    0    0  0.46662100047E+02 -0.28048499035E+02  0.33516653893E+02  0.63933058483E+02  0.00000000000E+00 0.  1.
         -5    1    5    5    0  503 -0.62508195006E+02  0.61210368427E+02  0.15203418397E+03  0.17547212525E+03  0.47000000000E+01 0.  1.
<mgrwt>
<rscale>  2 0.18269622E+03</rscale>
<asrwt>0</asrwt>
<pdfrwt beam="1">  1       21 0.71070849E-01 0.18361701E+03</pdfrwt>
<pdfrwt beam="2">  1       21 0.11103921E-01 0.18361701E+03</pdfrwt>
<totfact> 0.12115939E+05</totfact>
</mgrwt>
</event>
<event>
12    1  0.1473662E-001  0.1746582E+03  0.7546771E-02  0.1173932E+00
         21   -1    0    0  504  503  0.00000000000E+00  0.00000000000E+00  0.64990624929E+03  0.64990624929E+03  0.00000000000E+00 0. -1.
         21   -1    0    0  502  504 -0.00000000000E+00 -0.00000000000E+00 -0.73478239682E+02  0.73478239682E+02  0.00000000000E+00 0. -1.
          6    2    1    2  502    0 -0.16154872379E+02 -0.14545491513E+02  0.65426226023E+02  0.18335828395E+03  0.16990326076E+03 0.  0.
         24    2    3    3    0    0 -0.76203888614E+02  0.29510745701E+01  0.45765065975E+02  0.11762651545E+03  0.76979311455E+02 0.  0.
         -6    2    1    2    0  503  0.16154872379E+02  0.14545491513E+02  0.51100178358E+03  0.54002620502E+03  0.17330010981E+03 0.  0.
        -24    2    5    5    0    0  0.60261304195E+02  0.52766389721E+02  0.29038321542E+03  0.31177008351E+03  0.80389405456E+02 0.  0.
          2    1    4    4  501    0 -0.44939651071E+02 -0.29211013722E+02  0.74143481460E-01  0.53599077028E+02  0.00000000000E+00 0. -1.
         -1    1    4    4    0  501 -0.31264237543E+02  0.32162088292E+02  0.45690922493E+02  0.64027438421E+02  0.00000000000E+00 0.  1.
          5    1    3    3  502    0  0.60049016235E+02 -0.17496566083E+02  0.19661160048E+02  0.65731768499E+02  0.47000000000E+01 0. -1.
         13    1    6    6    0    0  0.14825429096E+02  0.58722357376E+02  0.10908621454E+03  0.12477143426E+03  0.00000000000E+00 0. -1.
        -14    1    6    6    0    0  0.45435875098E+02 -0.59559676546E+01  0.18129700087E+03  0.18699864925E+03  0.00000000000E+00 0.  1.
         -5    1    5    5    0  503 -0.44106431816E+02 -0.38220898209E+02  0.22061856816E+03  0.22825612151E+03  0.47000000000E+01 0.  1.
<mgrwt>
<rscale>  2 0.17380953E+03</rscale>
<asrwt>0</asrwt>
<pdfrwt beam="1">  1       21 0.99985574E-01 0.17465818E+03</pdfrwt>
<pdfrwt beam="2">  1       21 0.11304345E-01 0.17465818E+03</pdfrwt>
<totfact> 0.54094132E+04</totfact>
</mgrwt>
</event>
<event>
12    1  0.1473662E-001  0.2080572E+03  0.7546771E-02  0.1143227E+00
         21   -1    0    0  504  503  0.00000000000E+00  0.00000000000E+00  0.12110736811E+03  0.12110736811E+03  0.00000000000E+00 0. -1.
         21   -1    0    0  502  504 -0.00000000000E+00 -0.00000000000E+00 -0.39937385048E+03  0.39937385048E+03  0.00000000000E+00 0.  1.
          6    2    1    2  502    0 -0.11062721767E+03  0.30765176001E+02 -0.54002329687E+02  0.21495123938E+03  0.17350189150E+03 0.  0.
         24    2    3    3    0    0 -0.33548598902E+02 -0.63972584157E+00 -0.89223977602E+02  0.12445242274E+03  0.80009809461E+02 0.  0.
         -6    2    1    2    0  503  0.11062721767E+03 -0.30765176001E+02 -0.22426415268E+03  0.30552997921E+03  0.17282731462E+03 0.  0.
        -24    2    5    5    0    0  0.13111979827E+02 -0.65842139230E+02 -0.12566066573E+03  0.16240642210E+03  0.77962373717E+02 0.  0.
          2    1    4    4  501    0 -0.55445563051E+02 -0.17528372379E+02 -0.68751390835E+02  0.90045588688E+02  0.00000000000E+00 0. -1.
         -1    1    4    4    0  501  0.21896964149E+02  0.16888646537E+02 -0.20472586767E+02  0.34406834056E+02  0.00000000000E+00 0.  1.
          5    1    3    3  502    0 -0.77078618767E+02  0.31404901843E+02  0.35221647916E+02  0.90498816637E+02  0.47000000000E+01 0. -1.
         13    1    6    6    0    0 -0.24697932568E+02  0.49315225581E+00 -0.18669690257E+02  0.30964308592E+02  0.00000000000E+00 0. -1.
        -14    1    6    6    0    0  0.37809912396E+02 -0.66335291486E+02 -0.10699097547E+03  0.13144211351E+03  0.00000000000E+00 0.  1.
         -5    1    5    5    0  503  0.97515237842E+02  0.35076963229E+02 -0.98603486946E+02  0.14312355711E+03  0.47000000000E+01 0.  1.
<mgrwt>
<rscale>  2 0.20791647E+03</rscale>
<asrwt>0</asrwt>
<pdfrwt beam="1">  1       21 0.18631903E-01 0.20805716E+03</pdfrwt>
<pdfrwt beam="2">  1       21 0.61442131E-01 0.20805716E+03</pdfrwt>
<totfact> 0.64390736E+04</totfact>
</mgrwt>
</event>
<event>
12    1  0.1473662E-001  0.2694184E+03  0.7546771E-02  0.1101786E+00
         21   -1    0    0  504  503  0.00000000000E+00  0.00000000000E+00  0.73822327727E+02  0.73822327727E+02  0.00000000000E+00 0. -1.
         21   -1    0    0  502  504 -0.00000000000E+00 -0.00000000000E+00 -0.35268474223E+04  0.35268474223E+04  0.00000000000E+00 0.  1.
          6    2    1    2  502    0  0.12107468932E+03  0.16727902420E+03 -0.19735189391E+03  0.33396710599E+03  0.17304596361E+03 0.  0.
         24    2    3    3    0    0  0.10531461502E+03  0.78622369895E+02 -0.51921265719E+02  0.16285153127E+03  0.80945402708E+02 0.  0.
         -6    2    1    2    0  503 -0.12107468932E+03 -0.16727902420E+03 -0.32556732007E+04  0.32667026441E+04  0.17116314645E+03 0.  0.
        -24    2    5    5    0    0 -0.10552969294E+03 -0.18210505652E+03 -0.23534234132E+04  0.23641849283E+04  0.80435352575E+02 0.  0.
          4    1    4    4  501    0  0.41598962649E+02  0.58418061141E+02  0.91673177754E+01  0.72299261933E+02  0.00000000000E+00 0. -1.
         -3    1    4    4    0  501  0.63715652372E+02  0.20204308754E+02 -0.61088583494E+02  0.90552269341E+02  0.00000000000E+00 0.  1.
          5    1    3    3  502    0  0.15760074301E+02  0.88656654305E+02 -0.14543062819E+03  0.17111557471E+03  0.47000000000E+01 0. -1.
         11    1    6    6    0    0 -0.13502178140E+02 -0.39659412409E+01 -0.46974036425E+02  0.49036696489E+02  0.00000000000E+00 0. -1.
        -12    1    6    6    0    0 -0.92027514804E+02 -0.17813911527E+03 -0.23064493767E+04  0.23151482318E+04  0.00000000000E+00 0.  1.
         -5    1    5    5    0  503 -0.15544996378E+02  0.14826032315E+02 -0.90224978755E+03  0.90251771577E+03  0.47000000000E+01 0.  1.
<mgrwt>
<rscale>  2 0.26911650E+03</rscale>
<asrwt>0</asrwt>
<pdfrwt beam="1">  1       21 0.11357284E-01 0.26941837E+03</pdfrwt>
<pdfrwt beam="2">  1       21 0.54259179E+00 0.26941837E+03</pdfrwt>
<totfact> 0.53460555E+01</totfact>
</mgrwt>
</event>
<event>
12    1  0.1473662E-001  0.1793705E+03  0.7546771E-02  0.1168736E+00
         21   -1    0    0  504  503  0.00000000000E+00  0.00000000000E+00  0.20170202003E+02  0.20170202003E+02  0.00000000000E+00 0.  1.
         21   -1    0    0  502  504 -0.00000000000E+00 -0.00000000000E+00 -0.16768577689E+04  0.16768577689E+04  0.00000000000E+00 0.  1.
          6    2    1    2  502    0  0.98568709546E+01 -0.44196076446E+02 -0.10315794989E+04  0.10470578067E+04  0.17356075854E+03 0.  0.
         24    2    3    3    0    0 -0.59354209351E+01 -0.89968607242E+02 -0.49756170361E+03  0.51082873553E+03  0.72448386020E+02 0.  0.
         -6    2    1    2    0  503 -0.98568709546E+01  0.44196076446E+02 -0.62510806806E+03  0.64997016429E+03  0.17219368928E+03 0.  0.
        -24    2    5    5    0    0  0.22396008494E+02  0.51369386596E+02 -0.18975851649E+03  0.21334329078E+03  0.79791415989E+02 0.  0.
          4    1    4    4  501    0 -0.11416221385E+02 -0.21932637992E+01 -0.98082245462E+01  0.15209923916E+02  0.00000000000E+00 0. -1.
         -3    1    4    4    0  501  0.54808004495E+01 -0.87775343443E+02 -0.48775347906E+03  0.49561881162E+03  0.00000000000E+00 0.  1.
          5    1    3    3  502    0  0.15792291890E+02  0.45772530796E+02 -0.53401779526E+03  0.53622907112E+03  0.47000000000E+01 0. -1.
         11    1    6    6    0    0  0.51916859490E+02  0.36651765576E+02 -0.13855767636E+03  0.15243668160E+03  0.00000000000E+00 0. -1.
        -12    1    6    6    0    0 -0.29520850995E+02  0.14717621020E+02 -0.51200840133E+02  0.60906609184E+02  0.00000000000E+00 0.  1.
         -5    1    5    5    0  503 -0.32252879449E+02 -0.71733101506E+01 -0.43534955157E+03  0.43662687351E+03  0.47000000000E+01 0.  1.
<mgrwt>
<rscale>  2 0.17903900E+03</rscale>
<asrwt>0</asrwt>
<pdfrwt beam="1">  1       21 0.31031077E-02 0.17937053E+03</pdfrwt>
<pdfrwt beam="2">  1       21 0.25797814E+00 0.17937053E+03</pdfrwt>
<totfact> 0.36127248E+04</totfact>
</mgrwt>
</event>
<event>
12    1  0.1473662E-001  0.2043312E+03  0.7546771E-02  0.1146598E+00
         21   -1    0    0  504  503  0.00000000000E+00  0.00000000000E+00  0.14192196673E+03  0.14192196673E+03  0.00000000000E+00 0. -1.
         21   -1    0    0  502  504 -0.00000000000E+00 -0.00000000000E+00 -0.58022915683E+03  0.58022915683E+03  0.00000000000E+00 0. -1.
          6    2    1    2  502    0  0.62103760443E+02 -0.86795437219E+02 -0.47470228799E+03  0.51681089569E+03  0.17424383689E+03 0.  0.
         24    2    3    3    0    0  0.26603834613E+02 -0.12515016826E+03 -0.34736206448E+03  0.37908307478E+03  0.81689932770E+02 0.  0.
         -6    2    1    2    0  503 -0.62103760443E+02  0.86795437219E+02  0.36395097894E+02  0.20534022787E+03  0.17160909372E+03 0.  0.
        -24    2    5    5    0    0 -0.50701045796E+02 -0.12671706303E+02  0.42225498986E+02  0.10494193048E+03  0.80614191201E+02 0.  0.
          2    1    4    4  501    0  0.51063118239E+02 -0.10854544177E+03 -0.24924739955E+03  0.27661131783E+03  0.00000000000E+00 0. -1.
         -1    1    4    4    0  501 -0.24459283626E+02 -0.16604726491E+02 -0.98114664933E+02  0.10247175695E+03  0.00000000000E+00 0.  1.
          5    1    3    3  502    0  0.35499925830E+02  0.38354731039E+02 -0.12734022351E+03  0.13772782091E+03  0.47000000000E+01 0. -1.
         11    1    6    6    0    0 -0.24458377785E+02 -0.40279948714E+01  0.64725662451E+02  0.69309799930E+02  0.00000000000E+00 0. -1.
        -12    1    6    6    0    0 -0.26242668011E+02 -0.86437114311E+01 -0.22500163465E+02  0.35632130551E+02  0.00000000000E+00 0.  1.
         -5    1    5    5    0  503 -0.11402714647E+02  0.99467143522E+02 -0.58304010916E+01  0.10039829739E+03  0.47000000000E+01 0.  1.
<mgrwt>
<rscale>  2 0.20376836E+03</rscale>
<asrwt>0</asrwt>
<pdfrwt beam="1">  1       21 0.21834149E-01 0.20433120E+03</pdfrwt>
<pdfrwt beam="2">  1       21 0.89266024E-01 0.20433120E+03</pdfrwt>
<totfact> 0.20815559E+04</totfact>
</mgrwt>
</event>
<event>
12    1  0.1473662E-001  0.2037063E+03  0.7546771E-02  0.1147000E+00
         21   -1    0    0  504  503  0.00000000000E+00  0.00000000000E+00  0.30677166444E+03  0.30677166444E+03  0.00000000000E+00 0.  1.
         21   -1    0    0  502  504 -0.00000000000E+00 -0.00000000000E+00 -0.14054785493E+03  0.14054785493E+03  0.00000000000E+00 0.  1.
          6    2    1    2  502    0 -0.40643296713E+02 -0.96114361613E+02  0.13118820762E+03  0.24229448299E+03  0.17494691364E+03 0.  0.
         24    2    3    3    0    0 -0.29012136926E+02 -0.46338870709E+02  0.16662145495E+02  0.11679072895E+03  0.10185014604E+03 0.  0.
         -6    2    1    2    0  503  0.40643296713E+02  0.96114361613E+02  0.35035601888E+02  0.20502503637E+03  0.17296798566E+03 0.  0.
        -24    2    5    5    0    0 -0.41282399426E+01  0.72007398037E+02  0.82077345057E+02  0.13559412260E+03  0.80293011989E+02 0.  0.
          2    1    4    4  501    0 -0.54417618122E+02 -0.37188542632E+02 -0.22128735749E+02  0.69526583485E+02  0.00000000000E+00 0. -1.
         -1    1    4    4    0  501  0.25405481196E+02 -0.91503280766E+01  0.38790881244E+02  0.47264145464E+02  0.00000000000E+00 0.  1.
          5    1    3    3  502    0 -0.11631159787E+02 -0.49775490904E+02  0.11452606213E+03  0.12550375404E+03  0.47000000000E+01 0. -1.
         11    1    6    6    0    0 -0.23164747065E+02  0.64334266949E+02  0.21568026064E+02  0.71698557578E+02  0.00000000000E+00 0. -1.
        -12    1    6    6    0    0  0.19036507123E+02  0.76731310878E+01  0.60509318993E+02  0.63895565019E+02  0.00000000000E+00 0.  1.
         -5    1    5    5    0  503  0.44771536656E+02  0.24106963576E+02 -0.47041743169E+02  0.69430913775E+02  0.47000000000E+01 0.  1.
<mgrwt>
<rscale>  2 0.20328075E+03</rscale>
<asrwt>0</asrwt>
<pdfrwt beam="1">  1       21 0.47195641E-01 0.20370633E+03</pdfrwt>
<pdfrwt beam="2">  1       21 0.21622747E-01 0.20370633E+03</pdfrwt>
<totfact> 0.85263489E+04</totfact>
</mgrwt>
</event>
<event>
12    1  0.1473662E-001  0.1920617E+03  0.7546771E-02  0.1156764E+00
         21   -1    0    0  504  503  0.00000000000E+00  0.00000000000E+00  0.94476355716E+02  0.94476355716E+02  0.00000000000E+00 0. -1.
         21   -1    0    0  502  504 -0.00000000000E+00 -0.00000000000E+00 -0.88944001276E+03  0.88944001276E+03  0.00000000000E+00 0. -1.
          6    2    1    2  502    0  0.57325766645E+02 -0.57861745305E+02 -0.76616315523E+03  0.78970731796E+03  0.17319769779E+03 0.  0.
         24    2    3    3    0    0  0.32901409211E+02 -0.62867051488E+02 -0.22953401722E+03  0.25247875944E+03  0.77620165022E+02 0.  0.
         -6    2    1    2    0  503 -0.57325766645E+02  0.57861745305E+02 -0.28800501821E+02  0.19420905052E+03  0.17393522159E+03 0.  0.
        -24    2    5    5    0    0 -0.38170299172E+01  0.55560419410E+02  0.40857734047E+02  0.10621563695E+03  0.80690006690E+02 0.  0.
          4    1    4    4  501    0  0.47136746144E+02 -0.61810701705E+02 -0.12660033129E+03  0.14856002008E+03  0.00000000000E+00 0. -1.
         -3    1    4    4    0  501 -0.14235336933E+02 -0.10563497825E+01 -0.10293368593E+03  0.10391873937E+03  0.00000000000E+00 0.  1.
          5    1    3    3  502    0  0.24424357434E+02  0.50053061823E+01 -0.53662913800E+03  0.53722855851E+03  0.47000000000E+01 0. -1.
         11    1    6    6    0    0  0.11816512782E+02 -0.12140798411E+02  0.31950266294E+02  0.36164187764E+02  0.00000000000E+00 0. -1.
        -12    1    6    6    0    0 -0.15633542699E+02  0.67701217821E+02  0.89074677521E+01  0.70051449189E+02  0.00000000000E+00 0.  1.
         -5    1    5    5    0  503 -0.53508736728E+02  0.23013258952E+01 -0.69658235868E+02  0.87993413568E+02  0.47000000000E+01 0.  1.
<mgrwt>
<rscale>  2 0.19189454E+03</rscale>
<asrwt>0</asrwt>
<pdfrwt beam="1">  1       21 0.14534824E-01 0.19206167E+03</pdfrwt>
<pdfrwt beam="2">  1       21 0.13683693E+00 0.19206167E+03</pdfrwt>
<totfact> 0.15773283E+04</totfact>
</mgrwt>
</event>
<event>
12    1  0.1473662E-001  0.2003138E+03  0.7546771E-02  0.1152241E+00
         21   -1    0    0  504  503  0.00000000000E+00  0.00000000000E+00  0.15704439048E+04  0.15704439048E+04  0.00000000000E+00 0. -1.
         21   -1    0    0  502  504 -0.00000000000E+00 -0.00000000000E+00 -0.25337502289E+02  0.25337502289E+02  0.00000000000E+00 0. -1.
          6    2    1    2  502    0  0.94578768069E+02  0.30838744624E+02  0.61032456319E+03  0.64235636095E+03  0.17386618555E+03 0.  0.
         24    2    3    3    0    0 -0.20167135087E+02  0.42924274277E+00  0.26885784404E+03  0.28081387329E+03  0.78517472853E+02 0.  0.
         -6    2    1    2    0  503 -0.94578768069E+02 -0.30838744624E+02  0.93478183930E+03  0.95342504612E+03  0.15907878534E+03 0.  0.
        -24    2    5    5    0    0 -0.33251701241E+02  0.17283769978E+02  0.71079851890E+03  0.71621753495E+03  0.79552615053E+02 0.  0.
          2    1    4    4  501    0 -0.20621407442E+01 -0.34202943651E+02  0.67501714555E+02  0.75700563054E+02  0.00000000000E+00 0. -1.
         -1    1    4    4    0  501 -0.18104994342E+02  0.34632186394E+02  0.20135612948E+03  0.20511331023E+03  0.00000000000E+00 0.  1.
          5    1    3    3  502    0  0.11474590316E+03  0.30409501882E+02  0.34146671916E+03  0.36154248767E+03  0.47000000000E+01 0. -1.
         11    1    6    6    0    0 -0.40878202341E+02 -0.16836038783E+02  0.23404707620E+03  0.23818588016E+03  0.00000000000E+00 0. -1.
        -12    1    6    6    0    0  0.76265011001E+01  0.34119808761E+02  0.47675144270E+03  0.47803165479E+03  0.00000000000E+00 0.  1.
         -5    1    5    5    0  503 -0.61327066828E+02 -0.48122514602E+02  0.22398332040E+03  0.23720751117E+03  0.47000000000E+01 0.  1.
<mgrwt>
<rscale>  2 0.19706271E+03</rscale>
<asrwt>0</asrwt>
<pdfrwt beam="1">  1       21 0.24160668E+00 0.20031381E+03</pdfrwt>
<pdfrwt beam="2">  1       21 0.38980785E-02 0.20031381E+03</pdfrwt>
<totfact> 0.30309475E+04</totfact>
</mgrwt>
</event>
<event>
12    1  0.1473662E-001  0.1986096E+03  0.7546771E-02  0.1151188E+00
         21   -1    0    0  504  503  0.00000000000E+00  0.00000000000E+00  0.11165356291E+03  0.11165356291E+03  0.00000000000E+00 0. -1.
         21   -1    0    0  502  504 -0.00000000000E+00 -0.00000000000E+00 -0.40966442821E+03  0.40966442821E+03  0.00000000000E+00 0. -1.
          6    2    1    2  502    0 -0.42335953814E+02 -0.85088021214E+02 -0.24801792874E+03  0.31773995576E+03  0.17439461623E+03 0.  0.
         24    2    3    3    0    0  0.31078312062E+02 -0.10190556085E+03 -0.17819653372E+03  0.21493138960E+03  0.55595798336E+02 0.  0.
         -6    2    1    2    0  503  0.42335953814E+02  0.85088021214E+02 -0.49992936565E+02  0.20357803536E+03  0.17295206976E+03 0.  0.
        -24    2    5    5    0    0 -0.26853286150E+02  0.61656902761E+02  0.15549546588E+02  0.10532288111E+03  0.79551544620E+02 0.  0.
          4    1    4    4  501    0  0.45922728224E+02 -0.59068256985E+02 -0.11270005609E+03  0.13527475224E+03  0.00000000000E+00 0. -1.
         -3    1    4    4    0  501 -0.14844416162E+02 -0.42837303861E+02 -0.65496477632E+02  0.79656637360E+02  0.00000000000E+00 0.  1.
          5    1    3    3  502    0 -0.73414265876E+02  0.16817539632E+02 -0.69821395014E+02  0.10280856616E+03  0.47000000000E+01 0. -1.
         11    1    6    6    0    0 -0.44036527141E+02  0.48744614998E+01  0.13712303098E+01  0.44326700420E+02  0.00000000000E+00 0. -1.
        -12    1    6    6    0    0  0.17183240991E+02  0.56782441261E+02  0.14178316279E+02  0.60996180692E+02  0.00000000000E+00 0.  1.
         -5    1    5    5    0  503  0.69189239964E+02  0.23431118453E+02 -0.65542483153E+02  0.98255154250E+02  0.47000000000E+01 0.  1.
<mgrwt>
<rscale>  2 0.19829251E+03</rscale>
<asrwt>0</asrwt>
<pdfrwt beam="1">  1       21 0.17177471E-01 0.19860963E+03</pdfrwt>
<pdfrwt beam="2">  1       21 0.63025297E-01 0.19860963E+03</pdfrwt>
<totfact> 0.71135901E+04</totfact>
</mgrwt>
</event>
<event>
12    1  0.1473662E-001  0.1935897E+03  0.7546771E-02  0.1157806E+00
         21   -1    0    0  504  503  0.00000000000E+00  0.00000000000E+00  0.25356685333E+03  0.25356685333E+03  0.00000000000E+00 0.  1.
         21   -1    0    0  502  504 -0.00000000000E+00 -0.00000000000E+00 -0.16361585875E+03  0.16361585875E+03  0.00000000000E+00 0. -1.
          6    2    1    2  502    0  0.28144583650E+02  0.83030523809E+02 -0.36420523987E+02  0.18599725222E+03  0.15994479607E+03 0.  0.
         24    2    3    3    0    0 -0.14411014267E+02  0.79129905106E+02  0.18509430358E+02  0.11624351665E+03  0.81858029159E+02 0.  0.
         -6    2    1    2    0  503 -0.28144583650E+02 -0.83030523809E+02  0.12637151857E+03  0.23118545986E+03  0.17260003091E+03 0.  0.
        -24    2    5    5    0    0  0.21527765810E+02  0.29632734201E+01  0.36208939420E+02  0.96970497421E+02  0.87292407380E+02 0.  0.
          4    1    4    4  501    0 -0.26503742057E+02  0.22873824396E+02 -0.25907929422E+02  0.43553197271E+02  0.00000000000E+00 0. -1.
         -3    1    4    4    0  501  0.12092727791E+02  0.56256080710E+02  0.44417359780E+02  0.72690319384E+02  0.00000000000E+00 0.  1.
          5    1    3    3  502    0  0.42555597917E+02  0.39006187032E+01 -0.54929954345E+02  0.69753735561E+02  0.47000000000E+01 0. -1.
         11    1    6    6    0    0  0.19411151656E+00 -0.22140464220E+02 -0.21281030107E+02  0.30710260135E+02  0.00000000000E+00 0. -1.
        -12    1    6    6    0    0  0.21333654293E+02  0.25103737640E+02  0.57489969527E+02  0.66260237286E+02  0.00000000000E+00 0.  1.
         -5    1    5    5    0  503 -0.49672349460E+02 -0.85993797229E+02  0.90162579148E+02  0.13421496243E+03  0.47000000000E+01 0.  1.
<mgrwt>
<rscale>  2 0.19072859E+03</rscale>
<asrwt>0</asrwt>
<pdfrwt beam="1">  1       21 0.39010285E-01 0.19358966E+03</pdfrwt>
<pdfrwt beam="2">  1       21 0.25171671E-01 0.19358966E+03</pdfrwt>
<totfact> 0.94689504E+04</totfact>
</mgrwt>
</event>
<event>
12    1  0.1473662E-001  0.2654603E+03  0.7546771E-02  0.1104804E+00
         21   -1    0    0  504  503  0.00000000000E+00  0.00000000000E+00  0.17834403726E+04  0.17834403726E+04  0.00000000000E+00 0.  1.
         21   -1    0    0  502  504 -0.00000000000E+00 -0.00000000000E+00 -0.81738818952E+02  0.81738818952E+02  0.00000000000E+00 0. -1.
          6    2    1    2  502    0  0.13248013064E+03  0.14309988877E+03  0.16884968153E+03  0.30951084290E+03  0.17105023748E+03 0.  0.
         24    2    3    3    0    0  0.13289670573E+03  0.10488845042E+03  0.18946641606E+03  0.26583673961E+03  0.78157071874E+02 0.  0.
         -6    2    1    2    0  503 -0.13248013064E+03 -0.14309988877E+03  0.15328518722E+04  0.15556683487E+04  0.18011270348E+03 0.  0.
        -24    2    5    5    0    0 -0.37334087098E+02 -0.16834065452E+02  0.29754275300E+03  0.31027421926E+03  0.77853589870E+02 0.  0.
          2    1    4    4  501    0  0.86473789585E+01 -0.11544317606E+02  0.62753463888E+01  0.15729857092E+02  0.00000000000E+00 0. -1.
         -1    1    4    4    0  501  0.12424932677E+03  0.11643276803E+03  0.18319106967E+03  0.25010688252E+03  0.00000000000E+00 0.  1.
          5    1    3    3  502    0 -0.41657509513E+00  0.38211438347E+02 -0.20616734536E+02  0.43674103291E+02  0.47000000000E+01 0. -1.
         11    1    6    6    0    0 -0.30762270516E+02 -0.31626505386E+02  0.74058080557E+02  0.86204132302E+02  0.00000000000E+00 0. -1.
        -12    1    6    6    0    0 -0.65718165821E+01  0.14792439934E+02  0.22348467245E+03  0.22407008696E+03  0.00000000000E+00 0.  1.
         -5    1    5    5    0  503 -0.95146043539E+02 -0.12626582332E+03  0.12353091192E+04  0.12453941294E+04  0.47000000000E+01 0.  1.
<mgrwt>
<rscale>  2 0.26393126E+03</rscale>
<asrwt>0</asrwt>
<pdfrwt beam="1">  1       21 0.27437541E+00 0.26546026E+03</pdfrwt>
<pdfrwt beam="2">  1       21 0.12575204E-01 0.26546026E+03</pdfrwt>
<totfact> 0.24040450E+03</totfact>
</mgrwt>
</event>
<event>
12    1  0.1473662E-001  0.2456127E+03  0.7546771E-02  0.1116172E+00
         21   -1    0    0  504  503  0.00000000000E+00  0.00000000000E+00  0.23990314497E+03  0.23990314497E+03  0.00000000000E+00 0.  1.
         21   -1    0    0  502  504 -0.00000000000E+00 -0.00000000000E+00 -0.25817927628E+03  0.25817927628E+03  0.00000000000E+00 0.  1.
          6    2    1    2  502    0  0.83804651759E+02 -0.15268120847E+03 -0.50490069792E+02  0.25074860034E+03  0.17317864288E+03 0.  0.
         24    2    3    3    0    0  0.84986708775E+02 -0.98638485819E+02 -0.96096701402E+02  0.17986794024E+03  0.78521387860E+02 0.  0.
         -6    2    1    2    0  503 -0.83804651759E+02  0.15268120847E+03  0.32213938476E+02  0.24733382090E+03  0.17263113872E+03 0.  0.
        -24    2    5    5    0    0 -0.99234021436E+02  0.70497949881E+02  0.49646113933E+02  0.16178778545E+03  0.94303758905E+02 0.  0.
          4    1    4    4  501    0  0.28580750205E+02 -0.44309644460E+01 -0.55899535542E+02  0.62938468380E+02  0.00000000000E+00 0. -1.
         -3    1    4    4    0  501  0.56405958570E+02 -0.94207521373E+02 -0.40197165860E+02  0.11692947186E+03  0.00000000000E+00 0.  1.
          5    1    3    3  502    0 -0.11820570164E+01 -0.54042722652E+02  0.45606631610E+02  0.70880660107E+02  0.47000000000E+01 0. -1.
         13    1    6    6    0    0 -0.90333415730E+00 -0.20193525010E+02  0.63616682904E+01  0.21191160619E+02  0.00000000000E+00 0. -1.
        -14    1    6    6    0    0 -0.98330687279E+02  0.90691474892E+02  0.43284445643E+02  0.14059662483E+03  0.00000000000E+00 0.  1.
         -5    1    5    5    0  503  0.15429369677E+02  0.82183258590E+02 -0.17432175457E+02  0.85546035456E+02  0.47000000000E+01 0.  1.
<mgrwt>
<rscale>  2 0.24551624E+03</rscale>
<asrwt>0</asrwt>
<pdfrwt beam="1">  1       21 0.36908176E-01 0.24561273E+03</pdfrwt>
<pdfrwt beam="2">  1       21 0.39719889E-01 0.24561273E+03</pdfrwt>
<totfact> 0.42200371E+04</totfact>
</mgrwt>
</event>
<event>
12    1  0.1473662E-001  0.2247776E+03  0.7546771E-02  0.1130391E+00
         21   -1    0    0  504  503  0.00000000000E+00  0.00000000000E+00  0.48626546020E+02  0.48626546020E+02  0.00000000000E+00 0. -1.
         21   -1    0    0  502  504 -0.00000000000E+00 -0.00000000000E+00 -0.11134197998E+04  0.11134197998E+04  0.00000000000E+00 0. -1.
          6    2    1    2  502    0 -0.45865608739E+02  0.13618411725E+03 -0.38158378674E+03  0.44281053587E+03  0.17269978727E+03 0.  0.
         24    2    3    3    0    0 -0.20476110064E+01  0.93439381521E+01 -0.20761492851E+03  0.22304770555E+03  0.80961833731E+02 0.  0.
         -6    2    1    2    0  503  0.45865608739E+02 -0.13618411725E+03 -0.68320946707E+03  0.71923580997E+03  0.17284445783E+03 0.  0.
        -24    2    5    5    0    0 -0.35892569000E+02 -0.36731085601E+02 -0.31382688187E+03  0.32803140129E+03  0.80497448936E+02 0.  0.
          2    1    4    4  501    0 -0.26687340445E+02 -0.15172251141E+02 -0.33260065234E+02  0.45261940790E+02  0.00000000000E+00 0. -1.
         -1    1    4    4    0  501  0.24639729439E+02  0.24516189294E+02 -0.17435486327E+03  0.17778576476E+03  0.00000000000E+00 0.  1.
          5    1    3    3  502    0 -0.43817997733E+02  0.12684017909E+03 -0.17396885823E+03  0.21976283033E+03  0.47000000000E+01 0. -1.
         13    1    6    6    0    0  0.51289118424E-01 -0.53602125457E+02 -0.21367369289E+03  0.22029443370E+03  0.00000000000E+00 0. -1.
        -14    1    6    6    0    0 -0.35943858118E+02  0.16871039856E+02 -0.10015318898E+03  0.10773696759E+03  0.00000000000E+00 0.  1.
         -5    1    5    5    0  503  0.81758177739E+02 -0.99453031644E+02 -0.36938258519E+03  0.39120440868E+03  0.47000000000E+01 0.  1.
<mgrwt>
<rscale>  2 0.22474980E+03</rscale>
<asrwt>0</asrwt>
<pdfrwt beam="1">  1       21 0.74810065E-02 0.22477761E+03</pdfrwt>
<pdfrwt beam="2">  1       21 0.17129537E+00 0.22477761E+03</pdfrwt>
<totfact> 0.27599427E+04</totfact>
</mgrwt>
</event>
<event>
12    1  0.1473662E-001  0.1849141E+03  0.7546771E-02  0.1163604E+00
         21   -1    0    0  504  503  0.00000000000E+00  0.00000000000E+00  0.10157231961E+04  0.10157231961E+04  0.00000000000E+00 0.  1.
         21   -1    0    0  502  504 -0.00000000000E+00 -0.00000000000E+00 -0.11340664770E+03  0.11340664770E+03  0.00000000000E+00 0.  1.
          6    2    1    2  502    0 -0.41419099311E+02  0.47542993783E+02 -0.24065441252E+02  0.18447285162E+03  0.17168345720E+03 0.  0.
         24    2    3    3    0    0 -0.39475159523E+02  0.72370996146E+02 -0.66212990558E+02  0.13529242344E+03  0.84403971588E+02 0.  0.
         -6    2    1    2    0  503  0.41419099311E+02 -0.47542993783E+02  0.92638198962E+03  0.94465699214E+03  0.17383142425E+03 0.  0.
        -24    2    5    5    0    0 -0.30122503030E+02 -0.45450692028E+02  0.31703990620E+03  0.33110793687E+03  0.78390261773E+02 0.  0.
          4    1    4    4  501    0 -0.65388853413E+02  0.61870878837E+02 -0.50206679609E+02  0.10307481980E+03  0.00000000000E+00 0. -1.
         -3    1    4    4    0  501  0.25913693890E+02  0.10500117309E+02 -0.16006310949E+02  0.32217603646E+02  0.00000000000E+00 0.  1.
          5    1    3    3  502    0 -0.19439397880E+01 -0.24828002364E+02  0.42147549306E+02  0.49180428178E+02  0.47000000000E+01 0. -1.
         13    1    6    6    0    0  0.25702693772E+02 -0.21456984642E+02  0.13934877066E+03  0.14331472549E+03  0.00000000000E+00 0. -1.
        -14    1    6    6    0    0 -0.55825196802E+02 -0.23993707387E+02  0.17769113554E+03  0.18779321138E+03  0.00000000000E+00 0.  1.
         -5    1    5    5    0  503  0.71541602341E+02 -0.20923017545E+01  0.60934208342E+03  0.61354905527E+03  0.47000000000E+01 0.  1.
<mgrwt>
<rscale>  2 0.18440763E+03</rscale>
<asrwt>0</asrwt>
<pdfrwt beam="1">  1       21 0.15626510E+00 0.18491415E+03</pdfrwt>
<pdfrwt beam="2">  1       21 0.17447177E-01 0.18491415E+03</pdfrwt>
<totfact> 0.80254299E+03</totfact>
</mgrwt>
</event>
<event>
12    1  0.1473662E-001  0.1965749E+03  0.7546771E-02  0.1152935E+00
         21   -1    0    0  504  503  0.00000000000E+00  0.00000000000E+00  0.19164323980E+03  0.19164323980E+03  0.00000000000E+00 0.  1.
         21   -1    0    0  502  504 -0.00000000000E+00 -0.00000000000E+00 -0.26570564275E+03  0.26570564275E+03  0.00000000000E+00 0. -1.
          6    2    1    2  502    0  0.93402775714E+02  0.97913058113E+01 -0.15036351290E+03  0.24648508370E+03  0.17124766361E+03 0.  0.
         24    2    3    3    0    0  0.18878975301E+02 -0.37388262770E+02 -0.26227664941E+02  0.94131851802E+02  0.80116273091E+02 0.  0.
         -6    2    1    2    0  503 -0.93402775714E+02 -0.97913058113E+01  0.76301109956E+02  0.21086379885E+03  0.17268970469E+03 0.  0.
        -24    2    5    5    0    0 -0.31699094452E+02 -0.53698105970E+02  0.88732103991E+02  0.13397575691E+03  0.78662557713E+02 0.  0.
          2    1    4    4  501    0 -0.24650779839E+02  0.34487604347E+00 -0.26942915802E+02  0.36519865800E+02  0.00000000000E+00 0. -1.
         -1    1    4    4    0  501  0.43529755140E+02 -0.37733138814E+02  0.71525086094E+00  0.57611986002E+02  0.00000000000E+00 0.  1.
          5    1    3    3  502    0  0.74523800413E+02  0.47179568582E+02 -0.12413584796E+03  0.15235323189E+03  0.47000000000E+01 0. -1.
         11    1    6    6    0    0 -0.14234574949E+02 -0.56872823133E+02  0.18412694990E+02  0.61450536791E+02  0.00000000000E+00 0. -1.
        -12    1    6    6    0    0 -0.17464519503E+02  0.31747171627E+01  0.70319409000E+02  0.72525220115E+02  0.00000000000E+00 0.  1.
         -5    1    5    5    0  503 -0.61703681262E+02  0.43906800159E+02 -0.12430994035E+02  0.76888041945E+02  0.47000000000E+01 0.  1.
<mgrwt>
<rscale>  2 0.19625771E+03</rscale>
<asrwt>0</asrwt>
<pdfrwt beam="1">  1       21 0.29483575E-01 0.19657488E+03</pdfrwt>
<pdfrwt beam="2">  1       21 0.40877791E-01 0.19657488E+03</pdfrwt>
<totfact> 0.63429184E+04</totfact>
</mgrwt>
</event>
<event>
12    1  0.1473662E-001  0.2162503E+03  0.7546771E-02  0.1136728E+00
         21   -1    0    0  504  503  0.00000000000E+00  0.00000000000E+00  0.23784459870E+03  0.23784459870E+03  0.00000000000E+00 0.  1.
         21   -1    0    0  502  504 -0.00000000000E+00 -0.00000000000E+00 -0.23231644517E+03  0.23231644517E+03  0.00000000000E+00 0. -1.
          6    2    1    2  502    0  0.12259796133E+03  0.43288162119E+02 -0.89500906309E+02  0.23403978383E+03  0.17280070336E+03 0.  0.
         24    2    3    3    0    0  0.44408324612E+02  0.19519371275E+02  0.19615514994E+02  0.97632093039E+02  0.82426646256E+02 0.  0.
         -6    2    1    2    0  503 -0.12259796133E+03 -0.43288162119E+02  0.95029059832E+02  0.23612126004E+03  0.17268063623E+03 0.  0.
        -24    2    5    5    0    0 -0.75645331523E+01 -0.57233719958E+02  0.25569148414E+02  0.10094013164E+03  0.78754098065E+02 0.  0.
          2    1    4    4  501    0 -0.20580324876E+02 -0.36215524562E+01 -0.92480686887E+01  0.22851524866E+02  0.00000000000E+00 0. -1.
         -1    1    4    4    0  501  0.64988649488E+02  0.23140923731E+02  0.28863583682E+02  0.74780568174E+02  0.00000000000E+00 0.  1.
          5    1    3    3  502    0  0.78189636721E+02  0.23768790845E+02 -0.10911642130E+03  0.13640769079E+03  0.47000000000E+01 0. -1.
         13    1    6    6    0    0  0.65879908544E+00 -0.66060542508E+02  0.43666178229E+02  0.79190683883E+02  0.00000000000E+00 0. -1.
        -14    1    6    6    0    0 -0.82233322378E+01  0.88268225504E+01 -0.18097029815E+02  0.21749447753E+02  0.00000000000E+00 0.  1.
         -5    1    5    5    0  503 -0.11503342818E+03  0.13945557838E+02  0.69459911417E+02  0.13518112840E+03  0.47000000000E+01 0.  1.
<mgrwt>
<rscale>  2 0.21622635E+03</rscale>
<asrwt>0</asrwt>
<pdfrwt beam="1">  1       21 0.36591477E-01 0.21625034E+03</pdfrwt>
<pdfrwt beam="2">  1       21 0.35740992E-01 0.21625034E+03</pdfrwt>
<totfact> 0.53773198E+04</totfact>
</mgrwt>
</event>
<event>
12    1  0.1473662E-001  0.2086667E+03  0.7546771E-02  0.1142728E+00
         21   -1    0    0  504  503  0.00000000000E+00  0.00000000000E+00  0.73149355242E+02  0.73149355242E+02  0.00000000000E+00 0. -1.
         21   -1    0    0  502  504 -0.00000000000E+00 -0.00000000000E+00 -0.10237045544E+04  0.10237045544E+04  0.00000000000E+00 0.  1.
          6    2    1    2  502    0  0.77789257960E+02  0.85901852467E+02 -0.83034318542E+03  0.85603713262E+03  0.17291463194E+03 0.  0.
         24    2    3    3    0    0  0.66461324245E+02  0.10859895108E+03 -0.80848455680E+03  0.82222337783E+03  0.78696662400E+02 0.  0.
         -6    2    1    2    0  503 -0.77789257960E+02 -0.85901852467E+02 -0.12021201370E+03  0.24081677699E+03  0.17352664040E+03 0.  0.
        -24    2    5    5    0    0 -0.40357408868E+02 -0.68506198066E+02  0.18702006924E+01  0.11185977179E+03  0.78659336823E+02 0.  0.
          4    1    4    4  501    0  0.35626797884E+02  0.91173529265E+02 -0.38459117287E+03  0.39685293424E+03  0.00000000000E+00 0. -1.
         -3    1    4    4    0  501  0.30834526361E+02  0.17425421819E+02 -0.42389338393E+03  0.42537044359E+03  0.00000000000E+00 0.  1.
          5    1    3    3  502    0  0.11327933715E+02 -0.22697098616E+02 -0.21858628625E+02  0.33813754793E+02  0.47000000000E+01 0. -1.
         13    1    6    6    0    0 -0.23020584064E+02 -0.62403144419E+01  0.32517825690E+02  0.40327382788E+02  0.00000000000E+00 0. -1.
        -14    1    6    6    0    0 -0.17336824805E+02 -0.62265883624E+02 -0.30647624997E+02  0.71532388998E+02  0.00000000000E+00 0.  1.
         -5    1    5    5    0  503 -0.37431849092E+02 -0.17395654401E+02 -0.12208221439E+03  0.12895700520E+03  0.47000000000E+01 0.  1.
<mgrwt>
<rscale>  2 0.20853942E+03</rscale>
<asrwt>0</asrwt>
<pdfrwt beam="1">  1       21 0.11253747E-01 0.20866670E+03</pdfrwt>
<pdfrwt beam="2">  1       21 0.15749300E+00 0.20866670E+03</pdfrwt>
<totfact> 0.17090850E+04</totfact>
</mgrwt>
</event>
<event>
12    1  0.1473662E-001  0.1830948E+03  0.7546771E-02  0.1164951E+00
         21   -1    0    0  504  503  0.00000000000E+00  0.00000000000E+00  0.96291474258E+02  0.96291474258E+02  0.00000000000E+00 0. -1.
         21   -1    0    0  502  504 -0.00000000000E+00 -0.00000000000E+00 -0.57285287357E+03  0.57285287357E+03  0.00000000000E+00 0. -1.
          6    2    1    2  502    0  0.52408927251E+02 -0.29156058587E+02 -0.44841648316E+03  0.48435630854E+03  0.17299398789E+03 0.  0.
         24    2    3    3    0    0  0.72047074443E+02  0.47684718223E+01 -0.15923555127E+03  0.19249292962E+03  0.80523586021E+02 0.  0.
         -6    2    1    2    0  503 -0.52408927251E+02  0.29156058587E+02 -0.28144916159E+02  0.18478803929E+03  0.17250423691E+03 0.  0.
        -24    2    5    5    0    0 -0.56338160328E+02  0.80187729757E+02  0.92852457144E+00  0.12573699958E+03  0.78771000964E+02 0.  0.
          2    1    4    4  501    0  0.55535398466E+01 -0.29299634739E+02 -0.25209330188E+02  0.39048952985E+02  0.00000000000E+00 0. -1.
         -1    1    4    4    0  501  0.66493534596E+02  0.34068106561E+02 -0.13402622109E+03  0.15344397664E+03  0.00000000000E+00 0.  1.
          5    1    3    3  502    0 -0.19638147192E+02 -0.33924530409E+02 -0.28918093188E+03  0.29186337892E+03  0.47000000000E+01 0. -1.
         13    1    6    6    0    0  0.18812390191E+02  0.23628057356E+02 -0.80390970846E+01  0.31254090949E+02  0.00000000000E+00 0. -1.
        -14    1    6    6    0    0 -0.75150550518E+02  0.56559672401E+02  0.89676216560E+01  0.94482908632E+02  0.00000000000E+00 0.  1.
         -5    1    5    5    0  503  0.39292330769E+01 -0.51031671171E+02 -0.29073440730E+02  0.59051039711E+02  0.47000000000E+01 0.  1.
<mgrwt>
<rscale>  2 0.18297898E+03</rscale>
<asrwt>0</asrwt>
<pdfrwt beam="1">  1       21 0.14814073E-01 0.18309476E+03</pdfrwt>
<pdfrwt beam="2">  1       21 0.88131209E-01 0.18309476E+03</pdfrwt>
<totfact> 0.44465190E+04</totfact>
</mgrwt>
</event>
<event>
12    1  0.1473662E-001  0.1811356E+03  0.7546771E-02  0.1166732E+00
         21   -1    0    0  504  503  0.00000000000E+00  0.00000000000E+00  0.27592978737E+03  0.27592978737E+03  0.00000000000E+00 0. -1.
         21   -1    0    0  502  504 -0.00000000000E+00 -0.00000000000E+00 -0.19406913816E+03  0.19406913816E+03  0.00000000000E+00 0. -1.
          6    2    1    2  502    0  0.54444505711E+02  0.14712218314E+02 -0.10538476270E+03  0.20947839420E+03  0.17203079915E+03 0.  0.
         24    2    3    3    0    0  0.61502311055E+02  0.63269418672E+02 -0.37053322123E+02  0.12522348280E+03  0.80761490576E+02 0.  0.
         -6    2    1    2    0  503 -0.54444505711E+02 -0.14712218314E+02  0.18724541192E+03  0.26052053133E+03  0.17213206962E+03 0.  0.
        -24    2    5    5    0    0 -0.14867424258E+02  0.74206622891E+01  0.19714855749E+03  0.21386892823E+03  0.81217351654E+02 0.  0.
          2    1    4    4  501    0  0.76048836655E+02  0.29463090252E+02 -0.16992887426E+02  0.83308207680E+02  0.00000000000E+00 0. -1.
         -1    1    4    4    0  501 -0.14546525599E+02  0.33806328420E+02 -0.20060434696E+02  0.41915275121E+02  0.00000000000E+00 0.  1.
          5    1    3    3  502    0 -0.70578053442E+01 -0.48557200358E+02 -0.68331440580E+02  0.84254911398E+02  0.47000000000E+01 0. -1.
         13    1    6    6    0    0 -0.27632071953E+02 -0.66141989507E+01  0.17817510419E+02  0.33537183926E+02  0.00000000000E+00 0. -1.
        -14    1    6    6    0    0  0.12764647694E+02  0.14034861240E+02  0.17933104707E+03  0.18033174430E+03  0.00000000000E+00 0.  1.
         -5    1    5    5    0  503 -0.39577081453E+02 -0.22132880603E+02 -0.99031455660E+01  0.46651603104E+02  0.47000000000E+01 0.  1.
<mgrwt>
<rscale>  2 0.18111153E+03</rscale>
<asrwt>0</asrwt>
<pdfrwt beam="1">  1       21 0.42450736E-01 0.18113559E+03</pdfrwt>
<pdfrwt beam="2">  1       21 0.29856791E-01 0.18113559E+03</pdfrwt>
<totfact> 0.57724008E+04</totfact>
</mgrwt>
</event>
<event>
12    1  0.1473662E-001  0.1932279E+03  0.7546771E-02  0.1156257E+00
         21   -1    0    0  504  503  0.00000000000E+00  0.00000000000E+00  0.10105625240E+03  0.10105625240E+03  0.00000000000E+00 0. -1.
         21   -1    0    0  502  504 -0.00000000000E+00 -0.00000000000E+00 -0.54008465950E+03  0.54008465950E+03  0.00000000000E+00 0. -1.
          6    2    1    2  502    0  0.44563052130E+02  0.73905362356E+02 -0.40154666507E+03  0.44431132837E+03  0.16948440661E+03 0.  0.
         24    2    3    3    0    0  0.32993017562E+02 -0.19733656590E+01 -0.32088044991E+03  0.33286369343E+03  0.82106893059E+02 0.  0.
         -6    2    1    2    0  503 -0.44563052130E+02 -0.73905362356E+02 -0.37481742021E+02  0.19682958354E+03  0.17288474707E+03 0.  0.
        -24    2    5    5    0    0 -0.62998314812E+02  0.11725207777E+02 -0.66927370838E+01  0.10386450258E+03  0.81466397986E+02 0.  0.
          2    1    4    4  501    0 -0.14784631377E+02  0.27308683616E+02 -0.87406434742E+02  0.92759012285E+02  0.00000000000E+00 0. -1.
         -1    1    4    4    0  501  0.47777648938E+02 -0.29282049275E+02 -0.23347401517E+03  0.24010468114E+03  0.00000000000E+00 0.  1.
          5    1    3    3  502    0  0.11570034568E+02  0.75878728015E+02 -0.80666215164E+02  0.11144763494E+03  0.47000000000E+01 0. -1.
         11    1    6    6    0    0 -0.70502552974E+02 -0.15831850674E+02  0.62100672006E+01  0.72524633100E+02  0.00000000000E+00 0. -1.
        -12    1    6    6    0    0  0.75042381628E+01  0.27557058451E+02 -0.12902804284E+02  0.31339869484E+02  0.00000000000E+00 0.  1.
         -5    1    5    5    0  503  0.18435262682E+02 -0.85630570133E+02 -0.30789004937E+02  0.92965080952E+02  0.47000000000E+01 0.  1.
<mgrwt>
<rscale>  2 0.19246427E+03</rscale>
<asrwt>0</asrwt>
<pdfrwt beam="1">  1       21 0.15547116E-01 0.19322786E+03</pdfrwt>
<pdfrwt beam="2">  1       21 0.83089949E-01 0.19322786E+03</pdfrwt>
<totfact> 0.46367127E+04</totfact>
</mgrwt>
</event>
<event>
12    1  0.1473662E-001  0.2529503E+03  0.7546771E-02  0.1111461E+00
         21   -1    0    0  504  503  0.00000000000E+00  0.00000000000E+00  0.30586794458E+03  0.30586794458E+03  0.00000000000E+00 0. -1.
         21   -1    0    0  502  504 -0.00000000000E+00 -0.00000000000E+00 -0.66869396284E+03  0.66869396284E+03  0.00000000000E+00 0. -1.
          6    2    1    2  502    0 -0.10750251866E+03  0.15014412850E+03 -0.58536830697E+03  0.63768325274E+03  0.17286938766E+03 0.  0.
         24    2    3    3    0    0  0.31155766601E+01  0.18077792111E+02 -0.19579750417E+03  0.21169571700E+03  0.78370278620E+02 0.  0.
         -6    2    1    2    0  503  0.10750251866E+03 -0.15014412850E+03  0.22254228871E+03  0.33687865467E+03  0.17280655910E+03 0.  0.
        -24    2    5    5    0    0  0.91335733222E+02 -0.17695827482E+03  0.21663416801E+03  0.30467059225E+03  0.78976957665E+02 0.  0.
          2    1    4    4  501    0  0.20563797323E+02  0.26431450208E+02 -0.18780061466E+03  0.19076310489E+03  0.00000000000E+00 0. -1.
         -1    1    4    4    0  501 -0.17448220663E+02 -0.83536580970E+01 -0.79968895098E+01  0.20932612110E+02  0.00000000000E+00 0.  1.
          5    1    3    3  502    0 -0.11061809532E+03  0.13206633639E+03 -0.38957080280E+03  0.42598753575E+03  0.47000000000E+01 0. -1.
         13    1    6    6    0    0  0.54860833228E+02 -0.29501525983E+02  0.65600106073E+02  0.90462284819E+02  0.00000000000E+00 0. -1.
        -14    1    6    6    0    0  0.36474899993E+02 -0.14745674884E+03  0.15103406193E+03  0.21420830743E+03  0.00000000000E+00 0.  1.
         -5    1    5    5    0  503  0.16166785434E+02  0.26814146326E+02  0.59081207007E+01  0.32208062417E+02  0.47000000000E+01 0.  1.
<mgrwt>
<rscale>  2 0.25293961E+03</rscale>
<asrwt>0</asrwt>
<pdfrwt beam="1">  1       21 0.47056607E-01 0.25295034E+03</pdfrwt>
<pdfrwt beam="2">  1       21 0.10287599E+00 0.25295034E+03</pdfrwt>
<totfact> 0.31674620E+03</totfact>
</mgrwt>
</event>
<event>
12    1  0.1473662E-001  0.2287043E+03  0.7546771E-02  0.1127642E+00
         21   -1    0    0  504  503  0.00000000000E+00  0.00000000000E+00  0.33281120110E+03  0.33281120110E+03  0.00000000000E+00 0. -1.
         21   -1    0    0  502  504 -0.00000000000E+00 -0.00000000000E+00 -0.29851068370E+03  0.29851068370E+03  0.00000000000E+00 0. -1.
          6    2    1    2  502    0 -0.80633149083E+01 -0.14757930852E+03 -0.20030955326E+03  0.30402231548E+03  0.17453074753E+03 0.  0.
         24    2    3    3    0    0 -0.25354449799E+02 -0.66973987773E+02 -0.19324063585E+03  0.22114734536E+03  0.80223698845E+02 0.  0.
         -6    2    1    2    0  503  0.80633149083E+01  0.14757930852E+03  0.23461007066E+03  0.32729956932E+03  0.17389207419E+03 0.  0.
        -24    2    5    5    0    0  0.18987656490E+02  0.12322554275E+03  0.25399770579E+03  0.29397664114E+03  0.79764437588E+02 0.  0.
          2    1    4    4  501    0  0.18844720608E+01 -0.31570798694E+02 -0.16565423712E+03  0.16864635437E+03  0.00000000000E+00 0. -1.
         -1    1    4    4    0  501 -0.27238921860E+02 -0.35403189078E+02 -0.27586398724E+02  0.52500990996E+02  0.00000000000E+00 0.  1.
          5    1    3    3  502    0  0.17291134890E+02 -0.80605320752E+02 -0.70689174111E+01  0.82874970122E+02  0.47000000000E+01 0. -1.
         11    1    6    6    0    0 -0.81535959405E+01  0.27215996555E+02  0.95854505294E+01  0.29984536966E+02  0.00000000000E+00 0. -1.
        -12    1    6    6    0    0  0.27141252430E+02  0.96009546199E+02  0.24441225526E+03  0.26399210417E+03  0.00000000000E+00 0.  1.
         -5    1    5    5    0  503 -0.10924341581E+02  0.24353765771E+02 -0.19387635130E+02  0.33322928175E+02  0.47000000000E+01 0.  1.
<mgrwt>
<rscale>  2 0.22858244E+03</rscale>
<asrwt>0</asrwt>
<pdfrwt beam="1">  1       21 0.51201723E-01 0.22870429E+03</pdfrwt>
<pdfrwt beam="2">  1       21 0.45924721E-01 0.22870429E+03</pdfrwt>
<totfact> 0.16127455E+04</totfact>
</mgrwt>
</event>
<event>
12    1  0.1473662E-001  0.2516747E+03  0.7546771E-02  0.1112333E+00
         21   -1    0    0  504  503  0.00000000000E+00  0.00000000000E+00  0.28078129481E+03  0.28078129481E+03  0.00000000000E+00 0.  1.
         21   -1    0    0  502  504 -0.00000000000E+00 -0.00000000000E+00 -0.24803226202E+03  0.24803226202E+03  0.00000000000E+00 0.  1.
          6    2    1    2  502    0  0.13430595932E+03 -0.12352080735E+03 -0.64013600799E+02  0.25917829894E+03  0.17256931650E+03 0.  0.
         24    2    3    3    0    0  0.12528402052E+03 -0.15287373209E+03 -0.34036467295E+02  0.21600761325E+03  0.80214363524E+02 0.  0.
         -6    2    1    2    0  503 -0.13430595932E+03  0.12352080735E+03  0.96762633592E+02  0.26963525788E+03  0.17333402574E+03 0.  0.
        -24    2    5    5    0    0 -0.18496530485E+02  0.25060558954E+02 -0.49596456661E+01  0.86671446112E+02  0.80729103989E+02 0.  0.
          2    1    4    4  501    0  0.77360703962E+02 -0.11194021887E+03  0.13963063853E+02  0.13678544612E+03  0.00000000000E+00 0. -1.
         -1    1    4    4    0  501  0.47923316558E+02 -0.40933513221E+02 -0.47999531148E+02  0.79222167131E+02  0.00000000000E+00 0.  1.
          5    1    3    3  502    0  0.90219387985E+01  0.29352924736E+02 -0.29977133505E+02  0.43170685695E+02  0.47000000000E+01 0. -1.
         13    1    6    6    0    0  0.20414872834E+02 -0.18751716627E+02  0.12381061552E+01  0.27747555138E+02  0.00000000000E+00 0. -1.
        -14    1    6    6    0    0 -0.38911403319E+02  0.43812275581E+02 -0.61977518213E+01  0.58923890974E+02  0.00000000000E+00 0.  1.
         -5    1    5    5    0  503 -0.11580942883E+03  0.98460248396E+02  0.10172227926E+03  0.18296381177E+03  0.47000000000E+01 0.  1.
<mgrwt>
<rscale>  2 0.25154310E+03</rscale>
<asrwt>0</asrwt>
<pdfrwt beam="1">  1       21 0.43197122E-01 0.25167472E+03</pdfrwt>
<pdfrwt beam="2">  1       21 0.38158810E-01 0.25167472E+03</pdfrwt>
<totfact> 0.33157982E+04</totfact>
</mgrwt>
</event>
<event>
12    1  0.1473662E-001  0.1902118E+03  0.7546771E-02  0.1162165E+00
         21   -1    0    0  504  503  0.00000000000E+00  0.00000000000E+00  0.11555827591E+04  0.11555827591E+04  0.00000000000E+00 0. -1.
         21   -1    0    0  502  504 -0.00000000000E+00 -0.00000000000E+00 -0.29055463050E+02  0.29055463050E+02  0.00000000000E+00 0. -1.
          6    2    1    2  502    0 -0.13873604071E+01 -0.15998581235E+02  0.65783809302E+03  0.68478571344E+03  0.18953268145E+03 0.  0.
         24    2    3    3    0    0 -0.65329194027E+02  0.26085273124E+02  0.30310820963E+03  0.32186011631E+03  0.82286102469E+02 0.  0.
         -6    2    1    2    0  503  0.13873604071E+01  0.15998581235E+02  0.46868920300E+03  0.49985250868E+03  0.17298867608E+03 0.  0.
        -24    2    5    5    0    0 -0.31255689336E+02  0.15826568256E+02  0.11336330998E+03  0.14299934765E+03  0.79813376072E+02 0.  0.
          4    1    4    4  501    0 -0.26924725118E+01  0.22354292527E+02  0.19925201298E+03  0.20052014482E+03  0.00000000000E+00 0. -1.
         -3    1    4    4    0  501 -0.62636721515E+02  0.37309805967E+01  0.10385619666E+03  0.12133997150E+03  0.00000000000E+00 0.  1.
          5    1    3    3  502    0  0.63941833620E+02 -0.42083854359E+02  0.35472988338E+03  0.36292559712E+03  0.47000000000E+01 0. -1.
         13    1    6    6    0    0 -0.22907322892E+02  0.14293550961E+02 -0.22318037887E+01  0.27093024735E+02  0.00000000000E+00 0. -1.
        -14    1    6    6    0    0 -0.83483664444E+01  0.15330172950E+01  0.11559511377E+03  0.11590632292E+03  0.00000000000E+00 0.  1.
         -5    1    5    5    0  503  0.32643049743E+02  0.17201297916E+00  0.35532589302E+03  0.35685316102E+03  0.47000000000E+01 0.  1.
<mgrwt>
<rscale>  2 0.18595089E+03</rscale>
<asrwt>0</asrwt>
<pdfrwt beam="1">  1       21 0.17778193E+00 0.19021177E+03</pdfrwt>
<pdfrwt beam="2">  1       21 0.44700722E-02 0.19021177E+03</pdfrwt>
<totfact> 0.61340494E+04</totfact>
</mgrwt>
</event>
<event>
12    1  0.1473662E-001  0.2150156E+03  0.7546771E-02  0.1140071E+00
         21   -1    0    0  504  503  0.00000000000E+00  0.00000000000E+00  0.31368316495E+03  0.31368316495E+03  0.00000000000E+00 0. -1.
         21   -1    0    0  502  504 -0.00000000000E+00 -0.00000000000E+00 -0.15372319354E+03  0.15372319354E+03  0.00000000000E+00 0.  1.
          6    2    1    2  502    0  0.53690458823E+02  0.96032234562E+02  0.59133894189E+01  0.20290294230E+03  0.17038127942E+03 0.  0.
         24    2    3    3    0    0  0.57913421853E+02  0.97078034504E+02 -0.48978509790E+02  0.14763868882E+03  0.81364481197E+02 0.  0.
         -6    2    1    2    0  503 -0.53690458823E+02 -0.96032234562E+02  0.15404658199E+03  0.26450341620E+03  0.18473454553E+03 0.  0.
        -24    2    5    5    0    0 -0.90688657703E+02 -0.34351076522E+02  0.40711853105E+02  0.13018929650E+03  0.76729191621E+02 0.  0.
          2    1    4    4  501    0  0.77438005847E+02  0.63871169793E+02 -0.30479176245E+02  0.10490543963E+03  0.00000000000E+00 0. -1.
         -1    1    4    4    0  501 -0.19524583994E+02  0.33206864711E+02 -0.18499333545E+02  0.42733249182E+02  0.00000000000E+00 0.  1.
          5    1    3    3  502    0 -0.42229630301E+01 -0.10457999415E+01  0.54891899208E+02  0.55264253483E+02  0.47000000000E+01 0. -1.
         13    1    6    6    0    0 -0.68207089733E+02 -0.57502246203E+02  0.40360413388E+02  0.97916691003E+02  0.00000000000E+00 0. -1.
        -14    1    6    6    0    0 -0.22481567970E+02  0.23151169680E+02  0.35143971675E+00  0.32272605501E+02  0.00000000000E+00 0.  1.
         -5    1    5    5    0  503  0.36998198880E+02 -0.61681158040E+02  0.11333472888E+03  0.13431411969E+03  0.47000000000E+01 0.  1.
<mgrwt>
<rscale>  2 0.21189877E+03</rscale>
<asrwt>0</asrwt>
<pdfrwt beam="1">  1       21 0.48258948E-01 0.21501560E+03</pdfrwt>
<pdfrwt beam="2">  1       21 0.23649722E-01 0.21501560E+03</pdfrwt>
<totfact> 0.68377707E+04</totfact>
</mgrwt>
</event>
<event>
12    1  0.1473662E-001  0.1917219E+03  0.7546771E-02  0.1157012E+00
         21   -1    0    0  504  503  0.00000000000E+00  0.00000000000E+00  0.93591985741E+02  0.93591985741E+02  0.00000000000E+00 0. -1.
         21   -1    0    0  502  504 -0.00000000000E+00 -0.00000000000E+00 -0.43452020427E+03  0.43452020427E+03  0.00000000000E+00 0. -1.
          6    2    1    2  502    0  0.33080335629E+02 -0.73752066493E+02 -0.87905334213E+02  0.21091381237E+03  0.17384939617E+03 0.  0.
         24    2    3    3    0    0  0.57316524823E+02  0.13937224105E+02 -0.36489132372E+02  0.10630730988E+03  0.80562752673E+02 0.  0.
         -6    2    1    2    0  503 -0.33080335629E+02  0.73752066493E+02 -0.25302288431E+03  0.31719837764E+03  0.17337979949E+03 0.  0.
        -24    2    5    5    0    0 -0.44327514993E+02  0.73334556958E+02 -0.27093993549E+03  0.29552387462E+03  0.81135849035E+02 0.  0.
          4    1    4    4  501    0  0.73284677950E+02  0.44187367848E+00 -0.42287182127E+02  0.84611140205E+02  0.00000000000E+00 0. -1.
         -3    1    4    4    0  501 -0.15968153127E+02  0.13495350427E+02  0.57980497554E+01  0.21696169671E+02  0.00000000000E+00 0.  1.
          5    1    3    3  502    0 -0.24236189194E+02 -0.87689290599E+02 -0.51416201841E+02  0.10460650249E+03  0.47000000000E+01 0. -1.
         13    1    6    6    0    0 -0.19165895867E+02  0.76009150128E+02 -0.25201899552E+03  0.26392858233E+03  0.00000000000E+00 0. -1.
        -14    1    6    6    0    0 -0.25161619126E+02 -0.26745931704E+01 -0.18920939969E+02  0.31595292291E+02  0.00000000000E+00 0.  1.
         -5    1    5    5    0  503  0.11247179363E+02  0.41750953582E+00  0.17917051180E+02  0.21674503012E+02  0.47000000000E+01 0.  1.
<mgrwt>
<rscale>  2 0.19161539E+03</rscale>
<asrwt>0</asrwt>
<pdfrwt beam="1">  1       21 0.14398767E-01 0.19172190E+03</pdfrwt>
<pdfrwt beam="2">  1       21 0.66849263E-01 0.19172190E+03</pdfrwt>
<totfact> 0.86667284E+04</totfact>
</mgrwt>
</event>
<event>
12    1  0.1473662E-001  0.1871714E+03  0.7546771E-02  0.1161503E+00
         21   -1    0    0  504  503  0.00000000000E+00  0.00000000000E+00  0.43873542922E+03  0.43873542922E+03  0.00000000000E+00 0.  1.
         21   -1    0    0  502  504 -0.00000000000E+00 -0.00000000000E+00 -0.81934620723E+02  0.81934620723E+02  0.00000000000E+00 0.  1.
          6    2    1    2  502    0  0.35103032462E+02 -0.52880114006E+02  0.22679117927E+03  0.29277614648E+03  0.17393994253E+03 0.  0.
         24    2    3    3    0    0  0.14549944399E+02 -0.80601327620E+02  0.74538509183E+02  0.13659080574E+03  0.79954887060E+02 0.  0.
         -6    2    1    2    0  503 -0.35103032462E+02  0.52880114006E+02  0.13000962923E+03  0.22789390347E+03  0.17608122614E+03 0.  0.
        -24    2    5    5    0    0 -0.91238546419E+02  0.39958983856E+02  0.95278552906E+02  0.16046624450E+03  0.82159723930E+02 0.  0.
          4    1    4    4  501    0 -0.32939409555E+02 -0.27614976544E+02  0.33091750552E+02  0.54246249511E+02  0.00000000000E+00 0. -1.
         -3    1    4    4    0  501  0.47489353954E+02 -0.52986351076E+02  0.41446758631E+02  0.82344556228E+02  0.00000000000E+00 0.  1.
          5    1    3    3  502    0  0.20553088064E+02  0.27721213614E+02  0.15225267009E+03  0.15618534074E+03  0.47000000000E+01 0. -1.
         13    1    6    6    0    0 -0.13210629565E+02  0.17852945908E+02 -0.12576413527E+02  0.25522824850E+02  0.00000000000E+00 0. -1.
        -14    1    6    6    0    0 -0.78027916854E+02  0.22106037948E+02  0.10785496643E+03  0.13494341965E+03  0.00000000000E+00 0.  1.
         -5    1    5    5    0  503  0.56135513957E+02  0.12921130150E+02  0.34731076324E+02  0.67427658970E+02  0.47000000000E+01 0.  1.
<mgrwt>
<rscale>  2 0.18666610E+03</rscale>
<asrwt>0</asrwt>
<pdfrwt beam="1">  1       21 0.67497757E-01 0.18717139E+03</pdfrwt>
<pdfrwt beam="2">  1       21 0.12605327E-01 0.18717139E+03</pdfrwt>
<totfact> 0.10806669E+05</totfact>
</mgrwt>
</event>
<event>
12    1  0.1473662E-001  0.1729691E+03  0.7546771E-02  0.1176647E+00
         21   -1    0    0  504  503  0.00000000000E+00  0.00000000000E+00  0.94097809910E+02  0.94097809910E+02  0.00000000000E+00 0.  1.
         21   -1    0    0  502  504 -0.00000000000E+00 -0.00000000000E+00 -0.33828547017E+03  0.33828547017E+03  0.00000000000E+00 0. -1.
          6    2    1    2  502    0 -0.10623039812E+02  0.19366691167E+02 -0.19224638876E+03  0.25860587290E+03  0.17155292420E+03 0.  0.
         24    2    3    3    0    0 -0.36347313057E+02 -0.41689044856E+02 -0.15251796943E+03  0.18121092191E+03  0.80725235172E+02 0.  0.
         -6    2    1    2    0  503  0.10623039812E+02 -0.19366691167E+02 -0.51941271490E+02  0.17377740718E+03  0.16435563227E+03 0.  0.
        -24    2    5    5    0    0 -0.41551750483E+02 -0.31732110145E+02 -0.56601639308E+02  0.11975036435E+03  0.91667493727E+02 0.  0.
          4    1    4    4  501    0 -0.15628704036E+02 -0.63171278926E+02 -0.12343517107E+03  0.13953891331E+03  0.00000000000E+00 0. -1.
         -3    1    4    4    0  501 -0.20718609020E+02  0.21482234069E+02 -0.29082798360E+02  0.41672008600E+02  0.00000000000E+00 0.  1.
          5    1    3    3  502    0  0.25724273245E+02  0.61055736023E+02 -0.39728419333E+02  0.77394950985E+02  0.47000000000E+01 0. -1.
         11    1    6    6    0    0  0.33873648483E+01  0.29371265629E+02 -0.13404570063E+02  0.32462716828E+02  0.00000000000E+00 0. -1.
        -12    1    6    6    0    0 -0.44939115332E+02 -0.61103375775E+02 -0.43197069244E+02  0.87287647517E+02  0.00000000000E+00 0.  1.
         -5    1    5    5    0  503  0.52174790295E+02  0.12365418978E+02  0.46603678172E+01  0.54027042831E+02  0.47000000000E+01 0.  1.
<mgrwt>
<rscale>  2 0.17115690E+03</rscale>
<asrwt>0</asrwt>
<pdfrwt beam="1">  1       21 0.14476586E-01 0.17296914E+03</pdfrwt>
<pdfrwt beam="2">  1       21 0.52043919E-01 0.17296914E+03</pdfrwt>
<totfact> 0.14759720E+05</totfact>
</mgrwt>
</event>
<event>
12    1  0.1473662E-001  0.1887591E+03  0.7546771E-02  0.1159719E+00
         21   -1    0    0  504  503  0.00000000000E+00  0.00000000000E+00  0.10070812734E+03  0.10070812734E+03  0.00000000000E+00 0.  1.
         21   -1    0    0  502  504 -0.00000000000E+00 -0.00000000000E+00 -0.41047764359E+03  0.41047764359E+03  0.00000000000E+00 0.  1.
          6    2    1    2  502    0 -0.63215131683E+02 -0.39005261488E+02 -0.25098506445E+03  0.31404377199E+03  0.17352931985E+03 0.  0.
         24    2    3    3    0    0  0.13579355313E+02 -0.69419658097E+02 -0.13266450882E+03  0.16966831479E+03  0.78638268825E+02 0.  0.
         -6    2    1    2    0  503  0.63215131683E+02  0.39005261488E+02 -0.58784451798E+02  0.19714199895E+03  0.17289243094E+03 0.  0.
        -24    2    5    5    0    0  0.30888457379E+01  0.10485955514E+02  0.30373797387E+02  0.85787589637E+02  0.79482367460E+02 0.  0.
          2    1    4    4  501    0  0.86403766704E+01 -0.18517313347E-01  0.86051182199E+01  0.12194445927E+02  0.00000000000E+00 0. -1.
         -1    1    4    4    0  501  0.49389786428E+01 -0.69401140783E+02 -0.14126962704E+03  0.15747386887E+03  0.00000000000E+00 0.  1.
          5    1    3    3  502    0 -0.76794486997E+02  0.30414396609E+02 -0.11832055563E+03  0.14437545719E+03  0.47000000000E+01 0. -1.
         13    1    6    6    0    0 -0.21588540332E+02 -0.18030158223E+02 -0.10639064247E+02  0.30072269074E+02  0.00000000000E+00 0. -1.
        -14    1    6    6    0    0  0.24677386070E+02  0.28516113738E+02  0.41012861635E+02  0.55715320563E+02  0.00000000000E+00 0.  1.
         -5    1    5    5    0  503  0.60126285945E+02  0.28519305974E+02 -0.89158249186E+02  0.11135440931E+03  0.47000000000E+01 0.  1.
<mgrwt>
<rscale>  2 0.18861257E+03</rscale>
<asrwt>0</asrwt>
<pdfrwt beam="1">  1       21 0.15493558E-01 0.18875907E+03</pdfrwt>
<pdfrwt beam="2">  1       21 0.63150406E-01 0.18875907E+03</pdfrwt>
<totfact> 0.85946003E+04</totfact>
</mgrwt>
</event>
<event>
12    1  0.1473662E-001  0.2051047E+03  0.7546771E-02  0.1145506E+00
         21   -1    0    0  504  503  0.00000000000E+00  0.00000000000E+00  0.98500113689E+02  0.98500113689E+02  0.00000000000E+00 0. -1.
         21   -1    0    0  502  504 -0.00000000000E+00 -0.00000000000E+00 -0.86177798366E+03  0.86177798366E+03  0.00000000000E+00 0. -1.
          6    2    1    2  502    0  0.45328729021E+02  0.99730242980E+02 -0.72266953585E+03  0.75121180682E+03  0.17339868977E+03 0.  0.
         24    2    3    3    0    0 -0.23277405635E+02  0.18580732846E+01 -0.37892427932E+03  0.38724937098E+03  0.76375230384E+02 0.  0.
         -6    2    1    2    0  503 -0.45328729021E+02 -0.99730242980E+02 -0.40608334113E+02  0.20906629052E+03  0.17337491743E+03 0.  0.
        -24    2    5    5    0    0 -0.79754065398E+02 -0.23706632026E+02 -0.43480126882E+02  0.12542999218E+03  0.83183208371E+02 0.  0.
          2    1    4    4  501    0  0.85461690391E+01  0.22893571664E+02 -0.28247543503E+03  0.28353046401E+03  0.00000000000E+00 0. -1.
         -1    1    4    4    0  501 -0.31823574674E+02 -0.21035498380E+02 -0.96448844291E+02  0.10371890697E+03  0.00000000000E+00 0.  1.
          5    1    3    3  502    0  0.68606134656E+02  0.97872169696E+02 -0.34374525653E+03  0.36396243584E+03  0.47000000000E+01 0. -1.
         11    1    6    6    0    0 -0.55783210257E+01 -0.30127327802E+02  0.11658602076E+02  0.32782564700E+02  0.00000000000E+00 0. -1.
        -12    1    6    6    0    0 -0.74175744372E+02  0.64206957759E+01 -0.55138728958E+02  0.92647427479E+02  0.00000000000E+00 0.  1.
         -5    1    5    5    0  503  0.34425336377E+02 -0.76023610955E+02  0.28717927683E+01  0.83636298345E+02  0.47000000000E+01 0.  1.
<mgrwt>
<rscale>  2 0.20509963E+03</rscale>
<asrwt>0</asrwt>
<pdfrwt beam="1">  1       21 0.15153864E-01 0.20510466E+03</pdfrwt>
<pdfrwt beam="2">  1       21 0.13258123E+00 0.20510466E+03</pdfrwt>
<totfact> 0.15703865E+04</totfact>
</mgrwt>
</event>
<event>
12    1  0.1473662E-001  0.2319735E+03  0.7546771E-02  0.1125425E+00
         21   -1    0    0  504  503  0.00000000000E+00  0.00000000000E+00  0.14138617014E+03  0.14138617014E+03  0.00000000000E+00 0.  1.
         21   -1    0    0  502  504 -0.00000000000E+00 -0.00000000000E+00 -0.39007428475E+03  0.39007428475E+03  0.00000000000E+00 0. -1.
          6    2    1    2  502    0  0.12915948088E+03 -0.81078952824E+02 -0.79884911890E+02  0.24534323238E+03  0.17480198636E+03 0.  0.
         24    2    3    3    0    0  0.30979114603E+02 -0.16390962431E+02 -0.94079599075E+02  0.12682108437E+03  0.77487078205E+02 0.  0.
         -6    2    1    2    0  503 -0.12915948088E+03  0.81078952824E+02 -0.16880320272E+03  0.28611722252E+03  0.17352975446E+03 0.  0.
        -24    2    5    5    0    0 -0.10589097206E+03  0.10313562011E+03 -0.69082932009E+02  0.18126426613E+03  0.78958397781E+02 0.  0.
          2    1    4    4  501    0  0.25123050872E+02 -0.24121706167E+02 -0.10592960891E+03  0.11150832452E+03  0.00000000000E+00 0. -1.
         -1    1    4    4    0  501  0.58560637306E+01  0.77307437351E+01  0.11850009838E+02  0.15312759851E+02  0.00000000000E+00 0.  1.
          5    1    3    3  502    0  0.98180366273E+02 -0.64687990392E+02  0.14194687186E+02  0.11852214800E+03  0.47000000000E+01 0. -1.
         13    1    6    6    0    0 -0.49331765763E+02  0.77704769833E+02 -0.75328442129E+02  0.11893707816E+03  0.00000000000E+00 0. -1.
        -14    1    6    6    0    0 -0.56559206299E+02  0.25430850274E+02  0.62455101206E+01  0.62327187964E+02  0.00000000000E+00 0.  1.
         -5    1    5    5    0  503 -0.23268508813E+02 -0.22056667283E+02 -0.99720270713E+02  0.10485295640E+03  0.47000000000E+01 0.  1.
<mgrwt>
<rscale>  2 0.23173383E+03</rscale>
<asrwt>0</asrwt>
<pdfrwt beam="1">  1       21 0.21751719E-01 0.23197350E+03</pdfrwt>
<pdfrwt beam="2">  1       21 0.60011428E-01 0.23197350E+03</pdfrwt>
<totfact> 0.50153060E+04</totfact>
</mgrwt>
</event>
<event>
12    1  0.1473662E-001  0.2260296E+03  0.7546771E-02  0.1130062E+00
         21   -1    0    0  504  503  0.00000000000E+00  0.00000000000E+00  0.16400004368E+04  0.16400004368E+04  0.00000000000E+00 0. -1.
         21   -1    0    0  502  504 -0.00000000000E+00 -0.00000000000E+00 -0.19141475863E+03  0.19141475863E+03  0.00000000000E+00 0. -1.
          6    2    1    2  502    0 -0.14533907682E+03 -0.28178536424E+02 -0.11391824798E+03  0.25311412741E+03  0.17079788379E+03 0.  0.
         24    2    3    3    0    0 -0.28645374284E+02 -0.29115794821E+02  0.18353124868E+01  0.88677892276E+02  0.78689981769E+02 0.  0.
         -6    2    1    2    0  503  0.14533907682E+03  0.28178536424E+02  0.15625039261E+04  0.15783010680E+04  0.16642795712E+03 0.  0.
        -24    2    5    5    0    0  0.15366224309E+02 -0.11439421166E+02  0.45723082319E+03  0.46469734717E+03  0.80725569614E+02 0.  0.
          2    1    4    4  501    0 -0.53640932203E+01 -0.49241193468E+02  0.19455447470E+02  0.53216379682E+02  0.00000000000E+00 0. -1.
         -1    1    4    4    0  501 -0.23281281064E+02  0.20125398647E+02 -0.17620134983E+02  0.35461512594E+02  0.00000000000E+00 0.  1.
          5    1    3    3  502    0 -0.11669370254E+03  0.93725839698E+00 -0.11575356046E+03  0.16443623514E+03  0.47000000000E+01 0. -1.
         13    1    6    6    0    0  0.29681067837E+02  0.99590606256E+01  0.40747059921E+03  0.40867155259E+03  0.00000000000E+00 0. -1.
        -14    1    6    6    0    0 -0.14314843528E+02 -0.21398481792E+02  0.49760223986E+02  0.56025794589E+02  0.00000000000E+00 0.  1.
         -5    1    5    5    0  503  0.12997285252E+03  0.39617957590E+02  0.11052731029E+04  0.11136037208E+04  0.47000000000E+01 0.  1.
<mgrwt>
<rscale>  2 0.22520419E+03</rscale>
<asrwt>0</asrwt>
<pdfrwt beam="1">  1       21 0.25230775E+00 0.22602963E+03</pdfrwt>
<pdfrwt beam="2">  1       21 0.29448425E-01 0.22602963E+03</pdfrwt>
<totfact> 0.68399166E+02</totfact>
</mgrwt>
</event>
<event>
12    1  0.1473662E-001  0.2244574E+03  0.7546771E-02  0.1131934E+00
         21   -1    0    0  504  503  0.00000000000E+00  0.00000000000E+00  0.15284159919E+03  0.15284159919E+03  0.00000000000E+00 0.  1.
         21   -1    0    0  502  504 -0.00000000000E+00 -0.00000000000E+00 -0.32300364187E+03  0.32300364187E+03  0.00000000000E+00 0. -1.
          6    2    1    2  502    0 -0.10903331597E+03  0.94421268394E+02 -0.60428217170E+02  0.23244937850E+03  0.17198111588E+03 0.  0.
         24    2    3    3    0    0 -0.57119314188E+02  0.10926035145E+03 -0.88141504466E+02  0.17157756023E+03  0.80433164254E+02 0.  0.
         -6    2    1    2    0  503  0.10903331597E+03 -0.94421268394E+02 -0.10973382551E+03  0.24339586257E+03  0.16246966959E+03 0.  0.
        -24    2    5    5    0    0  0.67414027023E+02 -0.12660959349E+03 -0.92932008991E+02  0.18796442272E+03  0.78228036592E+02 0.  0.
          2    1    4    4  501    0 -0.67734700540E+02  0.75812129496E+02 -0.90902008652E+02  0.13637684486E+03  0.00000000000E+00 0. -1.
         -1    1    4    4    0  501  0.10615386352E+02  0.33448221954E+02  0.27605041866E+01  0.35200715372E+02  0.00000000000E+00 0.  1.
          5    1    3    3  502    0 -0.51914001785E+02 -0.14839083056E+02  0.27713287296E+02  0.60871818275E+02  0.47000000000E+01 0. -1.
         13    1    6    6    0    0  0.12382656764E+02 -0.14541897578E+02 -0.53854930686E+02  0.57141495719E+02  0.00000000000E+00 0. -1.
        -14    1    6    6    0    0  0.55031370259E+02 -0.11206769591E+03 -0.39077078305E+02  0.13082292700E+03  0.00000000000E+00 0.  1.
         -5    1    5    5    0  503  0.41619288950E+02  0.32188325096E+02 -0.16801816519E+02  0.55431439847E+02  0.47000000000E+01 0.  1.
<mgrwt>
<rscale>  2 0.22263493E+03</rscale>
<asrwt>0</asrwt>
<pdfrwt beam="1">  1       21 0.23514092E-01 0.22445744E+03</pdfrwt>
<pdfrwt beam="2">  1       21 0.49692868E-01 0.22445744E+03</pdfrwt>
<totfact> 0.64779043E+04</totfact>
</mgrwt>
</event>
<event>
12    1  0.1473662E-001  0.2757080E+03  0.7546771E-02  0.1098136E+00
         21   -1    0    0  504  503  0.00000000000E+00  0.00000000000E+00  0.18109820874E+03  0.18109820874E+03  0.00000000000E+00 0. -1.
         21   -1    0    0  502  504 -0.00000000000E+00 -0.00000000000E+00 -0.58207511083E+03  0.58207511083E+03  0.00000000000E+00 0. -1.
          6    2    1    2  502    0 -0.70162294417E+02 -0.20289487782E+03 -0.40239206483E+03  0.48746165105E+03  0.17207675148E+03 0.  0.
         24    2    3    3    0    0 -0.11024330638E+03 -0.17054857081E+03 -0.28383357301E+03  0.35811337282E+03  0.80270100412E+02 0.  0.
         -6    2    1    2    0  503  0.70162294417E+02  0.20289487782E+03  0.14151627474E+01  0.27571166852E+03  0.17299087394E+03 0.  0.
        -24    2    5    5    0    0  0.91487515651E+02  0.11232873771E+03  0.45494485042E+02  0.17264825382E+03  0.82158143495E+02 0.  0.
          4    1    4    4  501    0 -0.47901625481E+02 -0.82559655883E+02 -0.19970458961E+03  0.22134268819E+03  0.00000000000E+00 0. -1.
         -3    1    4    4    0  501 -0.62341680898E+02 -0.87988914923E+02 -0.84128983396E+02  0.13677068463E+03  0.00000000000E+00 0.  1.
          5    1    3    3  502    0  0.40081011962E+02 -0.32346307019E+02 -0.11855849182E+03  0.12934827823E+03  0.47000000000E+01 0. -1.
         13    1    6    6    0    0  0.26007726506E+02  0.83493786894E+02 -0.75506582489E+00  0.87453898783E+02  0.00000000000E+00 0. -1.
        -14    1    6    6    0    0  0.65479789145E+02  0.28834950819E+02  0.46249550867E+02  0.85194355040E+02  0.00000000000E+00 0.  1.
         -5    1    5    5    0  503 -0.21325221234E+02  0.90566140111E+02 -0.44079322295E+02  0.10306341470E+03  0.47000000000E+01 0.  1.
<mgrwt>
<rscale>  2 0.27556477E+03</rscale>
<asrwt>0</asrwt>
<pdfrwt beam="1">  1       21 0.27861263E-01 0.27570804E+03</pdfrwt>
<pdfrwt beam="2">  1       21 0.89550018E-01 0.27570804E+03</pdfrwt>
<totfact> 0.12462749E+04</totfact>
</mgrwt>
</event>
<event>
12    1  0.1473662E-001  0.2552443E+03  0.7546771E-02  0.1110565E+00
         21   -1    0    0  504  503  0.00000000000E+00  0.00000000000E+00  0.17436172278E+03  0.17436172278E+03  0.00000000000E+00 0. -1.
         21   -1    0    0  502  504 -0.00000000000E+00 -0.00000000000E+00 -0.46851630862E+03  0.46851630862E+03  0.00000000000E+00 0. -1.
          6    2    1    2  502    0  0.65101293687E+02  0.17458860488E+03 -0.29469316153E+03  0.38763315832E+03  0.16939907491E+03 0.  0.
         24    2    3    3    0    0  0.13889896373E+01  0.26433604812E+02 -0.67506210410E+02  0.10898434261E+03  0.81362360680E+02 0.  0.
         -6    2    1    2    0  503 -0.65101293687E+02 -0.17458860488E+03  0.53857569603E+00  0.25524487308E+03  0.17444281520E+03 0.  0.
        -24    2    5    5    0    0 -0.50493085413E+02 -0.16723008208E+02  0.92090721395E+01  0.96398362667E+02  0.79866304768E+02 0.  0.
          4    1    4    4  501    0  0.31250609737E+02  0.17536215758E+02 -0.13528345626E+01  0.35860139897E+02  0.00000000000E+00 0. -1.
         -3    1    4    4    0  501 -0.29861620100E+02  0.88973890543E+01 -0.66153375847E+02  0.73124202717E+02  0.00000000000E+00 0.  1.
          5    1    3    3  502    0  0.63712304050E+02  0.14815500007E+03 -0.22718695112E+03  0.27864881570E+03  0.47000000000E+01 0. -1.
         11    1    6    6    0    0 -0.33795430593E+02 -0.45565173447E+02  0.21796775232E+02  0.60773477527E+02  0.00000000000E+00 0. -1.
        -12    1    6    6    0    0 -0.16697654820E+02  0.28842165238E+02 -0.12587703093E+02  0.35624885141E+02  0.00000000000E+00 0.  1.
         -5    1    5    5    0  503 -0.14608208274E+02 -0.15786559668E+03 -0.86704964435E+01  0.15884651042E+03  0.47000000000E+01 0.  1.
<mgrwt>
<rscale>  2 0.25438494E+03</rscale>
<asrwt>0</asrwt>
<pdfrwt beam="1">  1       21 0.26824880E-01 0.25524430E+03</pdfrwt>
<pdfrwt beam="2">  1       21 0.72079432E-01 0.25524430E+03</pdfrwt>
<totfact> 0.22231793E+04</totfact>
</mgrwt>
</event>
<event>
12    1  0.1473662E-001  0.2372786E+03  0.7546771E-02  0.1122077E+00
         21   -1    0    0  504  503  0.00000000000E+00  0.00000000000E+00  0.95597230506E+03  0.95597230506E+03  0.00000000000E+00 0. -1.
         21   -1    0    0  502  504 -0.00000000000E+00 -0.00000000000E+00 -0.16224643813E+03  0.16224643813E+03  0.00000000000E+00 0. -1.
          6    2    1    2  502    0 -0.11626868923E+03 -0.11306140338E+03 -0.49998313679E+02  0.24248914042E+03  0.17320468476E+03 0.  0.
         24    2    3    3    0    0 -0.21147993098E+02 -0.30138714061E+02  0.28775445484E+02  0.93655292224E+02  0.81164695535E+02 0.  0.
         -6    2    1    2    0  503  0.11626868923E+03  0.11306140338E+03  0.84372418060E+03  0.87572960278E+03  0.16950090034E+03 0.  0.
        -24    2    5    5    0    0  0.92134417842E+02  0.38787273211E+02  0.29665426121E+03  0.32309346917E+03  0.79952708579E+02 0.  0.
          4    1    4    4  501    0  0.25192117068E+02 -0.16517706997E+02 -0.99736761157E+01  0.31732501037E+02  0.00000000000E+00 0. -1.
         -3    1    4    4    0  501 -0.46340110166E+02 -0.13621007064E+02  0.38749121600E+02  0.61922791187E+02  0.00000000000E+00 0.  1.
          5    1    3    3  502    0 -0.95120696130E+02 -0.82922689315E+02 -0.78773759163E+02  0.14883384819E+03  0.47000000000E+01 0. -1.
         13    1    6    6    0    0  0.63442476731E+02  0.60757601653E+02  0.16958682247E+03  0.19098723614E+03  0.00000000000E+00 0. -1.
        -14    1    6    6    0    0  0.28691941111E+02 -0.21970328442E+02  0.12706743875E+03  0.13210623303E+03  0.00000000000E+00 0.  1.
         -5    1    5    5    0  503  0.24134271386E+02  0.74274130165E+02  0.54706991939E+03  0.55263613361E+03  0.47000000000E+01 0.  1.
<mgrwt>
<rscale>  2 0.23660327E+03</rscale>
<asrwt>0</asrwt>
<pdfrwt beam="1">  1       21 0.14707266E+00 0.23727864E+03</pdfrwt>
<pdfrwt beam="2">  1       21 0.24960991E-01 0.23727864E+03</pdfrwt>
<totfact> 0.46172360E+03</totfact>
</mgrwt>
</event>
<event>
12    1  0.1473662E-001  0.2922081E+03  0.7546771E-02  0.1089205E+00
         21   -1    0    0  504  503  0.00000000000E+00  0.00000000000E+00  0.24010104943E+03  0.24010104943E+03  0.00000000000E+00 0.  1.
         21   -1    0    0  502  504 -0.00000000000E+00 -0.00000000000E+00 -0.36194770593E+03  0.36194770593E+03  0.00000000000E+00 0.  1.
          6    2    1    2  502    0  0.12395362647E+03 -0.19989954941E+03 -0.10080367485E+03  0.30908393134E+03  0.17334117911E+03 0.  0.
         24    2    3    3    0    0  0.10487139521E+03 -0.57809583210E+02 -0.21972701532E+02  0.14540710830E+03  0.79501384187E+02 0.  0.
         -6    2    1    2    0  503 -0.12395362647E+03  0.19989954941E+03 -0.21042981648E+02  0.29296482402E+03  0.17338180316E+03 0.  0.
        -24    2    5    5    0    0 -0.50811192288E+02  0.71649010659E+02 -0.68921392924E+02  0.13768298788E+03  0.80567293357E+02 0.  0.
          4    1    4    4  501    0  0.87869333411E+02 -0.11063553869E+02  0.52214218592E+01  0.88716882410E+02  0.00000000000E+00 0. -1.
         -3    1    4    4    0  501  0.17002061799E+02 -0.46746029341E+02 -0.27194123391E+02  0.56690225891E+02  0.00000000000E+00 0.  1.
          5    1    3    3  502    0  0.19082231263E+02 -0.14208996620E+03 -0.78830973318E+02  0.16367682304E+03  0.47000000000E+01 0. -1.
         13    1    6    6    0    0 -0.73245886310E+00 -0.10252476768E+02 -0.34016688614E+02  0.35535684602E+02  0.00000000000E+00 0. -1.
        -14    1    6    6    0    0 -0.50078733425E+02  0.81901487427E+02 -0.34904704311E+02  0.10214730328E+03  0.00000000000E+00 0.  1.
         -5    1    5    5    0  503 -0.73142434186E+02  0.12825053875E+03  0.47878411277E+02  0.15528183614E+03  0.47000000000E+01 0.  1.
<mgrwt>
<rscale>  2 0.29220209E+03</rscale>
<asrwt>0</asrwt>
<pdfrwt beam="1">  1       21 0.36938623E-01 0.29220811E+03</pdfrwt>
<pdfrwt beam="2">  1       21 0.55684262E-01 0.29220811E+03</pdfrwt>
<totfact> 0.20437695E+04</totfact>
</mgrwt>
</event>
<event>
12    1  0.1473662E-001  0.1984274E+03  0.7546771E-02  0.1153719E+00
         21   -1    0    0  504  503  0.00000000000E+00  0.00000000000E+00  0.74320419233E+02  0.74320419233E+02  0.00000000000E+00 0. -1.
         21   -1    0    0  502  504 -0.00000000000E+00 -0.00000000000E+00 -0.83771574950E+03  0.83771574950E+03  0.00000000000E+00 0. -1.
          6    2    1    2  502    0 -0.44441155782E+02 -0.46845271190E+02 -0.66484136386E+03  0.69048182400E+03  0.17487599727E+03 0.  0.
         24    2    3    3    0    0 -0.63941471969E+01  0.36914346580E+02 -0.28941790033E+03  0.30392249428E+03  0.84868176571E+02 0.  0.
         -6    2    1    2    0  503  0.44441155782E+02  0.46845271190E+02 -0.98553966406E+02  0.22155434473E+03  0.18762715052E+03 0.  0.
        -24    2    5    5    0    0 -0.17858606286E+02  0.65602599827E+02 -0.23635514740E+00  0.10356476716E+03  0.78121534867E+02 0.  0.
          4    1    4    4  501    0 -0.15071019188E+02  0.56178016486E+02 -0.12176704144E+03  0.13494560955E+03  0.00000000000E+00 0. -1.
         -3    1    4    4    0  501  0.86768719908E+01 -0.19263669906E+02 -0.16765085889E+03  0.16897688473E+03  0.00000000000E+00 0.  1.
          5    1    3    3  502    0 -0.38047008586E+02 -0.83759617769E+02 -0.37542346352E+03  0.38655932972E+03  0.47000000000E+01 0. -1.
         11    1    6    6    0    0  0.14246895865E+02  0.59998427188E+02  0.20442810275E+02  0.64966866931E+02  0.00000000000E+00 0. -1.
        -12    1    6    6    0    0 -0.32105502151E+02  0.56041726392E+01 -0.20679165422E+02  0.38597900226E+02  0.00000000000E+00 0.  1.
         -5    1    5    5    0  503  0.62299762068E+02 -0.18757328638E+02 -0.98317611259E+02  0.11798957757E+03  0.47000000000E+01 0.  1.
<mgrwt>
<rscale>  2 0.19535402E+03</rscale>
<asrwt>0</asrwt>
<pdfrwt beam="1">  1       21 0.11433910E-01 0.19842743E+03</pdfrwt>
<pdfrwt beam="2">  1       21 0.12887935E+00 0.19842743E+03</pdfrwt>
<totfact> 0.28162771E+04</totfact>
</mgrwt>
</event>
<event>
12    1  0.1473662E-001  0.2898808E+03  0.7546771E-02  0.1090427E+00
         21   -1    0    0  504  503  0.00000000000E+00  0.00000000000E+00  0.29596609942E+03  0.29596609942E+03  0.00000000000E+00 0. -1.
         21   -1    0    0  502  504 -0.00000000000E+00 -0.00000000000E+00 -0.42898016766E+03  0.42898016766E+03  0.00000000000E+00 0. -1.
          6    2    1    2  502    0  0.21219766140E+03 -0.95582459646E+02 -0.27738269520E+03  0.40121320553E+03  0.17282078174E+03 0.  0.
         24    2    3    3    0    0  0.55989429753E+02 -0.71630151623E+02 -0.63255912601E+02  0.13504203181E+03  0.77261536424E+02 0.  0.
         -6    2    1    2    0  503 -0.21219766140E+03  0.95582459646E+02  0.14436862697E+03  0.32373306154E+03  0.17261790344E+03 0.  0.
        -24    2    5    5    0    0 -0.23136437069E+03  0.71756923323E+02  0.10990223110E+03  0.27741847021E+03  0.78765342277E+02 0.  0.
          4    1    4    4  501    0  0.12302065230E+02 -0.59937607128E+02 -0.65663821328E+02  0.89752966461E+02  0.00000000000E+00 0. -1.
         -3    1    4    4    0  501  0.43687364523E+02 -0.11692544495E+02  0.24079087267E+01  0.45289065349E+02  0.00000000000E+00 0.  1.
          5    1    3    3  502    0  0.15620823165E+03 -0.23952308023E+02 -0.21412678260E+03  0.26617117372E+03  0.47000000000E+01 0. -1.
         13    1    6    6    0    0 -0.14293568617E+03  0.75872032673E+02  0.94998383882E+02  0.18764825782E+03  0.00000000000E+00 0. -1.
        -14    1    6    6    0    0 -0.88428684523E+02 -0.41151093494E+01  0.14903847222E+02  0.89770212395E+02  0.00000000000E+00 0.  1.
         -5    1    5    5    0  503  0.19166709290E+02  0.23825536323E+02  0.34466395864E+02  0.46314591329E+02  0.47000000000E+01 0.  1.
<mgrwt>
<rscale>  2 0.28985057E+03</rscale>
<asrwt>0</asrwt>
<pdfrwt beam="1">  1       21 0.45533246E-01 0.28988080E+03</pdfrwt>
<pdfrwt beam="2">  1       21 0.65996949E-01 0.28988080E+03</pdfrwt>
<totfact> 0.92147519E+03</totfact>
</mgrwt>
</event>
<event>
12    1  0.1473662E-001  0.2414767E+03  0.7546771E-02  0.1119030E+00
         21   -1    0    0  504  503  0.00000000000E+00  0.00000000000E+00  0.13160896530E+04  0.13160896530E+04  0.00000000000E+00 0.  1.
         21   -1    0    0  502  504 -0.00000000000E+00 -0.00000000000E+00 -0.49575309075E+02  0.49575309075E+02  0.00000000000E+00 0.  1.
          6    2    1    2  502    0  0.12004203171E+03  0.11609761605E+03  0.85934432360E+03  0.89227462445E+03  0.17260531020E+03 0.  0.
         24    2    3    3    0    0  0.10002179135E+02  0.27138611478E+02  0.47614469716E+03  0.48375716172E+03  0.80440481508E+02 0.  0.
         -6    2    1    2    0  503 -0.12004203171E+03 -0.11609761605E+03  0.40717002030E+03  0.47339033759E+03  0.17441972499E+03 0.  0.
        -24    2    5    5    0    0 -0.18309931097E+02 -0.88798971184E+02  0.29607326980E+03  0.32022632655E+03  0.81639501874E+02 0.  0.
          4    1    4    4  501    0  0.26957498643E+02  0.11120644755E+01  0.52984194723E+02  0.59458122329E+02  0.00000000000E+00 0. -1.
         -3    1    4    4    0  501 -0.16955319508E+02  0.26026547002E+02  0.42316050244E+03  0.42429903940E+03  0.00000000000E+00 0.  1.
          5    1    3    3  502    0  0.11003985258E+03  0.88959004577E+02  0.38319962644E+03  0.40851746273E+03  0.47000000000E+01 0. -1.
         11    1    6    6    0    0  0.27857009835E+02 -0.82886547271E+01  0.77184203709E+02  0.82474942233E+02  0.00000000000E+00 0. -1.
        -12    1    6    6    0    0 -0.46166940932E+02 -0.80510316457E+02  0.21888906609E+03  0.23775138432E+03  0.00000000000E+00 0.  1.
         -5    1    5    5    0  503 -0.10173210062E+03 -0.27298644871E+02  0.11109675050E+03  0.15316401104E+03  0.47000000000E+01 0.  1.
<mgrwt>
<rscale>  2 0.24114919E+03</rscale>
<asrwt>0</asrwt>
<pdfrwt beam="1">  1       21 0.20247531E+00 0.24147668E+03</pdfrwt>
<pdfrwt beam="2">  1       21 0.76269716E-02 0.24147668E+03</pdfrwt>
<totfact> 0.16292711E+04</totfact>
</mgrwt>
</event>
<event>
12    1  0.1473662E-001  0.3535901E+03  0.7546771E-02  0.1061885E+00
         21   -1    0    0  504  503  0.00000000000E+00  0.00000000000E+00  0.26972716080E+03  0.26972716080E+03  0.00000000000E+00 0.  1.
         21   -1    0    0  502  504 -0.00000000000E+00 -0.00000000000E+00 -0.46526243997E+03  0.46526243997E+03  0.00000000000E+00 0. -1.
          6    2    1    2  502    0 -0.27109588100E+03 -0.13057846640E+03 -0.15351053636E+03  0.37891086351E+03  0.17165152237E+03 0.  0.
         24    2    3    3    0    0 -0.95371746147E+02 -0.45270628695E+02 -0.10760525218E+02  0.13692728055E+03  0.86533759134E+02 0.  0.
         -6    2    1    2    0  503  0.27109588100E+03  0.13057846640E+03 -0.42024742811E+02  0.35607873726E+03  0.18569403743E+03 0.  0.
        -24    2    5    5    0    0  0.25602839662E+03  0.63444467715E+02 -0.55098630491E+02  0.28588600684E+03  0.95494552017E+02 0.  0.
          4    1    4    4  501    0 -0.29425735299E+01 -0.14246360034E+02  0.28361005314E+02  0.31874192313E+02  0.00000000000E+00 0. -1.
         -3    1    4    4    0  501 -0.92429172618E+02 -0.31024268661E+02 -0.39121530532E+02  0.10505308824E+03  0.00000000000E+00 0.  1.
          5    1    3    3  502    0 -0.17572413485E+03 -0.85307837702E+02 -0.14275001114E+03  0.24198358296E+03  0.47000000000E+01 0. -1.
         13    1    6    6    0    0  0.34704786852E+02 -0.22860579724E+02  0.18532895520E+01  0.41598834333E+02  0.00000000000E+00 0. -1.
        -14    1    6    6    0    0  0.22132360977E+03  0.86305047438E+02 -0.56951920043E+02  0.24428717250E+03  0.00000000000E+00 0.  1.
         -5    1    5    5    0  503  0.15067484380E+02  0.67133998682E+02  0.13073887680E+02  0.70192730419E+02  0.47000000000E+01 0.  1.
<mgrwt>
<rscale>  2 0.35178423E+03</rscale>
<asrwt>0</asrwt>
<pdfrwt beam="1">  1       21 0.41496486E-01 0.35359014E+03</pdfrwt>
<pdfrwt beam="2">  1       21 0.71578837E-01 0.35359014E+03</pdfrwt>
<totfact> 0.90686349E+03</totfact>
</mgrwt>
</event>
<event>
12    1  0.1473662E-001  0.2268200E+03  0.7546771E-02  0.1128958E+00
         21   -1    0    0  504  503  0.00000000000E+00  0.00000000000E+00  0.22777898457E+03  0.22777898457E+03  0.00000000000E+00 0. -1.
         21   -1    0    0  502  504 -0.00000000000E+00 -0.00000000000E+00 -0.28471731622E+03  0.28471731622E+03  0.00000000000E+00 0.  1.
          6    2    1    2  502    0  0.13250647567E+03  0.61342032555E+02 -0.14528541340E+03  0.26907790706E+03  0.17313075309E+03 0.  0.
         24    2    3    3    0    0  0.57098847160E+02  0.29476690489E+02 -0.15564665238E+03  0.18642710103E+03  0.80000187340E+02 0.  0.
         -6    2    1    2    0  503 -0.13250647567E+03 -0.61342032555E+02  0.88347081752E+02  0.24341839373E+03  0.17356986057E+03 0.  0.
        -24    2    5    5    0    0 -0.15777794725E+03 -0.58938121189E+02  0.10270375310E+03  0.21387808097E+03  0.82632861822E+02 0.  0.
          2    1    4    4  501    0 -0.19680112796E+01  0.26579622693E+02 -0.10573372539E+03  0.10904113946E+03  0.00000000000E+00 0. -1.
         -1    1    4    4    0  501  0.59066858440E+02  0.28970677962E+01 -0.49912926992E+02  0.77385961574E+02  0.00000000000E+00 0.  1.
          5    1    3    3  502    0  0.75407628513E+02  0.31865342066E+02  0.10361238975E+02  0.82650806022E+02  0.47000000000E+01 0. -1.
         13    1    6    6    0    0 -0.10615560705E+03 -0.49727952699E+02  0.11021987723E+03  0.16090464109E+03  0.00000000000E+00 0. -1.
        -14    1    6    6    0    0 -0.51622340203E+02 -0.92101684907E+01 -0.75161241274E+01  0.52973439888E+02  0.00000000000E+00 0.  1.
         -5    1    5    5    0  503  0.25271471575E+02 -0.24039113660E+01 -0.14356671350E+02  0.29540312755E+02  0.47000000000E+01 0.  1.
<mgrwt>
<rscale>  2 0.22673598E+03</rscale>
<asrwt>0</asrwt>
<pdfrwt beam="1">  1       21 0.35042921E-01 0.22681999E+03</pdfrwt>
<pdfrwt beam="2">  1       21 0.43802664E-01 0.22681999E+03</pdfrwt>
<totfact> 0.38652549E+04</totfact>
</mgrwt>
</event>
<event>
12    1  0.1473662E-001  0.1786020E+03  0.7546771E-02  0.1169897E+00
         21   -1    0    0  504  503  0.00000000000E+00  0.00000000000E+00  0.80712515548E+02  0.80712515548E+02  0.00000000000E+00 0. -1.
         21   -1    0    0  502  504 -0.00000000000E+00 -0.00000000000E+00 -0.44149088687E+03  0.44149088687E+03  0.00000000000E+00 0. -1.
          6    2    1    2  502    0  0.18683342566E+02  0.38926699302E+02 -0.27204977538E+03  0.32543776685E+03  0.17330408131E+03 0.  0.
         24    2    3    3    0    0  0.39363846384E+02  0.28643980020E+02 -0.61613271659E+02  0.11368548315E+03  0.82208295449E+02 0.  0.
         -6    2    1    2    0  503 -0.18683342566E+02 -0.38926699302E+02 -0.88728595943E+02  0.19676563557E+03  0.17023394607E+03 0.  0.
        -24    2    5    5    0    0  0.35126804167E+02  0.14127794527E+02 -0.79416392851E+02  0.12048248977E+03  0.82313910966E+02 0.  0.
          4    1    4    4  501    0  0.53712390604E+02 -0.83934541524E+01 -0.25682054377E+02  0.60125193505E+02  0.00000000000E+00 0. -1.
         -3    1    4    4    0  501 -0.14348544220E+02  0.37037434172E+02 -0.35931217282E+02  0.53560289643E+02  0.00000000000E+00 0.  1.
          5    1    3    3  502    0 -0.20680503818E+02  0.10282719282E+02 -0.21043650372E+03  0.21175228370E+03  0.47000000000E+01 0. -1.
         11    1    6    6    0    0 -0.14306414908E+02  0.26793407811E+02 -0.57327681570E+02  0.64876985779E+02  0.00000000000E+00 0. -1.
        -12    1    6    6    0    0  0.49433219075E+02 -0.12665613284E+02 -0.22088711281E+02  0.55605503991E+02  0.00000000000E+00 0.  1.
         -5    1    5    5    0  503 -0.53810146733E+02 -0.53054493830E+02 -0.93122030926E+01  0.76283145801E+02  0.47000000000E+01 0.  1.
<mgrwt>
<rscale>  2 0.17785289E+03</rscale>
<asrwt>0</asrwt>
<pdfrwt beam="1">  1       21 0.12417310E-01 0.17860196E+03</pdfrwt>
<pdfrwt beam="2">  1       21 0.67921675E-01 0.17860196E+03</pdfrwt>
<totfact> 0.10986025E+05</totfact>
</mgrwt>
</event>
<event>
12    1  0.1473662E-001  0.1941374E+03  0.7546771E-02  0.1154816E+00
         21   -1    0    0  504  503  0.00000000000E+00  0.00000000000E+00  0.76117586946E+02  0.76117586946E+02  0.00000000000E+00 0. -1.
         21   -1    0    0  502  504 -0.00000000000E+00 -0.00000000000E+00 -0.64318457370E+03  0.64318457370E+03  0.00000000000E+00 0. -1.
          6    2    1    2  502    0  0.84299001959E+02 -0.28159714671E+02 -0.11066517512E+03  0.22332640489E+03  0.17241986799E+03 0.  0.
         24    2    3    3    0    0  0.12606413075E+03 -0.21668748208E+02 -0.78419834860E+02  0.16995683868E+03  0.79837064104E+02 0.  0.
         -6    2    1    2    0  503 -0.84299001959E+02  0.28159714671E+02 -0.45640181163E+03  0.49597575575E+03  0.17259792980E+03 0.  0.
        -24    2    5    5    0    0 -0.11863348021E+03  0.33543111770E+02 -0.31595010726E+03  0.35121178018E+03  0.91248020746E+02 0.  0.
          4    1    4    4  501    0  0.69682495325E+02 -0.51221298914E+02 -0.37368184234E+02  0.94210683099E+02  0.00000000000E+00 0. -1.
         -3    1    4    4    0  501  0.56381635427E+02  0.29552550706E+02 -0.41051650626E+02  0.75746155584E+02  0.00000000000E+00 0.  1.
          5    1    3    3  502    0 -0.41765128793E+02 -0.64909664635E+01 -0.32245340263E+02  0.53369566210E+02  0.47000000000E+01 0. -1.
         13    1    6    6    0    0 -0.31523372618E+02  0.11391905838E+02 -0.20826224124E+03  0.21094231360E+03  0.00000000000E+00 0. -1.
        -14    1    6    6    0    0 -0.87110107590E+02  0.22151205933E+02 -0.10768786602E+03  0.14026946658E+03  0.00000000000E+00 0.  1.
         -5    1    5    5    0  503  0.34334478249E+02 -0.53833970989E+01 -0.14045170437E+03  0.14476397557E+03  0.47000000000E+01 0.  1.
<mgrwt>
<rscale>  2 0.19409783E+03</rscale>
<asrwt>0</asrwt>
<pdfrwt beam="1">  1       21 0.11710398E-01 0.19413742E+03</pdfrwt>
<pdfrwt beam="2">  1       21 0.98951471E-01 0.19413742E+03</pdfrwt>
<totfact> 0.51560593E+04</totfact>
</mgrwt>
</event>
<event>
12    1  0.1473662E-001  0.1750979E+03  0.7546771E-02  0.1174402E+00
         21   -1    0    0  504  503  0.00000000000E+00  0.00000000000E+00  0.84144809598E+03  0.84144809598E+03  0.00000000000E+00 0. -1.
         21   -1    0    0  502  504 -0.00000000000E+00 -0.00000000000E+00 -0.43245228822E+02  0.43245228822E+02  0.00000000000E+00 0. -1.
          6    2    1    2  502    0 -0.17170846467E+02  0.26778408909E+02  0.58555420343E+03  0.60923241385E+03  0.16516200467E+03 0.  0.
         24    2    3    3    0    0 -0.58763403455E+02 -0.13990503246E+02  0.26315845446E+03  0.28158450230E+03  0.79928643265E+02 0.  0.
         -6    2    1    2    0  503  0.17170846467E+02 -0.26778408909E+02  0.21264866373E+03  0.27546091095E+03  0.17218402400E+03 0.  0.
        -24    2    5    5    0    0  0.49054471675E+02 -0.98675548144E+01  0.45808061552E+02  0.10469669023E+03  0.79745273291E+02 0.  0.
          2    1    4    4  501    0  0.26770260276E+01 -0.60587194193E+01 -0.37290423402E+01  0.76013358122E+01  0.00000000000E+00 0. -1.
         -1    1    4    4    0  501 -0.61440429482E+02 -0.79317838266E+01  0.26688749680E+03  0.27398316648E+03  0.00000000000E+00 0.  1.
          5    1    3    3  502    0  0.41592556987E+02  0.40768912155E+02  0.32239574897E+03  0.32764791156E+03  0.47000000000E+01 0. -1.
         13    1    6    6    0    0  0.17425123895E+01  0.12040780526E+02 -0.18354928279E+02  0.22020902280E+02  0.00000000000E+00 0. -1.
        -14    1    6    6    0    0  0.47311959285E+02 -0.21908335341E+02  0.64162989831E+02  0.82675787948E+02  0.00000000000E+00 0.  1.
         -5    1    5    5    0  503 -0.31883625208E+02 -0.16910854095E+02  0.16684060218E+03  0.17076422072E+03  0.47000000000E+01 0.  1.
<mgrwt>
<rscale>  2 0.17334668E+03</rscale>
<asrwt>0</asrwt>
<pdfrwt beam="1">  1       21 0.12945354E+00 0.17509786E+03</pdfrwt>
<pdfrwt beam="2">  1       21 0.66531128E-02 0.17509786E+03</pdfrwt>
<totfact> 0.72760123E+04</totfact>
</mgrwt>
</event>
<event>
12    1  0.1473662E-001  0.1936540E+03  0.7546771E-02  0.1156130E+00
         21   -1    0    0  504  503  0.00000000000E+00  0.00000000000E+00  0.46652950647E+03  0.46652950647E+03  0.00000000000E+00 0. -1.
         21   -1    0    0  502  504 -0.00000000000E+00 -0.00000000000E+00 -0.13532889041E+03  0.13532889041E+03  0.00000000000E+00 0. -1.
          6    2    1    2  502    0 -0.38018741271E+02 -0.66841302079E+02 -0.28064434522E+02  0.19567697832E+03  0.17773205397E+03 0.  0.
         24    2    3    3    0    0 -0.63294600076E+02  0.12840837857E+02  0.10751862292E+02  0.10338988626E+03  0.80017326385E+02 0.  0.
         -6    2    1    2    0  503  0.38018741271E+02  0.66841302079E+02  0.35926505059E+03  0.40618141856E+03  0.17320157003E+03 0.  0.
        -24    2    5    5    0    0 -0.16798679952E+02  0.69731419446E+02  0.32447885221E+03  0.34102413159E+03  0.76591554943E+02 0.  0.
          4    1    4    4  501    0 -0.73962941720E+02 -0.10439442825E+02  0.17883633317E+02  0.76807050816E+02  0.00000000000E+00 0. -1.
         -3    1    4    4    0  501  0.10668341644E+02  0.23280280683E+02 -0.71317710257E+01  0.26582835441E+02  0.00000000000E+00 0.  1.
          5    1    3    3  502    0  0.25275858805E+02 -0.79682139937E+02 -0.38816296814E+02  0.92287092064E+02  0.47000000000E+01 0. -1.
         11    1    6    6    0    0  0.23036747203E+02  0.56011243140E+02  0.15565055904E+03  0.16701810564E+03  0.00000000000E+00 0. -1.
        -12    1    6    6    0    0 -0.39835427154E+02  0.13720176306E+02  0.16882829317E+03  0.17400602596E+03  0.00000000000E+00 0.  1.
         -5    1    5    5    0  503  0.54817421223E+02 -0.28901173663E+01  0.34786198374E+02  0.65157286969E+02  0.47000000000E+01 0.  1.
<mgrwt>
<rscale>  2 0.19260818E+03</rscale>
<asrwt>0</asrwt>
<pdfrwt beam="1">  1       21 0.71773769E-01 0.19365399E+03</pdfrwt>
<pdfrwt beam="2">  1       21 0.20819830E-01 0.19365399E+03</pdfrwt>
<totfact> 0.37521439E+04</totfact>
</mgrwt>
</event>
<event>
12    1  0.1473662E-001  0.1942755E+03  0.7546771E-02  0.1154886E+00
         21   -1    0    0  504  503  0.00000000000E+00  0.00000000000E+00  0.48195044394E+03  0.48195044394E+03  0.00000000000E+00 0.  1.
         21   -1    0    0  502  504 -0.00000000000E+00 -0.00000000000E+00 -0.37103271997E+03  0.37103271997E+03  0.00000000000E+00 0.  1.
          6    2    1    2  502    0  0.27777440964E+02  0.80374729532E+02 -0.32359534507E+03  0.37743467458E+03  0.17467484893E+03 0.  0.
         24    2    3    3    0    0  0.32314282305E+02 -0.20740421244E+02 -0.19273965965E+03  0.21193495538E+03  0.79331399827E+02 0.  0.
         -6    2    1    2    0  503 -0.27777440964E+02 -0.80374729532E+02  0.43451306903E+03  0.47554848934E+03  0.17353119367E+03 0.  0.
        -24    2    5    5    0    0 -0.23187658621E+02  0.22426720970E+02  0.15833216485E+03  0.18078216467E+03  0.81070902972E+02 0.  0.
          2    1    4    4  501    0  0.52957682822E+02  0.49169984853E+01 -0.96061703512E+02  0.10980229472E+03  0.00000000000E+00 0. -1.
         -1    1    4    4    0  501 -0.20643400517E+02 -0.25657419729E+02 -0.96677956136E+02  0.10213266067E+03  0.00000000000E+00 0.  1.
          5    1    3    3  502    0 -0.45368413416E+01  0.10111515078E+03 -0.13085568542E+03  0.16549971919E+03  0.47000000000E+01 0. -1.
         11    1    6    6    0    0 -0.22848239586E+02 -0.37444095315E+01  0.31008045404E+01  0.23359744085E+02  0.00000000000E+00 0. -1.
        -12    1    6    6    0    0 -0.33941903459E+00  0.26171130502E+02  0.15523136031E+03  0.15742242058E+03  0.00000000000E+00 0.  1.
         -5    1    5    5    0  503 -0.45897823429E+01 -0.10280145050E+03  0.27618090418E+03  0.29476632467E+03  0.47000000000E+01 0.  1.
<mgrwt>
<rscale>  2 0.19401813E+03</rscale>
<asrwt>0</asrwt>
<pdfrwt beam="1">  1       21 0.74146222E-01 0.19427554E+03</pdfrwt>
<pdfrwt beam="2">  1       21 0.57081957E-01 0.19427554E+03</pdfrwt>
<totfact> 0.46960410E+03</totfact>
</mgrwt>
</event>
<event>
12    1  0.1473662E-001  0.2317969E+03  0.7546771E-02  0.1127167E+00
         21   -1    0    0  504  503  0.00000000000E+00  0.00000000000E+00  0.42941425846E+03  0.42941425846E+03  0.00000000000E+00 0.  1.
         21   -1    0    0  502  504 -0.00000000000E+00 -0.00000000000E+00 -0.17856796443E+03  0.17856796443E+03  0.00000000000E+00 0. -1.
          6    2    1    2  502    0  0.10833959238E+02 -0.15328007324E+03 -0.47118291540E+02  0.23653739984E+03  0.17354438222E+03 0.  0.
         24    2    3    3    0    0  0.10094345791E+01 -0.70648973737E+01 -0.29284615991E+02  0.88836591034E+02  0.83566856107E+02 0.  0.
         -6    2    1    2    0  503 -0.10833959238E+02  0.15328007324E+03  0.29796458557E+03  0.37144482305E+03  0.15992562894E+03 0.  0.
        -24    2    5    5    0    0  0.52540040225E+02  0.82426604145E+02  0.17016514135E+03  0.21209845242E+03  0.80467243587E+02 0.  0.
          2    1    4    4  501    0  0.22448524343E+02 -0.25678936891E+02 -0.44937368659E+02  0.56415522218E+02  0.00000000000E+00 0. -1.
         -1    1    4    4    0  501 -0.21439089764E+02  0.18614039518E+02  0.15652752668E+02  0.32421068816E+02  0.00000000000E+00 0.  1.
          5    1    3    3  502    0  0.98245246589E+01 -0.14621517587E+03 -0.17833675549E+02  0.14770080881E+03  0.47000000000E+01 0. -1.
         11    1    6    6    0    0 -0.20823028731E+02  0.12918323749E+02  0.23247838067E+02  0.33777856486E+02  0.00000000000E+00 0. -1.
        -12    1    6    6    0    0  0.73363068955E+02  0.69508280397E+02  0.14691730328E+03  0.17832059593E+03  0.00000000000E+00 0.  1.
         -5    1    5    5    0  503 -0.63373999463E+02  0.70853469096E+02  0.12779944422E+03  0.15934637063E+03  0.47000000000E+01 0.  1.
<mgrwt>
<rscale>  2 0.22925221E+03</rscale>
<asrwt>0</asrwt>
<pdfrwt beam="1">  1       21 0.66063732E-01 0.23179691E+03</pdfrwt>
<pdfrwt beam="2">  1       21 0.27471995E-01 0.23179691E+03</pdfrwt>
<totfact> 0.26033946E+04</totfact>
</mgrwt>
</event>
<event>
12    1  0.1473662E-001  0.1811389E+03  0.7546771E-02  0.1167146E+00
         21   -1    0    0  504  503  0.00000000000E+00  0.00000000000E+00  0.15486912309E+04  0.15486912309E+04  0.00000000000E+00 0. -1.
         21   -1    0    0  502  504 -0.00000000000E+00 -0.00000000000E+00 -0.22404668959E+02  0.22404668959E+02  0.00000000000E+00 0. -1.
          6    2    1    2  502    0  0.26817604728E+02  0.47600831847E+02  0.95807404701E+03  0.97470947693E+03  0.17078542606E+03 0.  0.
         24    2    3    3    0    0 -0.32176718133E+02  0.25147566210E+02  0.29208863454E+03  0.30572282618E+03  0.80516673692E+02 0.  0.
         -6    2    1    2    0  503 -0.26817604728E+02 -0.47600831847E+02  0.56821251494E+03  0.59638642293E+03  0.17270286683E+03 0.  0.
        -24    2    5    5    0    0 -0.20187978322E+02 -0.54751966109E+02  0.16694916716E+03  0.19497708704E+03  0.82089632692E+02 0.  0.
          2    1    4    4  501    0  0.11937203795E+02 -0.17249506131E+02  0.30126335690E+02  0.36710194746E+02  0.00000000000E+00 0. -1.
         -1    1    4    4    0  501 -0.44113921928E+02  0.42397072340E+02  0.26196229885E+03  0.26901263143E+03  0.00000000000E+00 0.  1.
          5    1    3    3  502    0  0.58994322861E+02  0.22453265638E+02  0.66598541247E+03  0.66898665075E+03  0.47000000000E+01 0. -1.
         11    1    6    6    0    0 -0.24754319406E+02 -0.57569730818E+02  0.17467207389E+03  0.18557312206E+03  0.00000000000E+00 0. -1.
        -12    1    6    6    0    0  0.45663410839E+01  0.28177647088E+01 -0.77229067345E+01  0.94039649764E+01  0.00000000000E+00 0.  1.
         -5    1    5    5    0  503 -0.66296264054E+01  0.71511342616E+01  0.40126334778E+03  0.40140933589E+03  0.47000000000E+01 0.  1.
<mgrwt>
<rscale>  2 0.18068037E+03</rscale>
<asrwt>0</asrwt>
<pdfrwt beam="1">  1       21 0.23826011E+00 0.18113891E+03</pdfrwt>
<pdfrwt beam="2">  1       21 0.34468734E-02 0.18113891E+03</pdfrwt>
<totfact> 0.39560059E+04</totfact>
</mgrwt>
</event>
<event>
12    1  0.1473662E-001  0.1995820E+03  0.7546771E-02  0.1153455E+00
         21   -1    0    0  504  503  0.00000000000E+00  0.00000000000E+00  0.27858698665E+03  0.27858698665E+03  0.00000000000E+00 0. -1.
         21   -1    0    0  502  504 -0.00000000000E+00 -0.00000000000E+00 -0.16668398637E+03  0.16668398637E+03  0.00000000000E+00 0. -1.
          6    2    1    2  502    0  0.32642702172E+02 -0.93320208096E+02 -0.43381648090E+02  0.20424237051E+03  0.17337465581E+03 0.  0.
         24    2    3    3    0    0 -0.34748304438E+02 -0.90590768991E+02 -0.52824246206E+02  0.13597634478E+03  0.79278201700E+02 0.  0.
         -6    2    1    2    0  503 -0.32642702172E+02  0.93320208096E+02  0.15528464838E+03  0.24102860251E+03  0.15558681809E+03 0.  0.
        -24    2    5    5    0    0  0.61048002281E+01  0.47601426136E+02  0.24819196281E+02  0.97380072563E+02  0.81016798704E+02 0.  0.
          4    1    4    4  501    0  0.10357543868E+02 -0.34856127544E+02 -0.53001828742E+02  0.64276140148E+02  0.00000000000E+00 0. -1.
         -3    1    4    4    0  501 -0.45105848306E+02 -0.55734641447E+02  0.17758253649E+00  0.71700204632E+02  0.00000000000E+00 0.  1.
          5    1    3    3  502    0  0.67391006610E+02 -0.27294391055E+01  0.94425981155E+01  0.68266025730E+02  0.47000000000E+01 0. -1.
         11    1    6    6    0    0 -0.14641673773E+02  0.20632822584E+02  0.49334110536E+02  0.55443182097E+02  0.00000000000E+00 0. -1.
        -12    1    6    6    0    0  0.20746474001E+02  0.26968603552E+02 -0.24514914255E+02  0.41936890466E+02  0.00000000000E+00 0.  1.
         -5    1    5    5    0  503 -0.38747502400E+02  0.45718781960E+02  0.13046545209E+03  0.14364852995E+03  0.47000000000E+01 0.  1.
<mgrwt>
<rscale>  2 0.19565741E+03</rscale>
<asrwt>0</asrwt>
<pdfrwt beam="1">  1       21 0.42859536E-01 0.19958201E+03</pdfrwt>
<pdfrwt beam="2">  1       21 0.25643690E-01 0.19958201E+03</pdfrwt>
<totfact> 0.75312961E+04</totfact>
</mgrwt>
</event>
<event>
12    1  0.1473662E-001  0.2079541E+03  0.7546771E-02  0.1143228E+00
         21   -1    0    0  504  503  0.00000000000E+00  0.00000000000E+00  0.82648668868E+02  0.82648668868E+02  0.00000000000E+00 0.  1.
         21   -1    0    0  502  504 -0.00000000000E+00 -0.00000000000E+00 -0.90479768559E+03  0.90479768559E+03  0.00000000000E+00 0. -1.
          6    2    1    2  502    0 -0.66297315658E+02  0.93284607320E+02 -0.73176888460E+03  0.76070091750E+03  0.17344403531E+03 0.  0.
         24    2    3    3    0    0 -0.96602282486E+02  0.32275358414E+02 -0.36073135911E+03  0.38343250537E+03  0.80744491986E+02 0.  0.
         -6    2    1    2    0  503  0.66297315658E+02 -0.93284607320E+02 -0.90380132118E+02  0.22674543696E+03  0.17363056434E+03 0.  0.
        -24    2    5    5    0    0  0.63516435922E+02 -0.11552303904E+01 -0.73610988086E+01  0.10260920020E+03  0.80242071260E+02 0.  0.
          4    1    4    4  501    0 -0.51886749795E+02  0.55740442360E+02 -0.25728515941E+03  0.26831862584E+03  0.00000000000E+00 0. -1.
         -3    1    4    4    0  501 -0.44715532690E+02 -0.23465083946E+02 -0.10344619970E+03  0.11511387953E+03  0.00000000000E+00 0.  1.
          5    1    3    3  502    0  0.30304966828E+02  0.61009248906E+02 -0.37103752549E+03  0.37726841213E+03  0.47000000000E+01 0. -1.
         11    1    6    6    0    0  0.26890297208E+02 -0.32275171793E+02 -0.27807763016E+02  0.50379028198E+02  0.00000000000E+00 0. -1.
        -12    1    6    6    0    0  0.36626138714E+02  0.31119941403E+02  0.20446664207E+02  0.52230172000E+02  0.00000000000E+00 0.  1.
         -5    1    5    5    0  503  0.27808797360E+01 -0.92129376929E+02 -0.83019033309E+02  0.12413623676E+03  0.47000000000E+01 0.  1.
<mgrwt>
<rscale>  2 0.20791520E+03</rscale>
<asrwt>0</asrwt>
<pdfrwt beam="1">  1       21 0.12715180E-01 0.20795414E+03</pdfrwt>
<pdfrwt beam="2">  1       21 0.13919964E+00 0.20795414E+03</pdfrwt>
<totfact> 0.19017406E+04</totfact>
</mgrwt>
</event>
<event>
12    1  0.1473662E-001  0.1940318E+03  0.7546771E-02  0.1157755E+00
         21   -1    0    0  504  503  0.00000000000E+00  0.00000000000E+00  0.31269089606E+03  0.31269089606E+03  0.00000000000E+00 0.  1.
         21   -1    0    0  502  504 -0.00000000000E+00 -0.00000000000E+00 -0.16571743331E+03  0.16571743331E+03  0.00000000000E+00 0. -1.
          6    2    1    2  502    0  0.95723145709E+02  0.27901119696E+01 -0.63481271447E+02  0.19215753064E+03  0.15402577514E+03 0.  0.
         24    2    3    3    0    0  0.14587944786E+02 -0.24350423966E+01  0.10092825223E+02  0.82405716222E+02  0.80436927966E+02 0.  0.
         -6    2    1    2    0  503 -0.95723145709E+02 -0.27901119696E+01  0.21045473419E+03  0.28625079872E+03  0.16875313116E+03 0.  0.
        -24    2    5    5    0    0 -0.29791072374E+02 -0.60952435031E+02  0.95963034567E+02  0.14181973073E+03  0.79380253790E+02 0.  0.
          2    1    4    4  501    0  0.46168567787E+02  0.10278079118E+02  0.10086094591E+02  0.48362225610E+02  0.00000000000E+00 0. -1.
         -1    1    4    4    0  501 -0.31580623001E+02 -0.12713121515E+02  0.67306316812E-02  0.34043490612E+02  0.00000000000E+00 0.  1.
          5    1    3    3  502    0  0.81135200923E+02  0.52251543663E+01 -0.73574096670E+02  0.10975181442E+03  0.47000000000E+01 0. -1.
         13    1    6    6    0    0 -0.51075216521E+02 -0.14139021289E+02  0.49007756275E+02  0.72182753070E+02  0.00000000000E+00 0. -1.
        -14    1    6    6    0    0  0.21284144147E+02 -0.46813413741E+02  0.46955278292E+02  0.69636977660E+02  0.00000000000E+00 0.  1.
         -5    1    5    5    0  503 -0.65932073336E+02  0.58162323061E+02  0.11449169963E+03  0.14443106799E+03  0.47000000000E+01 0.  1.
<mgrwt>
<rscale>  2 0.19078546E+03</rscale>
<asrwt>0</asrwt>
<pdfrwt beam="1">  1       21 0.48106292E-01 0.19403176E+03</pdfrwt>
<pdfrwt beam="2">  1       21 0.25494990E-01 0.19403176E+03</pdfrwt>
<totfact> 0.60205100E+04</totfact>
</mgrwt>
</event>
<event>
12    1  0.1473662E-001  0.1750762E+03  0.7546771E-02  0.1173309E+00
         21   -1    0    0  504  503  0.00000000000E+00  0.00000000000E+00  0.28126135793E+02  0.28126135793E+02  0.00000000000E+00 0. -1.
         21   -1    0    0  502  504 -0.00000000000E+00 -0.00000000000E+00 -0.12364332341E+04  0.12364332341E+04  0.00000000000E+00 0. -1.
          6    2    1    2  502    0 -0.10091361831E+02 -0.23276703781E+02 -0.83740319861E+03  0.85550909316E+03  0.17322832019E+03 0.  0.
         24    2    3    3    0    0  0.25734772704E+02  0.13247834543E+02 -0.74116067495E+03  0.74641158092E+03  0.83506397364E+02 0.  0.
         -6    2    1    2    0  503  0.10091361831E+02  0.23276703781E+02 -0.37090389965E+03  0.40905027669E+03  0.17061297008E+03 0.  0.
        -24    2    5    5    0    0  0.99754580182E+01 -0.55195330189E+02 -0.17281773456E+03  0.19593506759E+03  0.73338578489E+02 0.  0.
          4    1    4    4  501    0 -0.19420316098E+02  0.29374230502E+02 -0.44536121545E+03  0.44675116824E+03  0.00000000000E+00 0. -1.
         -3    1    4    4    0  501  0.45155088803E+02 -0.16126395958E+02 -0.29579945949E+03  0.29966041268E+03  0.00000000000E+00 0.  1.
          5    1    3    3  502    0 -0.35826134535E+02 -0.36524538324E+02 -0.96242523667E+02  0.10909751224E+03  0.47000000000E+01 0. -1.
         13    1    6    6    0    0 -0.24269690472E+02 -0.34202767640E+02 -0.13268159161E+03  0.13915190240E+03  0.00000000000E+00 0. -1.
        -14    1    6    6    0    0  0.34245148491E+02 -0.20992562549E+02 -0.40136142946E+02  0.56783165182E+02  0.00000000000E+00 0.  1.
         -5    1    5    5    0  503  0.11590381254E+00  0.78472033970E+02 -0.19808616509E+03  0.21311520910E+03  0.47000000000E+01 0.  1.
<mgrwt>
<rscale>  2 0.17442580E+03</rscale>
<asrwt>0</asrwt>
<pdfrwt beam="1">  1       21 0.43270986E-02 0.17507624E+03</pdfrwt>
<pdfrwt beam="2">  1       21 0.19022046E+00 0.17507624E+03</pdfrwt>
<totfact> 0.53978208E+04</totfact>
</mgrwt>
</event>
<event>
12    1  0.1473662E-001  0.3024145E+03  0.7546771E-02  0.1084617E+00
         21   -1    0    0  504  503  0.00000000000E+00  0.00000000000E+00  0.21843342158E+03  0.21843342158E+03  0.00000000000E+00 0. -1.
         21   -1    0    0  502  504 -0.00000000000E+00 -0.00000000000E+00 -0.48963657882E+03  0.48963657882E+03  0.00000000000E+00 0. -1.
          6    2    1    2  502    0  0.12760018030E+03 -0.21248942195E+03 -0.27718145309E+03  0.41022443524E+03  0.17326560213E+03 0.  0.
         24    2    3    3    0    0  0.96516387324E+02 -0.22472329900E+03 -0.19900565431E+03  0.32508093609E+03  0.79109989404E+02 0.  0.
         -6    2    1    2    0  503 -0.12760018030E+03  0.21248942195E+03  0.59782958542E+01  0.29784556516E+03  0.16505356771E+03 0.  0.
        -24    2    5    5    0    0 -0.18955091453E+02  0.14149736180E+03 -0.22495157952E+02  0.16489273328E+03  0.79390065292E+02 0.  0.
          2    1    4    4  501    0  0.47504228825E+02 -0.17907997334E+03 -0.17220287728E+03  0.25294291758E+03  0.00000000000E+00 0. -1.
         -1    1    4    4    0  501  0.49012158499E+02 -0.45643325663E+02 -0.26802777025E+02  0.72138018510E+02  0.00000000000E+00 0.  1.
          5    1    3    3  502    0  0.31083792976E+02  0.12233877056E+02 -0.78175798778E+02  0.85143499154E+02  0.47000000000E+01 0. -1.
         13    1    6    6    0    0 -0.16732148679E+02  0.48156850961E+02  0.28604104254E+02  0.58457179833E+02  0.00000000000E+00 0. -1.
        -14    1    6    6    0    0 -0.22229427740E+01  0.93340510842E+02 -0.51099262206E+02  0.10643555344E+03  0.00000000000E+00 0.  1.
         -5    1    5    5    0  503 -0.10864508885E+03  0.70992060143E+02  0.28473453806E+02  0.13295283188E+03  0.47000000000E+01 0.  1.
<mgrwt>
<rscale>  2 0.30125056E+03</rscale>
<asrwt>0</asrwt>
<pdfrwt beam="1">  1       21 0.33605142E-01 0.30241450E+03</pdfrwt>
<pdfrwt beam="2">  1       21 0.75328704E-01 0.30241450E+03</pdfrwt>
<totfact> 0.12656601E+04</totfact>
</mgrwt>
</event>
<event>
12    1  0.1473662E-001  0.1988936E+03  0.7546771E-02  0.1151263E+00
         21   -1    0    0  504  503  0.00000000000E+00  0.00000000000E+00  0.66746733456E+02  0.66746733456E+02  0.00000000000E+00 0. -1.
         21   -1    0    0  502  504 -0.00000000000E+00 -0.00000000000E+00 -0.60572295775E+03  0.60572295775E+03  0.00000000000E+00 0. -1.
          6    2    1    2  502    0 -0.79694696054E+02  0.48558824138E+02 -0.33420602126E+03  0.38891171420E+03  0.17564012302E+03 0.  0.
         24    2    3    3    0    0 -0.53184242829E+02  0.32882642760E+02 -0.34172226757E+03  0.35686283354E+03  0.81652568436E+02 0.  0.
         -6    2    1    2    0  503  0.79694696054E+02 -0.48558824138E+02 -0.20477020304E+03  0.28355797701E+03  0.17252561054E+03 0.  0.
        -24    2    5    5    0    0  0.59549632703E+02 -0.86837516214E+02 -0.86218819500E+02  0.15727416022E+03  0.78832503823E+02 0.  0.
          2    1    4    4  501    0 -0.35868101913E+01  0.49716978973E+02 -0.18626654773E+03  0.19282082359E+03  0.00000000000E+00 0. -1.
         -1    1    4    4    0  501 -0.49597432638E+02 -0.16834336213E+02 -0.15545571983E+03  0.16404200995E+03  0.00000000000E+00 0.  1.
          5    1    3    3  502    0 -0.26510453225E+02  0.15676181378E+02  0.75162463095E+01  0.32048880657E+02  0.47000000000E+01 0. -1.
         11    1    6    6    0    0  0.37813086406E+02 -0.29816967631E+02 -0.83255928527E+02  0.96179159370E+02  0.00000000000E+00 0. -1.
        -12    1    6    6    0    0  0.21736546298E+02 -0.57020548583E+02 -0.29628909724E+01  0.61095000848E+02  0.00000000000E+00 0.  1.
         -5    1    5    5    0  503  0.20145063351E+02  0.38278692076E+02 -0.11855138354E+03  0.12628381680E+03  0.47000000000E+01 0.  1.
<mgrwt>
<rscale>  2 0.19820377E+03</rscale>
<asrwt>0</asrwt>
<pdfrwt beam="1">  1       21 0.10268728E-01 0.19889358E+03</pdfrwt>
<pdfrwt beam="2">  1       21 0.93188147E-01 0.19889358E+03</pdfrwt>
<totfact> 0.74810349E+04</totfact>
</mgrwt>
</event>
<event>
12    1  0.1473662E-001  0.2297220E+03  0.7546771E-02  0.1128576E+00
         21   -1    0    0  504  503  0.00000000000E+00  0.00000000000E+00  0.18693358941E+03  0.18693358941E+03  0.00000000000E+00 0. -1.
         21   -1    0    0  502  504 -0.00000000000E+00 -0.00000000000E+00 -0.34478256028E+03  0.34478256028E+03  0.00000000000E+00 0.  1.
          6    2    1    2  502    0  0.39262435482E+02 -0.12944594354E+03 -0.20091873308E+03  0.29799154454E+03  0.17358811071E+03 0.  0.
         24    2    3    3    0    0  0.50244586030E+02 -0.15676090230E+02 -0.13668315735E+03  0.16679517896E+03  0.79800300702E+02 0.  0.
         -6    2    1    2    0  503 -0.39262435482E+02  0.12944594354E+03  0.43069762202E+02  0.23372460515E+03  0.18567281842E+03 0.  0.
        -24    2    5    5    0    0  0.40770960449E+00 -0.12536216263E+02  0.19558644902E+02  0.84367594105E+02  0.81105039297E+02 0.  0.
          2    1    4    4  501    0  0.49241289729E+02  0.24237362323E+02 -0.68408604873E+02  0.87703429621E+02  0.00000000000E+00 0. -1.
         -1    1    4    4    0  501  0.10032963009E+01 -0.39913452553E+02 -0.68274552475E+02  0.79091749341E+02  0.00000000000E+00 0.  1.
          5    1    3    3  502    0 -0.10982150548E+02 -0.11376985331E+03 -0.64235575729E+02  0.13119636558E+03  0.47000000000E+01 0. -1.
         13    1    6    6    0    0  0.38581744540E+02 -0.23183935636E+01  0.22529587436E+02  0.44738219349E+02  0.00000000000E+00 0. -1.
        -14    1    6    6    0    0 -0.38174034936E+02 -0.10217822699E+02 -0.29709425340E+01  0.39629374756E+02  0.00000000000E+00 0.  1.
         -5    1    5    5    0  503 -0.39670145086E+02  0.14198215980E+03  0.23511117300E+02  0.14935701105E+03  0.47000000000E+01 0.  1.
<mgrwt>
<rscale>  2 0.22726990E+03</rscale>
<asrwt>0</asrwt>
<pdfrwt beam="1">  1       21 0.28759014E-01 0.22972198E+03</pdfrwt>
<pdfrwt beam="2">  1       21 0.53043470E-01 0.22972198E+03</pdfrwt>
<totfact> 0.38239850E+04</totfact>
</mgrwt>
</event>
<event>
12    1  0.1473662E-001  0.2822969E+03  0.7546771E-02  0.1094483E+00
         21   -1    0    0  504  503  0.00000000000E+00  0.00000000000E+00  0.30273050168E+03  0.30273050168E+03  0.00000000000E+00 0.  1.
         21   -1    0    0  502  504 -0.00000000000E+00 -0.00000000000E+00 -0.39407453998E+03  0.39407453998E+03  0.00000000000E+00 0. -1.
          6    2    1    2  502    0  0.81957139686E+02  0.20761723180E+03 -0.24662287377E+03  0.37462020867E+03  0.17232402963E+03 0.  0.
         24    2    3    3    0    0 -0.16568090905E+02  0.56269757349E+02 -0.81367058134E+02  0.12978382720E+03  0.82355670268E+02 0.  0.
         -6    2    1    2    0  503 -0.81957139686E+02 -0.20761723180E+03  0.15527883547E+03  0.32218483299E+03  0.17282841830E+03 0.  0.
        -24    2    5    5    0    0 -0.18391382051E+02 -0.34438726301E+02  0.17816014617E+02  0.92077211578E+02  0.81464923201E+02 0.  0.
          2    1    4    4  501    0 -0.25913408730E+02  0.71231642874E+02 -0.82590194502E+02  0.11210081144E+03  0.00000000000E+00 0. -1.
         -1    1    4    4    0  501  0.93453178254E+01 -0.14961885524E+02  0.12231363680E+01  0.17683015757E+02  0.00000000000E+00 0.  1.
          5    1    3    3  502    0  0.98525230591E+02  0.15134747445E+03 -0.16525581564E+03  0.24483638146E+03  0.47000000000E+01 0. -1.
         11    1    6    6    0    0 -0.42481189261E+02 -0.23021318788E+02 -0.14251414487E+02  0.50375940434E+02  0.00000000000E+00 0. -1.
        -12    1    6    6    0    0  0.24089807210E+02 -0.11417407513E+02  0.32067429103E+02  0.41701271144E+02  0.00000000000E+00 0.  1.
         -5    1    5    5    0  503 -0.63565757635E+02 -0.17317850550E+03  0.13746282086E+03  0.23010762141E+03  0.47000000000E+01 0.  1.
<mgrwt>
<rscale>  2 0.28221976E+03</rscale>
<asrwt>0</asrwt>
<pdfrwt beam="1">  1       21 0.46573923E-01 0.28229692E+03</pdfrwt>
<pdfrwt beam="2">  1       21 0.60626852E-01 0.28229692E+03</pdfrwt>
<totfact> 0.10623807E+04</totfact>
</mgrwt>
</event>
<event>
12    1  0.1473662E-001  0.1822965E+03  0.7546771E-02  0.1165916E+00
         21   -1    0    0  504  503  0.00000000000E+00  0.00000000000E+00  0.61283507036E+02  0.61283507036E+02  0.00000000000E+00 0.  1.
         21   -1    0    0  502  504 -0.00000000000E+00 -0.00000000000E+00 -0.69882428186E+03  0.69882428186E+03  0.00000000000E+00 0.  1.
          6    2    1    2  502    0  0.55689429854E+02  0.15745262944E+02 -0.50180799548E+03  0.53389445845E+03  0.17286642977E+03 0.  0.
         24    2    3    3    0    0  0.27336738062E+02 -0.52584147254E+02 -0.36299330234E+03  0.37652739563E+03  0.80599952417E+02 0.  0.
         -6    2    1    2    0  503 -0.55689429854E+02 -0.15745262944E+02 -0.13573277935E+03  0.22621333044E+03  0.17146386668E+03 0.  0.
        -24    2    5    5    0    0 -0.48436426359E+02 -0.11779076551E+01 -0.54506739953E+01  0.94834751994E+02  0.81341535970E+02 0.  0.
          2    1    4    4  501    0  0.14683336762E+02 -0.46903692367E+02 -0.35863753282E+03  0.36198955328E+03  0.00000000000E+00 0. -1.
         -1    1    4    4    0  501  0.12653401300E+02 -0.56804548866E+01 -0.43557695167E+01  0.14537842352E+02  0.00000000000E+00 0.  1.
          5    1    3    3  502    0  0.28352691792E+02  0.68329410197E+02 -0.13881469314E+03  0.15736706282E+03  0.47000000000E+01 0. -1.
         11    1    6    6    0    0 -0.42057364391E+02 -0.36389861252E+02  0.88179424746E+01  0.56309857138E+02  0.00000000000E+00 0. -1.
        -12    1    6    6    0    0 -0.63790619688E+01  0.35211953597E+02 -0.14268616470E+02  0.38524894856E+02  0.00000000000E+00 0.  1.
         -5    1    5    5    0  503 -0.72530034945E+01 -0.14567355288E+02 -0.13028210535E+03  0.13137857845E+03  0.47000000000E+01 0.  1.
<mgrwt>
<rscale>  2 0.18196326E+03</rscale>
<asrwt>0</asrwt>
<pdfrwt beam="1">  1       21 0.94282317E-02 0.18229654E+03</pdfrwt>
<pdfrwt beam="2">  1       21 0.10751143E+00 0.18229654E+03</pdfrwt>
<totfact> 0.62442143E+04</totfact>
</mgrwt>
</event>
<event>
12    1  0.1473662E-001  0.1745898E+03  0.7546771E-02  0.1173335E+00
         21   -1    0    0  504  503  0.00000000000E+00  0.00000000000E+00  0.91806057347E+02  0.91806057347E+02  0.00000000000E+00 0.  1.
         21   -1    0    0  502  504 -0.00000000000E+00 -0.00000000000E+00 -0.34419526143E+03  0.34419526143E+03  0.00000000000E+00 0.  1.
          6    2    1    2  502    0 -0.32783897262E+01  0.22373530517E+02 -0.83109761553E+02  0.19336191327E+03  0.17311924888E+03 0.  0.
         24    2    3    3    0    0 -0.55268861847E+01  0.54382363001E+02 -0.11296536094E+03  0.14928166931E+03  0.80844642016E+02 0.  0.
         -6    2    1    2    0  503  0.32783897262E+01 -0.22373530517E+02 -0.16927944254E+03  0.24263940551E+03  0.17235727062E+03 0.  0.
        -24    2    5    5    0    0 -0.65455007424E+02 -0.19060296085E+02 -0.10785858063E+03  0.15028211190E+03  0.79395131195E+02 0.  0.
          4    1    4    4  501    0  0.79705025860E+01  0.10170408717E+02 -0.10060488340E+03  0.10143130034E+03  0.00000000000E+00 0. -1.
         -3    1    4    4    0  501 -0.13497388771E+02  0.44211954284E+02 -0.12360477538E+02  0.47850368966E+02  0.00000000000E+00 0.  1.
          5    1    3    3  502    0  0.22484964585E+01 -0.32008832484E+02  0.29855599384E+02  0.44080243964E+02  0.47000000000E+01 0. -1.
         13    1    6    6    0    0 -0.50712874179E+02  0.25350108245E+02 -0.70078003140E+02  0.90140723980E+02  0.00000000000E+00 0. -1.
        -14    1    6    6    0    0 -0.14742133245E+02 -0.44410404330E+02 -0.37780577493E+02  0.60141387921E+02  0.00000000000E+00 0.  1.
         -5    1    5    5    0  503  0.68733397151E+02 -0.33132344318E+01 -0.61420861902E+02  0.92357293611E+02  0.47000000000E+01 0.  1.
<mgrwt>
<rscale>  2 0.17440061E+03</rscale>
<asrwt>0</asrwt>
<pdfrwt beam="1">  1       21 0.14124009E-01 0.17458980E+03</pdfrwt>
<pdfrwt beam="2">  1       21 0.52953116E-01 0.17458980E+03</pdfrwt>
<totfact> 0.14874923E+05</totfact>
</mgrwt>
</event>
<event>
12    1  0.1473662E-001  0.1853997E+03  0.7546771E-02  0.1163861E+00
         21   -1    0    0  504  503  0.00000000000E+00  0.00000000000E+00  0.18079012919E+03  0.18079012919E+03  0.00000000000E+00 0. -1.
         21   -1    0    0  502  504 -0.00000000000E+00 -0.00000000000E+00 -0.19710479773E+03  0.19710479773E+03  0.00000000000E+00 0. -1.
          6    2    1    2  502    0 -0.28549953541E+02  0.36864564152E+02 -0.54830325721E+02  0.18853681124E+03  0.17425747799E+03 0.  0.
         24    2    3    3    0    0  0.46751878955E+02  0.14756025734E+02 -0.54595817106E+02  0.10991557719E+03  0.81836742255E+02 0.  0.
         -6    2    1    2    0  503  0.28549953541E+02 -0.36864564152E+02  0.38515657181E+02  0.18935811567E+03  0.17944064252E+03 0.  0.
        -24    2    5    5    0    0  0.55310584696E+02  0.18215301917E+02 -0.22948629423E+02  0.10246811882E+03  0.81129635634E+02 0.  0.
          2    1    4    4  501    0 -0.19237531264E+02 -0.75011348215E+01  0.11941156091E+01  0.20682735429E+02  0.00000000000E+00 0. -1.
         -1    1    4    4    0  501  0.65989410219E+02  0.22257160556E+02 -0.55789932715E+02  0.89232841764E+02  0.00000000000E+00 0.  1.
          5    1    3    3  502    0 -0.75301832496E+02  0.22108538418E+02 -0.23450861557E+00  0.78621234044E+02  0.47000000000E+01 0. -1.
         13    1    6    6    0    0  0.36057818788E+02 -0.19153498588E+02  0.17232121032E+02  0.44316687592E+02  0.00000000000E+00 0. -1.
        -14    1    6    6    0    0  0.19252765909E+02  0.37368800505E+02 -0.40180750455E+02  0.58151431225E+02  0.00000000000E+00 0.  1.
         -5    1    5    5    0  503 -0.26760631155E+02 -0.55079866069E+02  0.61464286605E+02  0.86889996857E+02  0.47000000000E+01 0.  1.
<mgrwt>
<rscale>  2 0.18413381E+03</rscale>
<asrwt>0</asrwt>
<pdfrwt beam="1">  1       21 0.27813866E-01 0.18539968E+03</pdfrwt>
<pdfrwt beam="2">  1       21 0.30323815E-01 0.18539968E+03</pdfrwt>
<totfact> 0.12910748E+05</totfact>
</mgrwt>
</event>
<event>
12    1  0.1473662E-001  0.1916769E+03  0.7546771E-02  0.1157107E+00
         21   -1    0    0  504  503  0.00000000000E+00  0.00000000000E+00  0.21208109377E+03  0.21208109377E+03  0.00000000000E+00 0.  1.
         21   -1    0    0  502  504 -0.00000000000E+00 -0.00000000000E+00 -0.35568107032E+03  0.35568107032E+03  0.00000000000E+00 0.  1.
          6    2    1    2  502    0  0.73620500099E+02 -0.33745004039E+02 -0.27551303158E+03  0.33562992545E+03  0.17372769772E+03 0.  0.
         24    2    3    3    0    0 -0.28676623795E+02 -0.21002346785E+02 -0.14232894566E+03  0.16714500739E+03  0.80102917553E+02 0.  0.
         -6    2    1    2    0  503 -0.73620500099E+02  0.33745004039E+02  0.13191305504E+03  0.23213223863E+03  0.17299022744E+03 0.  0.
        -24    2    5    5    0    0 -0.87330765916E+02 -0.29617085282E+02  0.10770757381E+03  0.16277287680E+03  0.79939061484E+02 0.  0.
          2    1    4    4  501    0 -0.12181136614E+02  0.30096587256E+02 -0.69012813586E+02  0.76268952351E+02  0.00000000000E+00 0. -1.
         -1    1    4    4    0  501 -0.16495487181E+02 -0.51098934041E+02 -0.73316132077E+02  0.90876055043E+02  0.00000000000E+00 0.  1.
          5    1    3    3  502    0  0.10229712389E+03 -0.12742657255E+02 -0.13318408592E+03  0.16848491806E+03  0.47000000000E+01 0. -1.
         13    1    6    6    0    0 -0.20535098453E+01  0.81824904229E+01 -0.96776709626E+01  0.12838511108E+02  0.00000000000E+00 0. -1.
        -14    1    6    6    0    0 -0.85277256071E+02 -0.37799575705E+02  0.11738524477E+03  0.14993436569E+03  0.00000000000E+00 0.  1.
         -5    1    5    5    0  503  0.13710265817E+02  0.63362089321E+02  0.24205481228E+02  0.69359361829E+02  0.47000000000E+01 0.  1.
<mgrwt>
<rscale>  2 0.19150960E+03</rscale>
<asrwt>0</asrwt>
<pdfrwt beam="1">  1       21 0.32627861E-01 0.19167685E+03</pdfrwt>
<pdfrwt beam="2">  1       21 0.54720164E-01 0.19167685E+03</pdfrwt>
<totfact> 0.28520590E+04</totfact>
</mgrwt>
</event>
<event>
12    1  0.1473662E-001  0.1844844E+03  0.7546771E-02  0.1163853E+00
         21   -1    0    0  504  503  0.00000000000E+00  0.00000000000E+00  0.17552432863E+03  0.17552432863E+03  0.00000000000E+00 0. -1.
         21   -1    0    0  502  504 -0.00000000000E+00 -0.00000000000E+00 -0.23467420081E+03  0.23467420081E+03  0.00000000000E+00 0. -1.
          6    2    1    2  502    0 -0.31513792383E+02 -0.45998882286E+02  0.57491012560E+02  0.19193355816E+03  0.17442550829E+03 0.  0.
         24    2    3    3    0    0 -0.79330547382E+02 -0.82802126722E+01  0.98269237703E+01  0.11445391273E+03  0.81493754595E+02 0.  0.
         -6    2    1    2    0  503  0.31513792383E+02  0.45998882286E+02 -0.11664088474E+03  0.21826497128E+03  0.17585643409E+03 0.  0.
        -24    2    5    5    0    0  0.84643437379E+02  0.29953567637E+02 -0.10769515109E+03  0.16185284979E+03  0.80847830604E+02 0.  0.
          4    1    4    4  501    0 -0.44818363189E+02  0.14672607995E+02 -0.30871704322E+02  0.56365177477E+02  0.00000000000E+00 0. -1.
         -3    1    4    4    0  501 -0.34512184193E+02 -0.22952820667E+02  0.40698628092E+02  0.58088735250E+02  0.00000000000E+00 0.  1.
          5    1    3    3  502    0  0.47816754999E+02 -0.37718669614E+02  0.47664088790E+02  0.77479645432E+02  0.47000000000E+01 0. -1.
         11    1    6    6    0    0  0.11544497221E+02  0.41905285834E+02 -0.58715275197E+02  0.73053486833E+02  0.00000000000E+00 0. -1.
        -12    1    6    6    0    0  0.73098940158E+02 -0.11951718198E+02 -0.48979875888E+02  0.88799362960E+02  0.00000000000E+00 0.  1.
         -5    1    5    5    0  503 -0.53129644996E+02  0.16045314650E+02 -0.89457336535E+01  0.56412121483E+02  0.47000000000E+01 0.  1.
<mgrwt>
<rscale>  2 0.18414260E+03</rscale>
<asrwt>0</asrwt>
<pdfrwt beam="1">  1       21 0.27003743E-01 0.18448442E+03</pdfrwt>
<pdfrwt beam="2">  1       21 0.36103723E-01 0.18448442E+03</pdfrwt>
<totfact> 0.96962036E+04</totfact>
</mgrwt>
</event>
<event>
12    1  0.1473662E-001  0.2025243E+03  0.7546771E-02  0.1147708E+00
         21   -1    0    0  504  503  0.00000000000E+00  0.00000000000E+00  0.61325317491E+02  0.61325317491E+02  0.00000000000E+00 0.  1.
         21   -1    0    0  502  504 -0.00000000000E+00 -0.00000000000E+00 -0.73357672897E+03  0.73357672897E+03  0.00000000000E+00 0. -1.
          6    2    1    2  502    0  0.10260998516E+03 -0.22207784514E+02 -0.45507917264E+03  0.49795110604E+03  0.17273174546E+03 0.  0.
         24    2    3    3    0    0  0.13794244489E+03 -0.38459312369E+02 -0.36482573892E+03  0.39956275731E+03  0.77751787395E+02 0.  0.
         -6    2    1    2    0  503 -0.10260998516E+03  0.22207784514E+02 -0.21717223884E+03  0.29695094042E+03  0.17318800462E+03 0.  0.
        -24    2    5    5    0    0 -0.88461567234E+02 -0.83361305977E+01 -0.55256012280E+02  0.13150589545E+03  0.79659485906E+02 0.  0.
          2    1    4    4  501    0  0.69896817701E+02 -0.98802327837E+01 -0.27179305097E+03  0.28081069545E+03  0.00000000000E+00 0. -1.
         -1    1    4    4    0  501  0.68045627185E+02 -0.28579079585E+02 -0.93032687954E+02  0.11875206186E+03  0.00000000000E+00 0.  1.
          5    1    3    3  502    0 -0.35332459723E+02  0.16251527856E+02 -0.90253433716E+02  0.98388348727E+02  0.47000000000E+01 0. -1.
         13    1    6    6    0    0 -0.20753194457E+02  0.18851891180E+02 -0.51268249257E+02  0.58433913638E+02  0.00000000000E+00 0. -1.
        -14    1    6    6    0    0 -0.67708372777E+02 -0.27188021778E+02 -0.39877630232E+01  0.73071981814E+02  0.00000000000E+00 0.  1.
         -5    1    5    5    0  503 -0.14148417929E+02  0.30543915111E+02 -0.16191622656E+03  0.16544504497E+03  0.47000000000E+01 0.  1.
<mgrwt>
<rscale>  2 0.20242669E+03</rscale>
<asrwt>0</asrwt>
<pdfrwt beam="1">  1       21 0.94346647E-02 0.20252427E+03</pdfrwt>
<pdfrwt beam="2">  1       21 0.11285795E+00 0.20252427E+03</pdfrwt>
<totfact> 0.54901943E+04</totfact>
</mgrwt>
</event>
<event>
12    1  0.1473662E-001  0.2537467E+03  0.7546771E-02  0.1111145E+00
         21   -1    0    0  504  503  0.00000000000E+00  0.00000000000E+00  0.11565999246E+04  0.11565999246E+04  0.00000000000E+00 0. -1.
         21   -1    0    0  502  504 -0.00000000000E+00 -0.00000000000E+00 -0.61152815053E+02  0.61152815053E+02  0.00000000000E+00 0.  1.
          6    2    1    2  502    0  0.64175987838E+02 -0.17153443961E+03  0.35993672264E+03  0.43970200771E+03  0.17389879210E+03 0.  0.
         24    2    3    3    0    0  0.72278587938E+02 -0.73138504342E+02  0.30145471296E+03  0.32485581639E+03  0.63897749450E+02 0.  0.
         -6    2    1    2    0  503 -0.64175987838E+02  0.17153443961E+03  0.73551038695E+03  0.77805073199E+03  0.17562685114E+03 0.  0.
        -24    2    5    5    0    0 -0.48214510651E+02  0.15631504835E+03  0.73288682002E+03  0.75534893189E+03  0.81669361294E+02 0.  0.
          2    1    4    4  501    0  0.22847260132E+02  0.62447877728E+01  0.99809106122E+02  0.10258095503E+03  0.00000000000E+00 0. -1.
         -1    1    4    4    0  501  0.49431327806E+02 -0.79383292115E+02  0.20164560683E+03  0.22227486136E+03  0.00000000000E+00 0.  1.
          5    1    3    3  502    0 -0.81026001000E+01 -0.98395935265E+02  0.58482009678E+02  0.11484619132E+03  0.47000000000E+01 0. -1.
         11    1    6    6    0    0 -0.28019184438E+02  0.17692728512E+02  0.65349503160E+02  0.73271173745E+02  0.00000000000E+00 0. -1.
        -12    1    6    6    0    0 -0.20195326212E+02  0.13862231984E+03  0.66753731686E+03  0.68207775814E+03  0.00000000000E+00 0.  1.
         -5    1    5    5    0  503 -0.15961477188E+02  0.15219391254E+02  0.26235669381E+01  0.22701800097E+02  0.47000000000E+01 0.  1.
<mgrwt>
<rscale>  2 0.25344798E+03</rscale>
<asrwt>0</asrwt>
<pdfrwt beam="1">  1       21 0.17793843E+00 0.25374675E+03</pdfrwt>
<pdfrwt beam="2">  1       21 0.94081263E-02 0.25374675E+03</pdfrwt>
<totfact> 0.16307132E+04</totfact>
</mgrwt>
</event>
<event>
12    1  0.1473662E-001  0.2855914E+03  0.7546771E-02  0.1092745E+00
         21   -1    0    0  504  503  0.00000000000E+00  0.00000000000E+00  0.16968077710E+04  0.16968077710E+04  0.00000000000E+00 0. -1.
         21   -1    0    0  502  504 -0.00000000000E+00 -0.00000000000E+00 -0.13149332190E+03  0.13149332190E+03  0.00000000000E+00 0. -1.
          6    2    1    2  502    0 -0.22174915633E+03  0.45640165887E+02  0.54393973951E+02  0.29072518276E+03  0.17408823744E+03 0.  0.
         24    2    3    3    0    0 -0.15223940797E+03  0.95142622850E+02  0.17634708018E+02  0.19769060857E+03  0.80880391753E+02 0.  0.
         -6    2    1    2    0  503  0.22174915633E+03 -0.45640165887E+02  0.15109204751E+04  0.15375759101E+04  0.17321456093E+03 0.  0.
        -24    2    5    5    0    0  0.87308446746E+02 -0.78592522963E+02  0.65451204751E+03  0.67004052344E+03  0.82272311132E+02 0.  0.
          2    1    4    4  501    0 -0.12934767631E+03  0.46569039337E+02  0.33881579301E+02  0.14158904692E+03  0.00000000000E+00 0. -1.
         -1    1    4    4    0  501 -0.22891731658E+02  0.48573583513E+02 -0.16246871283E+02  0.56101561654E+02  0.00000000000E+00 0.  1.
          5    1    3    3  502    0 -0.69509748365E+02 -0.49502456963E+02  0.36759265933E+02  0.93034574191E+02  0.47000000000E+01 0. -1.
         13    1    6    6    0    0  0.44772693152E+01 -0.79094621438E+01  0.27671159840E+03  0.27686082102E+03  0.00000000000E+00 0. -1.
        -14    1    6    6    0    0  0.82831177431E+02 -0.70683060819E+02  0.37780044912E+03  0.39317970242E+03  0.00000000000E+00 0.  1.
         -5    1    5    5    0  503  0.13444070959E+03  0.32952357076E+02  0.85640842759E+03  0.86753538665E+03  0.47000000000E+01 0.  1.
<mgrwt>
<rscale>  2 0.28545834E+03</rscale>
<asrwt>0</asrwt>
<pdfrwt beam="1">  1       21 0.26104733E+00 0.28559136E+03</pdfrwt>
<pdfrwt beam="2">  1       21 0.20229743E-01 0.28559136E+03</pdfrwt>
<totfact> 0.11781237E+03</totfact>
</mgrwt>
</event>
<event>
12    1  0.1473662E-001  0.2467383E+03  0.7546771E-02  0.1115688E+00
         21   -1    0    0  504  503  0.00000000000E+00  0.00000000000E+00  0.92126159740E+03  0.92126159740E+03  0.00000000000E+00 0.  1.
         21   -1    0    0  502  504 -0.00000000000E+00 -0.00000000000E+00 -0.66150120530E+02  0.66150120530E+02  0.00000000000E+00 0. -1.
          6    2    1    2  502    0  0.15831657728E+03 -0.72703268199E+02  0.47505909266E+03  0.53531387868E+03  0.17472808399E+03 0.  0.
         24    2    3    3    0    0  0.13101016250E+02 -0.59692574504E+02  0.24131433544E+03  0.25978613262E+03  0.74306030299E+02 0.  0.
         -6    2    1    2    0  503 -0.15831657728E+03  0.72703268199E+02  0.38005238421E+03  0.45209783925E+03  0.17205446134E+03 0.  0.
        -24    2    5    5    0    0 -0.15264085772E+03  0.10904411350E+03  0.34794796803E+03  0.40305036869E+03  0.78689015204E+02 0.  0.
          4    1    4    4  501    0 -0.87187752641E+01 -0.71029075892E+02  0.17559279050E+03  0.18961533361E+03  0.00000000000E+00 0. -1.
         -3    1    4    4    0  501  0.21819791514E+02  0.11336501389E+02  0.65721544938E+02  0.70170799016E+02  0.00000000000E+00 0.  1.
          5    1    3    3  502    0  0.14521556103E+03 -0.13010693695E+02  0.23374475723E+03  0.27552774605E+03  0.47000000000E+01 0. -1.
         13    1    6    6    0    0 -0.94267500111E+01  0.44462659494E+02  0.63313979147E+02  0.77938768662E+02  0.00000000000E+00 0. -1.
        -14    1    6    6    0    0 -0.14321410771E+03  0.64581454009E+02  0.28463398888E+03  0.32511160003E+03  0.00000000000E+00 0.  1.
         -5    1    5    5    0  503 -0.56757195576E+01 -0.36340845305E+02  0.32104416180E+02  0.49047470559E+02  0.47000000000E+01 0.  1.
<mgrwt>
<rscale>  2 0.24626547E+03</rscale>
<asrwt>0</asrwt>
<pdfrwt beam="1">  1       21 0.14173254E+00 0.24673834E+03</pdfrwt>
<pdfrwt beam="2">  1       21 0.10176942E-01 0.24673834E+03</pdfrwt>
<totfact> 0.26430242E+04</totfact>
</mgrwt>
</event>
<event>
12    1  0.1473662E-001  0.2242756E+03  0.7546771E-02  0.1131006E+00
         21   -1    0    0  504  503  0.00000000000E+00  0.00000000000E+00  0.82596637437E+03  0.82596637437E+03  0.00000000000E+00 0. -1.
         21   -1    0    0  502  504 -0.00000000000E+00 -0.00000000000E+00 -0.72302304421E+02  0.72302304421E+02  0.00000000000E+00 0. -1.
          6    2    1    2  502    0  0.13995730499E+03 -0.21994713117E+01  0.19428687992E+03  0.29560592890E+03  0.17332797985E+03 0.  0.
         24    2    3    3    0    0  0.69639505049E+02 -0.67468575313E+02  0.10750460380E+03  0.16615361191E+03  0.81535965035E+02 0.  0.
         -6    2    1    2    0  503 -0.13995730499E+03  0.21994713117E+01  0.55937719003E+03  0.60266274989E+03  0.17523317176E+03 0.  0.
        -24    2    5    5    0    0 -0.46082131138E+02 -0.59789524792E+02  0.29642571350E+03  0.31661947884E+03  0.81739468257E+02 0.  0.
          2    1    4    4  501    0  0.70929180646E+02 -0.49038068102E+02  0.37994160333E+02  0.94229703436E+02  0.00000000000E+00 0. -1.
         -1    1    4    4    0  501 -0.12896755966E+01 -0.18430507211E+02  0.69510443465E+02  0.71923908472E+02  0.00000000000E+00 0.  1.
          5    1    3    3  502    0  0.70317799944E+02  0.65269104001E+02  0.86782276122E+02  0.12945231699E+03  0.47000000000E+01 0. -1.
         11    1    6    6    0    0 -0.41576946711E+02 -0.22766564201E+00  0.19076723957E+03  0.19524557363E+03  0.00000000000E+00 0. -1.
        -12    1    6    6    0    0 -0.45051844267E+01 -0.59561859150E+02  0.10565847394E+03  0.12137390521E+03  0.00000000000E+00 0.  1.
         -5    1    5    5    0  503 -0.93875173855E+02  0.61988996103E+02  0.26295147653E+03  0.28604327105E+03  0.47000000000E+01 0.  1.
<mgrwt>
<rscale>  2 0.22390333E+03</rscale>
<asrwt>0</asrwt>
<pdfrwt beam="1">  1       21 0.12707174E+00 0.22427561E+03</pdfrwt>
<pdfrwt beam="2">  1       21 0.11123432E-01 0.22427561E+03</pdfrwt>
<totfact> 0.30201860E+04</totfact>
</mgrwt>
</event>
<event>
12    1  0.1473662E-001  0.1977819E+03  0.7546771E-02  0.1152029E+00
         21   -1    0    0  504  503  0.00000000000E+00  0.00000000000E+00  0.13396939224E+03  0.13396939224E+03  0.00000000000E+00 0.  1.
         21   -1    0    0  502  504 -0.00000000000E+00 -0.00000000000E+00 -0.34833682946E+03  0.34833682946E+03  0.00000000000E+00 0. -1.
          6    2    1    2  502    0 -0.76981176680E+02 -0.49927286205E+02 -0.20695860127E+03  0.28626831767E+03  0.17521087748E+03 0.  0.
         24    2    3    3    0    0 -0.12054039029E+03 -0.41887252707E+02 -0.14011069016E+03  0.20593911719E+03  0.80593962946E+02 0.  0.
         -6    2    1    2    0  503  0.76981176680E+02  0.49927286205E+02 -0.74088359401E+01  0.19603790403E+03  0.17308129158E+03 0.  0.
        -24    2    5    5    0    0  0.97527894721E+02  0.21283916030E+02 -0.52641642503E+02  0.13849915998E+03  0.80288102854E+02 0.  0.
          4    1    4    4  501    0 -0.92858026957E+02 -0.33655777706E+02 -0.14618799172E+03  0.17642634006E+03  0.00000000000E+00 0. -1.
         -3    1    4    4    0  501 -0.27682363329E+02 -0.82314750010E+01  0.60773015555E+01  0.29512777137E+02  0.00000000000E+00 0.  1.
          5    1    3    3  502    0  0.43559213605E+02 -0.80400334983E+01 -0.66847911112E+02  0.80329200473E+02  0.47000000000E+01 0. -1.
         11    1    6    6    0    0  0.45955106519E+02  0.43171161962E+02 -0.53159813632E+02  0.82471733495E+02  0.00000000000E+00 0. -1.
        -12    1    6    6    0    0  0.51572788201E+02 -0.21887245932E+02  0.51817112872E+00  0.56027426486E+02  0.00000000000E+00 0.  1.
         -5    1    5    5    0  503 -0.20546718040E+02  0.28643370175E+02  0.45232806563E+02  0.57538744049E+02  0.47000000000E+01 0.  1.
<mgrwt>
<rscale>  2 0.19730921E+03</rscale>
<asrwt>0</asrwt>
<pdfrwt beam="1">  1       21 0.20610676E-01 0.19778192E+03</pdfrwt>
<pdfrwt beam="2">  1       21 0.53590282E-01 0.19778192E+03</pdfrwt>
<totfact> 0.71733498E+04</totfact>
</mgrwt>
</event>
<event>
12    1  0.1473662E-001  0.1930809E+03  0.7546771E-02  0.1155752E+00
         21   -1    0    0  504  503  0.00000000000E+00  0.00000000000E+00  0.40057980567E+02  0.40057980567E+02  0.00000000000E+00 0. -1.
         21   -1    0    0  502  504 -0.00000000000E+00 -0.00000000000E+00 -0.95899917538E+03  0.95899917538E+03  0.00000000000E+00 0. -1.
          6    2    1    2  502    0 -0.89229383157E+02  0.66559586588E+01 -0.54689288162E+03  0.57997590337E+03  0.17109658068E+03 0.  0.
         24    2    3    3    0    0 -0.40226695056E+02  0.35629563876E+02 -0.49384580256E+03  0.50202196930E+03  0.72489503625E+02 0.  0.
         -6    2    1    2    0  503  0.89229383157E+02 -0.66559586588E+01 -0.37204831320E+03  0.41908125258E+03  0.17088874834E+03 0.  0.
        -24    2    5    5    0    0  0.12764223392E+03 -0.17577137361E+02 -0.31080268107E+03  0.34581504821E+03  0.79926499801E+02 0.  0.
          2    1    4    4  501    0  0.35344269327E+01  0.40985227435E+02 -0.32173072358E+03  0.32435002626E+03  0.00000000000E+00 0. -1.
         -1    1    4    4    0  501 -0.43761121989E+02 -0.53556635589E+01 -0.17211507898E+03  0.17767194303E+03  0.00000000000E+00 0.  1.
          5    1    3    3  502    0 -0.49002688101E+02 -0.28973605218E+02 -0.53047079063E+02  0.77953934073E+02  0.47000000000E+01 0. -1.
         11    1    6    6    0    0  0.20976528802E+02  0.20900306725E+02 -0.12230856231E+03  0.12584205178E+03  0.00000000000E+00 0. -1.
        -12    1    6    6    0    0  0.10666570512E+03 -0.38477444085E+02 -0.18849411877E+03  0.21997299644E+03  0.00000000000E+00 0.  1.
         -5    1    5    5    0  503 -0.38412850765E+02  0.10921178702E+02 -0.61245632124E+02  0.73266204367E+02  0.47000000000E+01 0.  1.
<mgrwt>
<rscale>  2 0.19303482E+03</rscale>
<asrwt>0</asrwt>
<pdfrwt beam="1">  1       21 0.61627662E-02 0.19308088E+03</pdfrwt>
<pdfrwt beam="2">  1       21 0.14753833E+00 0.19308088E+03</pdfrwt>
<totfact> 0.58785654E+04</totfact>
</mgrwt>
</event>
<event>
12    1  0.1473662E-001  0.1908270E+03  0.7546771E-02  0.1160755E+00
         21   -1    0    0  504  503  0.00000000000E+00  0.00000000000E+00  0.17059516715E+03  0.17059516715E+03  0.00000000000E+00 0. -1.
         21   -1    0    0  502  504 -0.00000000000E+00 -0.00000000000E+00 -0.52487092243E+03  0.52487092243E+03  0.00000000000E+00 0.  1.
          6    2    1    2  502    0  0.18235115472E+02 -0.77536847326E+02 -0.44864015268E+03  0.48258211155E+03  0.15894346688E+03 0.  0.
         24    2    3    3    0    0 -0.19777202481E+02 -0.10708837991E+03 -0.35156387081E+03  0.37411956550E+03  0.67150839033E+02 0.  0.
         -6    2    1    2    0  503 -0.18235115472E+02  0.77536847326E+02  0.94364397405E+02  0.21288397803E+03  0.17340838063E+03 0.  0.
        -24    2    5    5    0    0  0.14750698939E+02  0.10916569052E+03  0.96327460514E+02  0.16690146732E+03  0.80264494262E+02 0.  0.
          4    1    4    4  501    0  0.27531124751E+01 -0.10326710794E+03 -0.26058252907E+03  0.28031220035E+03  0.00000000000E+00 0. -1.
         -3    1    4    4    0  501 -0.22530314956E+02 -0.38212719728E+01 -0.90981341739E+02  0.93807365149E+02  0.00000000000E+00 0.  1.
          5    1    3    3  502    0  0.38012317952E+02  0.29551532584E+02 -0.97076281868E+02  0.10846254605E+03  0.47000000000E+01 0. -1.
         11    1    6    6    0    0  0.83915069846E+01  0.64713983043E+02  0.10256670619E+03  0.12156581020E+03  0.00000000000E+00 0. -1.
        -12    1    6    6    0    0  0.63591919540E+01  0.44451707478E+02 -0.62392456776E+01  0.45335657121E+02  0.00000000000E+00 0.  1.
         -5    1    5    5    0  503 -0.32985814410E+02 -0.31628843194E+02 -0.19630631091E+01  0.45982510707E+02  0.47000000000E+01 0.  1.
<mgrwt>
<rscale>  2 0.18747945E+03</rscale>
<asrwt>0</asrwt>
<pdfrwt beam="1">  1       21 0.26245411E-01 0.19082701E+03</pdfrwt>
<pdfrwt beam="2">  1       21 0.80749372E-01 0.19082701E+03</pdfrwt>
<totfact> 0.18606384E+04</totfact>
</mgrwt>
</event>
<event>
12    1  0.1473662E-001  0.1863517E+03  0.7546771E-02  0.1161833E+00
         21   -1    0    0  504  503  0.00000000000E+00  0.00000000000E+00  0.32897739011E+03  0.32897739011E+03  0.00000000000E+00 0.  1.
         21   -1    0    0  502  504 -0.00000000000E+00 -0.00000000000E+00 -0.10612923618E+03  0.10612923618E+03  0.00000000000E+00 0. -1.
          6    2    1    2  502    0  0.57442787535E+02 -0.36504814729E+02  0.12861213390E+03  0.22628285973E+03  0.17329332440E+03 0.  0.
         24    2    3    3    0    0  0.30489997871E+02  0.32903066539E+02  0.12204951328E+03  0.15138916946E+03  0.77526416003E+02 0.  0.
         -6    2    1    2    0  503 -0.57442787535E+02  0.36504814729E+02  0.94236020032E+02  0.20882376656E+03  0.17347813312E+03 0.  0.
        -24    2    5    5    0    0 -0.20579831547E+02  0.47470602662E+02  0.12271709508E+03  0.16073647442E+03  0.89998562215E+02 0.  0.
          2    1    4    4  501    0 -0.23917715499E+02  0.22526252533E+02  0.58454129380E+02  0.67055010323E+02  0.00000000000E+00 0. -1.
         -1    1    4    4    0  501  0.54407713370E+02  0.10376814007E+02  0.63595383904E+02  0.84334159135E+02  0.00000000000E+00 0.  1.
          5    1    3    3  502    0  0.26952789664E+02 -0.69407881269E+02  0.65626206167E+01  0.74893690270E+02  0.47000000000E+01 0. -1.
         11    1    6    6    0    0 -0.16437971034E+02 -0.16146346399E+02  0.68078154327E+00  0.23051569518E+02  0.00000000000E+00 0. -1.
        -12    1    6    6    0    0 -0.41418605125E+01  0.63616949061E+02  0.12203631354E+03  0.13768490490E+03  0.00000000000E+00 0.  1.
         -5    1    5    5    0  503 -0.36862955989E+02 -0.10965787933E+02 -0.28481075050E+02  0.48087292139E+02  0.47000000000E+01 0.  1.
<mgrwt>
<rscale>  2 0.18630863E+03</rscale>
<asrwt>0</asrwt>
<pdfrwt beam="1">  1       21 0.50611906E-01 0.18635165E+03</pdfrwt>
<pdfrwt beam="2">  1       21 0.16327575E-01 0.18635165E+03</pdfrwt>
<totfact> 0.12508549E+05</totfact>
</mgrwt>
</event>
<event>
12    1  0.1473662E-001  0.1757819E+03  0.7546771E-02  0.1171992E+00
         21   -1    0    0  504  503  0.00000000000E+00  0.00000000000E+00  0.16114532164E+04  0.16114532164E+04  0.00000000000E+00 0.  1.
         21   -1    0    0  502  504 -0.00000000000E+00 -0.00000000000E+00 -0.34299645950E+02  0.34299645950E+02  0.00000000000E+00 0.  1.
          6    2    1    2  502    0  0.12276808963E+02 -0.27262508375E+02  0.24202091323E+03  0.29912102578E+03  0.17322038339E+03 0.  0.
         24    2    3    3    0    0  0.52796184602E+02 -0.52242266681E+02  0.22158306009E+03  0.24710560530E+03  0.80283473475E+02 0.  0.
         -6    2    1    2    0  503 -0.12276808963E+02  0.27262508375E+02  0.13351326573E+04  0.13466318366E+04  0.17304371264E+03 0.  0.
        -24    2    5    5    0    0  0.31273351725E+02  0.51060657567E+02  0.49343675495E+03  0.50346100554E+03  0.80049607643E+02 0.  0.
          4    1    4    4  501    0 -0.13339786009E+02 -0.38310991801E+02  0.10153670899E+03  0.10934068435E+03  0.00000000000E+00 0. -1.
         -3    1    4    4    0  501  0.66135970611E+02 -0.13931274881E+02  0.12004635111E+03  0.13776492094E+03  0.00000000000E+00 0.  1.
          5    1    3    3  502    0 -0.40519375639E+02  0.24979758306E+02  0.20437853138E+02  0.52015420483E+02  0.47000000000E+01 0. -1.
         13    1    6    6    0    0 -0.14779844547E+02  0.19282643585E+02  0.41615205330E+02  0.48188063492E+02  0.00000000000E+00 0. -1.
        -14    1    6    6    0    0  0.46053196272E+02  0.31778013982E+02  0.45182154962E+03  0.45527294204E+03  0.00000000000E+00 0.  1.
         -5    1    5    5    0  503 -0.43550160688E+02 -0.23798149192E+02  0.84169590231E+03  0.84317083107E+03  0.47000000000E+01 0.  1.
<mgrwt>
<rscale>  2 0.17573833E+03</rscale>
<asrwt>0</asrwt>
<pdfrwt beam="1">  1       21 0.24791582E+00 0.17578187E+03</pdfrwt>
<pdfrwt beam="2">  1       21 0.52768699E-02 0.17578187E+03</pdfrwt>
<totfact> 0.17051907E+04</totfact>
</mgrwt>
</event>
<event>
12    1  0.1473662E-001  0.2177678E+03  0.7546771E-02  0.1135713E+00
         21   -1    0    0  504  503  0.00000000000E+00  0.00000000000E+00  0.89755968271E+02  0.89755968271E+02  0.00000000000E+00 0. -1.
         21   -1    0    0  502  504 -0.00000000000E+00 -0.00000000000E+00 -0.78728317531E+03  0.78728317531E+03  0.00000000000E+00 0. -1.
          6    2    1    2  502    0  0.11832206241E+03 -0.57188644894E+02 -0.60165104504E+03  0.63984902790E+03  0.17364373571E+03 0.  0.
         24    2    3    3    0    0  0.24693463000E+02  0.30378654612E+02 -0.23185180616E+03  0.24843120301E+03  0.80188358483E+02 0.  0.
         -6    2    1    2    0  503 -0.11832206241E+03  0.57188644894E+02 -0.95876161997E+02  0.23719011568E+03  0.17261593489E+03 0.  0.
        -24    2    5    5    0    0 -0.12516633596E+03  0.94903594960E+02 -0.71551241216E+02  0.19154963682E+03  0.83056482308E+02 0.  0.
          2    1    4    4  501    0  0.40916999032E+02  0.29243361212E+02 -0.72410820753E+02  0.88162928415E+02  0.00000000000E+00 0. -1.
         -1    1    4    4    0  501 -0.16223536032E+02  0.11352933999E+01 -0.15944098541E+03  0.16026827459E+03  0.00000000000E+00 0.  1.
          5    1    3    3  502    0  0.93628599413E+02 -0.87567299506E+02 -0.36979923888E+03  0.39141782490E+03  0.47000000000E+01 0. -1.
         13    1    6    6    0    0 -0.57941067056E+02  0.43255875695E+02  0.11098370270E+02  0.73153344806E+02  0.00000000000E+00 0. -1.
        -14    1    6    6    0    0 -0.67225268906E+02  0.51647719265E+02 -0.82649611485E+02  0.11839629202E+03  0.00000000000E+00 0.  1.
         -5    1    5    5    0  503  0.68442735491E+01 -0.37714950066E+02 -0.24324920781E+02  0.45640478853E+02  0.47000000000E+01 0.  1.
<mgrwt>
<rscale>  2 0.21756281E+03</rscale>
<asrwt>0</asrwt>
<pdfrwt beam="1">  1       21 0.13808611E-01 0.21776776E+03</pdfrwt>
<pdfrwt beam="2">  1       21 0.12112049E+00 0.21776776E+03</pdfrwt>
<totfact> 0.23169446E+04</totfact>
</mgrwt>
</event>
<event>
12    1  0.1473662E-001  0.2301735E+03  0.7546771E-02  0.1127086E+00
         21   -1    0    0  504  503  0.00000000000E+00  0.00000000000E+00  0.11865839040E+03  0.11865839040E+03  0.00000000000E+00 0. -1.
         21   -1    0    0  502  504 -0.00000000000E+00 -0.00000000000E+00 -0.49190653939E+03  0.49190653939E+03  0.00000000000E+00 0. -1.
          6    2    1    2  502    0  0.14154564449E+03  0.54194759460E+02 -0.28668417038E+03  0.36765154076E+03  0.17322701999E+03 0.  0.
         24    2    3    3    0    0  0.14001178777E+03  0.50552391550E+02 -0.13699076126E+03  0.21783222861E+03  0.80780976383E+02 0.  0.
         -6    2    1    2    0  503 -0.14154564449E+03 -0.54194759460E+02 -0.86563978616E+02  0.24291338903E+03  0.16894185612E+03 0.  0.
        -24    2    5    5    0    0 -0.85119156298E+02 -0.38308507906E+02  0.76505808892E+00  0.13762914420E+03  0.10113547089E+03 0.  0.
          2    1    4    4  501    0  0.10627561391E+03  0.61504685438E+02 -0.13473174640E+03  0.18229091017E+03  0.00000000000E+00 0. -1.
         -1    1    4    4    0  501  0.33736173857E+02 -0.10952293888E+02 -0.22590148517E+01  0.35541318434E+02  0.00000000000E+00 0.  1.
          5    1    3    3  502    0  0.15338567247E+01  0.36423679094E+01 -0.14969340912E+03  0.14981931216E+03  0.47000000000E+01 0. -1.
         11    1    6    6    0    0 -0.10494589708E+03 -0.45547921589E+02 -0.81992306475E+01  0.11469734896E+03  0.00000000000E+00 0. -1.
        -12    1    6    6    0    0  0.19826740779E+02  0.72394136828E+01  0.89642887364E+01  0.22931795240E+02  0.00000000000E+00 0.  1.
         -5    1    5    5    0  503 -0.56426488193E+02 -0.15886251553E+02 -0.87329036705E+02  0.10528424483E+03  0.47000000000E+01 0.  1.
<mgrwt>
<rscale>  2 0.22936742E+03</rscale>
<asrwt>0</asrwt>
<pdfrwt beam="1">  1       21 0.18255137E-01 0.23017350E+03</pdfrwt>
<pdfrwt beam="2">  1       21 0.75677931E-01 0.23017350E+03</pdfrwt>
<totfact> 0.41843897E+04</totfact>
</mgrwt>
</event>
<event>
12    1  0.1473662E-001  0.2116857E+03  0.7546771E-02  0.1140505E+00
         21   -1    0    0  504  503  0.00000000000E+00  0.00000000000E+00  0.64646194118E+03  0.64646194118E+03  0.00000000000E+00 0.  1.
         21   -1    0    0  502  504 -0.00000000000E+00 -0.00000000000E+00 -0.12506437671E+03  0.12506437671E+03  0.00000000000E+00 0.  1.
          6    2    1    2  502    0  0.84857000951E+02 -0.81624887821E+02  0.25847703605E+01  0.21170150196E+03  0.17591904949E+03 0.  0.
         24    2    3    3    0    0  0.12088588834E+03 -0.73874723262E+02  0.28349097177E+02  0.16649048214E+03  0.82731714560E+02 0.  0.
         -6    2    1    2    0  503 -0.84857000951E+02  0.81624887821E+02  0.51881279411E+03  0.55982481593E+03  0.17428073982E+03 0.  0.
        -24    2    5    5    0    0 -0.10649793895E+03  0.10405311505E+03  0.48368365260E+03  0.51262839490E+03  0.81664764205E+02 0.  0.
          4    1    4    4  501    0  0.28415192284E+02 -0.61270380921E+02  0.28134614244E+02  0.73164467123E+02  0.00000000000E+00 0. -1.
         -3    1    4    4    0  501  0.92470696060E+02 -0.12604342341E+02  0.21448293345E+00  0.93326015015E+02  0.00000000000E+00 0.  1.
          5    1    3    3  502    0 -0.36028887393E+02 -0.77501645589E+01 -0.25764326817E+02  0.45211019827E+02  0.47000000000E+01 0. -1.
         11    1    6    6    0    0 -0.10574737635E+02  0.49266036685E+02  0.83943040658E+02  0.97905063820E+02  0.00000000000E+00 0. -1.
        -12    1    6    6    0    0 -0.95923201318E+02  0.54787078370E+02  0.39974061194E+03  0.41472333108E+03  0.00000000000E+00 0.  1.
         -5    1    5    5    0  503  0.21640938002E+02 -0.22428227234E+02  0.35129141513E+02  0.47196421028E+02  0.47000000000E+01 0.  1.
<mgrwt>
<rscale>  2 0.21134502E+03</rscale>
<asrwt>0</asrwt>
<pdfrwt beam="1">  1       21 0.99455681E-01 0.21168572E+03</pdfrwt>
<pdfrwt beam="2">  1       21 0.19240674E-01 0.21168572E+03</pdfrwt>
<totfact> 0.20395448E+04</totfact>
</mgrwt>
</event>
<event>
12    1  0.1473662E-001  0.2923629E+03  0.7546771E-02  0.1089140E+00
         21   -1    0    0  504  503  0.00000000000E+00  0.00000000000E+00  0.36863957047E+03  0.36863957047E+03  0.00000000000E+00 0. -1.
         21   -1    0    0  502  504 -0.00000000000E+00 -0.00000000000E+00 -0.68403705133E+03  0.68403705133E+03  0.00000000000E+00 0.  1.
          6    2    1    2  502    0 -0.39604379960E+02  0.23234465917E+03 -0.58569833955E+03  0.65461333347E+03  0.17298417224E+03 0.  0.
         24    2    3    3    0    0 -0.77937490835E+02  0.16786129592E+03 -0.31803746976E+03  0.37659901236E+03  0.80170548168E+02 0.  0.
         -6    2    1    2    0  503  0.39604379960E+02 -0.23234465917E+03  0.27030085869E+03  0.39806328833E+03  0.17274049830E+03 0.  0.
        -24    2    5    5    0    0 -0.21217180273E+02 -0.20305542990E+03  0.16660323566E+03  0.27423918663E+03  0.75952728724E+02 0.  0.
          2    1    4    4  501    0 -0.69470952674E+02  0.11242212040E+03 -0.15237119335E+03  0.20169761273E+03  0.00000000000E+00 0. -1.
         -1    1    4    4    0  501 -0.84665381610E+01  0.55439175520E+02 -0.16566627641E+03  0.17490139962E+03  0.00000000000E+00 0.  1.
          5    1    3    3  502    0  0.38333110875E+02  0.64483363258E+02 -0.26766086979E+03  0.27801432111E+03  0.47000000000E+01 0. -1.
         11    1    6    6    0    0 -0.72542791191E+00 -0.13803919024E+03  0.15044958603E+03  0.20418232594E+03  0.00000000000E+00 0. -1.
        -12    1    6    6    0    0 -0.20491752361E+02 -0.65016239656E+02  0.16153649632E+02  0.70056860693E+02  0.00000000000E+00 0.  1.
         -5    1    5    5    0  503  0.60821560233E+02 -0.29289229274E+02  0.10369762303E+03  0.12382410170E+03  0.47000000000E+01 0.  1.
<mgrwt>
<rscale>  2 0.29232688E+03</rscale>
<asrwt>0</asrwt>
<pdfrwt beam="1">  1       21 0.56713781E-01 0.29236291E+03</pdfrwt>
<pdfrwt beam="2">  1       21 0.10523647E+00 0.29236291E+03</pdfrwt>
<totfact> 0.19707466E+03</totfact>
</mgrwt>
</event>
<event>
12    1  0.1473662E-001  0.1789376E+03  0.7546771E-02  0.1168846E+00
         21   -1    0    0  504  503  0.00000000000E+00  0.00000000000E+00  0.37361215231E+02  0.37361215231E+02  0.00000000000E+00 0. -1.
         21   -1    0    0  502  504 -0.00000000000E+00 -0.00000000000E+00 -0.13289129448E+04  0.13289129448E+04  0.00000000000E+00 0.  1.
          6    2    1    2  502    0  0.47224686826E+02  0.21947689710E+01 -0.10530088617E+04  0.10681040765E+04  0.17257945211E+03 0.  0.
         24    2    3    3    0    0  0.55974548735E+02  0.35132648150E+01 -0.10541244244E+04  0.10580227574E+04  0.71332739852E+02 0.  0.
         -6    2    1    2    0  503 -0.47224686826E+02 -0.21947689710E+01 -0.23854286786E+03  0.29817008355E+03  0.17253321670E+03 0.  0.
        -24    2    5    5    0    0 -0.64531024653E+02  0.27694899183E+02 -0.24102807936E+03  0.26322487119E+03  0.79129875451E+02 0.  0.
          2    1    4    4  501    0  0.94631688173E+01  0.33888158491E+02 -0.40353433233E+03  0.40506532339E+03  0.00000000000E+00 0. -1.
         -1    1    4    4    0  501  0.46511379917E+02 -0.30374893676E+02 -0.65059009211E+03  0.65295743397E+03  0.00000000000E+00 0.  1.
          5    1    3    3  502    0 -0.87498619089E+01 -0.13184958441E+01  0.11155627317E+01  0.10081319106E+02  0.47000000000E+01 0. -1.
         13    1    6    6    0    0 -0.32563855714E+02  0.17205573854E+02 -0.24814673440E+02  0.44409508988E+02  0.00000000000E+00 0. -1.
        -14    1    6    6    0    0 -0.31967168939E+02  0.10489325329E+02 -0.21621340592E+03  0.21881536220E+03  0.00000000000E+00 0.  1.
         -5    1    5    5    0  503  0.17306337828E+02 -0.29889668154E+02  0.24852114957E+01  0.34945212369E+02  0.47000000000E+01 0.  1.
<mgrwt>
<rscale>  2 0.17892642E+03</rscale>
<asrwt>0</asrwt>
<pdfrwt beam="1">  1       21 0.57478788E-02 0.17893757E+03</pdfrwt>
<pdfrwt beam="2">  1       21 0.20444816E+00 0.17893757E+03</pdfrwt>
<totfact> 0.26963266E+04</totfact>
</mgrwt>
</event>
<event>
12    1  0.1473662E-001  0.2082223E+03  0.7546771E-02  0.1143123E+00
         21   -1    0    0  504  503  0.00000000000E+00  0.00000000000E+00  0.17492828237E+03  0.17492828237E+03  0.00000000000E+00 0.  1.
         21   -1    0    0  502  504 -0.00000000000E+00 -0.00000000000E+00 -0.52208247816E+03  0.52208247816E+03  0.00000000000E+00 0.  1.
          6    2    1    2  502    0  0.10387267023E+02  0.11740465468E+03 -0.42640277409E+03  0.47421744636E+03  0.17079552812E+03 0.  0.
         24    2    3    3    0    0 -0.24574482184E+02  0.19084599723E+02 -0.19289623327E+03  0.21841175503E+03  0.97604358522E+02 0.  0.
         -6    2    1    2    0  503 -0.10387267023E+02 -0.11740465468E+03  0.79248578301E+02  0.22279331417E+03  0.17165306702E+03 0.  0.
        -24    2    5    5    0    0  0.62387451452E+01 -0.55694970462E+02 -0.25288643533E+02  0.10017753151E+03  0.79089636824E+02 0.  0.
          2    1    4    4  501    0  0.16309015439E+02 -0.17092807848E+02 -0.69630794613E+01  0.24629911496E+02  0.00000000000E+00 0. -1.
         -1    1    4    4    0  501 -0.40883497623E+02  0.36177407571E+02 -0.18593315381E+03  0.19378184353E+03  0.00000000000E+00 0.  1.
          5    1    3    3  502    0  0.34961749206E+02  0.98320054953E+02 -0.23350654082E+03  0.25580569134E+03  0.47000000000E+01 0. -1.
         13    1    6    6    0    0 -0.34908266953E+02 -0.23560209944E+02  0.11848929619E+00  0.42115135450E+02  0.00000000000E+00 0. -1.
        -14    1    6    6    0    0  0.41147012098E+02 -0.32134760519E+02 -0.25407132829E+02  0.58062396065E+02  0.00000000000E+00 0.  1.
         -5    1    5    5    0  503 -0.16626012168E+02 -0.61709684213E+02  0.10453722183E+03  0.12261578265E+03  0.47000000000E+01 0.  1.
<mgrwt>
<rscale>  2 0.20804548E+03</rscale>
<asrwt>0</asrwt>
<pdfrwt beam="1">  1       21 0.26912044E-01 0.20822229E+03</pdfrwt>
<pdfrwt beam="2">  1       21 0.80320381E-01 0.20822229E+03</pdfrwt>
<totfact> 0.17753514E+04</totfact>
</mgrwt>
</event>
<event>
12    1  0.1473662E-001  0.2373886E+03  0.7546771E-02  0.1121607E+00
         21   -1    0    0  504  503  0.00000000000E+00  0.00000000000E+00  0.44068990784E+02  0.44068990784E+02  0.00000000000E+00 0. -1.
         21   -1    0    0  502  504 -0.00000000000E+00 -0.00000000000E+00 -0.13619018852E+04  0.13619018852E+04  0.00000000000E+00 0. -1.
          6    2    1    2  502    0 -0.13381171590E+03 -0.90514465800E+02 -0.48363535575E+03  0.53875458332E+03  0.17393935693E+03 0.  0.
         24    2    3    3    0    0 -0.80302887898E+02  0.42627374750E+01 -0.25002053610E+03  0.28098746576E+03  0.99884747130E+02 0.  0.
         -6    2    1    2    0  503  0.13381171590E+03  0.90514465800E+02 -0.83419753868E+03  0.86721629267E+03  0.17343621568E+03 0.  0.
        -24    2    5    5    0    0  0.15818375463E+03  0.10444983021E+03 -0.76650675950E+03  0.79378385952E+03  0.81414593392E+02 0.  0.
          2    1    4    4  501    0 -0.65163912135E+02  0.46335383217E+02 -0.12680055346E+03  0.14990558208E+03  0.00000000000E+00 0. -1.
         -1    1    4    4    0  501 -0.15138975763E+02 -0.42072645742E+02 -0.12321998264E+03  0.13108188368E+03  0.00000000000E+00 0.  1.
          5    1    3    3  502    0 -0.53508828006E+02 -0.94777203275E+02 -0.23361481965E+03  0.25776711756E+03  0.47000000000E+01 0. -1.
         11    1    6    6    0    0  0.31057686633E+02 -0.11875807390E+02 -0.10110637777E+03  0.10643361464E+03  0.00000000000E+00 0. -1.
        -12    1    6    6    0    0  0.12712606799E+03  0.11632563760E+03 -0.66540038174E+03  0.68735024489E+03  0.00000000000E+00 0.  1.
         -5    1    5    5    0  503 -0.24372038723E+02 -0.13935364412E+02 -0.67690779172E+02  0.73432433146E+02  0.47000000000E+01 0.  1.
<mgrwt>
<rscale>  2 0.23729644E+03</rscale>
<asrwt>0</asrwt>
<pdfrwt beam="1">  1       21 0.67798457E-02 0.23738859E+03</pdfrwt>
<pdfrwt beam="2">  1       21 0.20952334E+00 0.23738859E+03</pdfrwt>
<totfact> 0.18071790E+04</totfact>
</mgrwt>
</event>
<event>
12    1  0.1473662E-001  0.2330341E+03  0.7546771E-02  0.1124608E+00
         21   -1    0    0  504  503  0.00000000000E+00  0.00000000000E+00  0.32540700126E+03  0.32540700126E+03  0.00000000000E+00 0. -1.
         21   -1    0    0  502  504 -0.00000000000E+00 -0.00000000000E+00 -0.17507625371E+03  0.17507625371E+03  0.00000000000E+00 0. -1.
          6    2    1    2  502    0 -0.11992240069E+03  0.98214228666E+02  0.19792876861E+02  0.23337834290E+03  0.17333861676E+03 0.  0.
         24    2    3    3    0    0 -0.30178095055E+02 -0.88815771539E+01 -0.21132497162E+02  0.87705667850E+02  0.79095523912E+02 0.  0.
         -6    2    1    2    0  503  0.11992240069E+03 -0.98214228666E+02  0.13053787069E+03  0.26710491207E+03  0.17400425704E+03 0.  0.
        -24    2    5    5    0    0  0.12864222521E+03 -0.34929916342E+02  0.48689605180E+02  0.16317143290E+03  0.80531470238E+02 0.  0.
          4    1    4    4  501    0  0.26794156042E+02 -0.11734657660E+01 -0.12426923070E+02  0.29558962040E+02  0.00000000000E+00 0. -1.
         -3    1    4    4    0  501 -0.56972251097E+02 -0.77081113879E+01 -0.87055740917E+01  0.58146705810E+02  0.00000000000E+00 0.  1.
          5    1    3    3  502    0 -0.89744305633E+02  0.10709580582E+03  0.40925374023E+02  0.14567267505E+03  0.47000000000E+01 0. -1.
         13    1    6    6    0    0  0.94252560476E+02 -0.58165734164E+02  0.19569886825E+02  0.11247123302E+03  0.00000000000E+00 0. -1.
        -14    1    6    6    0    0  0.34389664735E+02  0.23235817822E+02  0.29119718355E+02  0.50700199876E+02  0.00000000000E+00 0.  1.
         -5    1    5    5    0  503 -0.87198245218E+01 -0.63284312324E+02  0.81848265508E+02  0.10393347917E+03  0.47000000000E+01 0.  1.
<mgrwt>
<rscale>  2 0.23290986E+03</rscale>
<asrwt>0</asrwt>
<pdfrwt beam="1">  1       21 0.50062616E-01 0.23303411E+03</pdfrwt>
<pdfrwt beam="2">  1       21 0.26934808E-01 0.23303411E+03</pdfrwt>
<totfact> 0.48974957E+04</totfact>
</mgrwt>
</event>
<event>
12    1  0.1473662E-001  0.2188434E+03  0.7546771E-02  0.1135052E+00
         21   -1    0    0  504  503  0.00000000000E+00  0.00000000000E+00  0.39815534565E+03  0.39815534565E+03  0.00000000000E+00 0.  1.
         21   -1    0    0  502  504 -0.00000000000E+00 -0.00000000000E+00 -0.13521906496E+03  0.13521906496E+03  0.00000000000E+00 0.  1.
          6    2    1    2  502    0 -0.10580037966E+03 -0.82356292255E+02  0.40682686305E+02  0.22259274190E+03  0.17296291097E+03 0.  0.
         24    2    3    3    0    0 -0.13858684022E+03 -0.58231891329E+02  0.90292249876E+01  0.17081465455E+03  0.80615469064E+02 0.  0.
         -6    2    1    2    0  503  0.10580037966E+03  0.82356292255E+02  0.22225359438E+03  0.31078166872E+03  0.17091607936E+03 0.  0.
        -24    2    5    5    0    0  0.39851487562E+02  0.59473508783E+02  0.21502582119E+03  0.24044527093E+03  0.80327985325E+02 0.  0.
          4    1    4    4  501    0 -0.84288218993E+02  0.20856624557E+01  0.25329063487E+02  0.88036443057E+02  0.00000000000E+00 0. -1.
         -3    1    4    4    0  501 -0.54298621231E+02 -0.60317553784E+02 -0.16299838500E+02  0.82778211489E+02  0.00000000000E+00 0.  1.
          5    1    3    3  502    0  0.32786460565E+02 -0.24124400927E+02  0.31653461318E+02  0.51778087352E+02  0.47000000000E+01 0. -1.
         11    1    6    6    0    0  0.11109841642E+01 -0.18242785883E+02  0.20785949955E+02  0.27678317111E+02  0.00000000000E+00 0. -1.
        -12    1    6    6    0    0  0.38740503398E+02  0.77716294666E+02  0.19423987123E+03  0.21276695382E+03  0.00000000000E+00 0.  1.
         -5    1    5    5    0  503  0.65948892098E+02  0.22882783472E+02  0.72277731939E+01  0.70336397787E+02  0.47000000000E+01 0.  1.
<mgrwt>
<rscale>  2 0.21843879E+03</rscale>
<asrwt>0</asrwt>
<pdfrwt beam="1">  1       21 0.61254668E-01 0.21884343E+03</pdfrwt>
<pdfrwt beam="2">  1       21 0.20802933E-01 0.21884343E+03</pdfrwt>
<totfact> 0.52492034E+04</totfact>
</mgrwt>
</event>
<event>
12    1  0.1473662E-001  0.1981930E+03  0.7546771E-02  0.1151728E+00
         21   -1    0    0  504  503  0.00000000000E+00  0.00000000000E+00  0.92583504437E+03  0.92583504437E+03  0.00000000000E+00 0.  1.
         21   -1    0    0  502  504 -0.00000000000E+00 -0.00000000000E+00 -0.55289875009E+02  0.55289875009E+02  0.00000000000E+00 0.  1.
          6    2    1    2  502    0 -0.48797203710E+02  0.82809196128E+02  0.19630946031E+03  0.27895857234E+03  0.17332614004E+03 0.  0.
         24    2    3    3    0    0 -0.82583588804E+01  0.56856151904E+02  0.20732726414E+03  0.22935574534E+03  0.79489879651E+02 0.  0.
         -6    2    1    2    0  503  0.48797203710E+02 -0.82809196128E+02  0.67423570906E+03  0.70216634705E+03  0.17089545781E+03 0.  0.
        -24    2    5    5    0    0 -0.19637656288E+02 -0.89894099712E+02  0.50965764501E+03  0.52372432541E+03  0.77908068862E+02 0.  0.
          2    1    4    4  501    0  0.18653017058E+02  0.29544510977E+02  0.17714811810E+03  0.18056098394E+03  0.00000000000E+00 0. -1.
         -1    1    4    4    0  501 -0.26911375938E+02  0.27311640927E+02  0.30179146033E+02  0.48794761402E+02  0.00000000000E+00 0.  1.
          5    1    3    3  502    0 -0.40538844830E+02  0.25953044224E+02 -0.11017803830E+02  0.49602826995E+02  0.47000000000E+01 0. -1.
         13    1    6    6    0    0 -0.10253024014E+01 -0.99419128982E+02  0.40808549204E+03  0.42002259852E+03  0.00000000000E+00 0. -1.
        -14    1    6    6    0    0 -0.18612353887E+02  0.95250292704E+01  0.10157215297E+03  0.10370172688E+03  0.00000000000E+00 0.  1.
         -5    1    5    5    0  503  0.68434859998E+02  0.70849035839E+01  0.16457806404E+03  0.17844202164E+03  0.47000000000E+01 0.  1.
<mgrwt>
<rscale>  2 0.19766035E+03</rscale>
<asrwt>0</asrwt>
<pdfrwt beam="1">  1       21 0.14243615E+00 0.19819304E+03</pdfrwt>
<pdfrwt beam="2">  1       21 0.85061353E-02 0.19819304E+03</pdfrwt>
<totfact> 0.36775879E+04</totfact>
</mgrwt>
</event>
<event>
12    1  0.1473662E-001  0.1950990E+03  0.7546771E-02  0.1154112E+00
         21   -1    0    0  504  503  0.00000000000E+00  0.00000000000E+00  0.22473557729E+03  0.22473557729E+03  0.00000000000E+00 0.  1.
         21   -1    0    0  502  504 -0.00000000000E+00 -0.00000000000E+00 -0.18024586409E+03  0.18024586409E+03  0.00000000000E+00 0. -1.
          6    2    1    2  502    0 -0.85902847254E+02  0.26748804177E+02  0.73472066953E+02  0.20774145497E+03  0.17223115223E+03 0.  0.
         24    2    3    3    0    0 -0.30183615915E+02 -0.40939831607E+02  0.78436711835E+02  0.11980328434E+03  0.74922551298E+02 0.  0.
         -6    2    1    2    0  503  0.85902847254E+02 -0.26748804177E+02 -0.28982353753E+02  0.19723998641E+03  0.17311509963E+03 0.  0.
        -24    2    5    5    0    0  0.62907998545E+00  0.35291020549E+02  0.19821392478E+01  0.87233418141E+02  0.79748909031E+02 0.  0.
          4    1    4    4  501    0  0.10525468545E+02 -0.42920536732E+02  0.61349772841E+02  0.75609209684E+02  0.00000000000E+00 0. -1.
         -3    1    4    4    0  501 -0.40709084460E+02  0.19807051246E+01  0.17086938994E+02  0.44194074654E+02  0.00000000000E+00 0.  1.
          5    1    3    3  502    0 -0.55719231339E+02  0.67688635784E+02 -0.49646448818E+01  0.87938170632E+02  0.47000000000E+01 0. -1.
         11    1    6    6    0    0  0.39305090294E+02  0.11776637593E+02 -0.53548766895E+01  0.41379391251E+02  0.00000000000E+00 0. -1.
        -12    1    6    6    0    0 -0.38676010308E+02  0.23514382956E+02  0.73370159373E+01  0.45854026890E+02  0.00000000000E+00 0.  1.
         -5    1    5    5    0  503  0.85273767268E+02 -0.62039824726E+02 -0.30964493001E+02  0.11000656827E+03  0.47000000000E+01 0.  1.
<mgrwt>
<rscale>  2 0.19490277E+03</rscale>
<asrwt>0</asrwt>
<pdfrwt beam="1">  1       21 0.34574704E-01 0.19509904E+03</pdfrwt>
<pdfrwt beam="2">  1       21 0.27730133E-01 0.19509904E+03</pdfrwt>
<totfact> 0.99992695E+04</totfact>
</mgrwt>
</event>
<event>
12    1  0.1473662E-001  0.1974888E+03  0.7546771E-02  0.1152747E+00
         21   -1    0    0  504  503  0.00000000000E+00  0.00000000000E+00  0.13783488017E+04  0.13783488017E+04  0.00000000000E+00 0.  1.
         21   -1    0    0  502  504 -0.00000000000E+00 -0.00000000000E+00 -0.67336823841E+02  0.67336823841E+02  0.00000000000E+00 0. -1.
          6    2    1    2  502    0  0.84594254694E+02 -0.38696714215E+01  0.10387000274E+03  0.22313849910E+03  0.17841146272E+03 0.  0.
         24    2    3    3    0    0 -0.22142852642E+02 -0.97566440731E+01  0.75240425110E+02  0.11237203647E+03  0.79880254024E+02 0.  0.
         -6    2    1    2    0  503 -0.84594254694E+02  0.38696714215E+01  0.12071419751E+04  0.12225471265E+04  0.17394989505E+03 0.  0.
        -24    2    5    5    0    0  0.14418067470E+02 -0.30620376111E+02  0.61148961935E+03  0.61771919864E+03  0.80696751405E+02 0.  0.
          4    1    4    4  501    0 -0.32192955671E+02 -0.32526127938E+02  0.16622738650E+02  0.48689329773E+02  0.00000000000E+00 0. -1.
         -3    1    4    4    0  501  0.10050103030E+02  0.22769483865E+02  0.58617686459E+02  0.63682706697E+02  0.00000000000E+00 0.  1.
          5    1    3    3  502    0  0.10673710734E+03  0.58869726516E+01  0.28629577634E+02  0.11076646264E+03  0.47000000000E+01 0. -1.
         11    1    6    6    0    0  0.31789764086E+02 -0.11458894439E+02  0.99594418394E+02  0.10517102043E+03  0.00000000000E+00 0. -1.
        -12    1    6    6    0    0 -0.17371696615E+02 -0.19161481672E+02  0.51189520096E+03  0.51254817821E+03  0.00000000000E+00 0.  1.
         -5    1    5    5    0  503 -0.99012322164E+02  0.34490047532E+02  0.59565235579E+03  0.60482792783E+03  0.47000000000E+01 0.  1.
<mgrwt>
<rscale>  2 0.19647572E+03</rscale>
<asrwt>0</asrwt>
<pdfrwt beam="1">  1       21 0.21205364E+00 0.19748877E+03</pdfrwt>
<pdfrwt beam="2">  1       21 0.10359512E-01 0.19748877E+03</pdfrwt>
<totfact> 0.85514317E+03</totfact>
</mgrwt>
</event>
<event>
12    1  0.1473662E-001  0.1861095E+03  0.7546771E-02  0.1162761E+00
         21   -1    0    0  504  503  0.00000000000E+00  0.00000000000E+00  0.10718304939E+03  0.10718304939E+03  0.00000000000E+00 0.  1.
         21   -1    0    0  502  504 -0.00000000000E+00 -0.00000000000E+00 -0.32284557788E+03  0.32284557788E+03  0.00000000000E+00 0.  1.
          6    2    1    2  502    0 -0.15794651709E+02  0.60304129407E+02 -0.13599692128E+03  0.23050357996E+03  0.17535871445E+03 0.  0.
         24    2    3    3    0    0 -0.69904064151E+00  0.99383092549E+02 -0.13801454183E+03  0.18829927181E+03  0.80815309603E+02 0.  0.
         -6    2    1    2    0  503  0.15794651709E+02 -0.60304129407E+02 -0.79665607213E+02  0.19952504732E+03  0.17198132599E+03 0.  0.
        -24    2    5    5    0    0  0.12837899059E+02 -0.22195046702E+02  0.23982587920E+02  0.88953428330E+02  0.81731977451E+02 0.  0.
          4    1    4    4  501    0 -0.29604288170E+02  0.14666740064E+02 -0.64497573157E+02  0.72466986175E+02  0.00000000000E+00 0. -1.
         -3    1    4    4    0  501  0.28905247529E+02  0.84716352486E+02 -0.73516968670E+02  0.11583228564E+03  0.00000000000E+00 0.  1.
          5    1    3    3  502    0 -0.15095611067E+02 -0.39078963142E+02  0.20176205517E+01  0.42204308150E+02  0.47000000000E+01 0. -1.
         11    1    6    6    0    0  0.46548708181E+02 -0.81284542173E+01  0.22650289929E+02  0.52401236963E+02  0.00000000000E+00 0. -1.
        -12    1    6    6    0    0 -0.33710809123E+02 -0.14066592484E+02  0.13322979907E+01  0.36552191367E+02  0.00000000000E+00 0.  1.
         -5    1    5    5    0  503  0.29567526504E+01 -0.38109082706E+02 -0.10364819513E+03  0.11057161899E+03  0.47000000000E+01 0.  1.
<mgrwt>
<rscale>  2 0.18530964E+03</rscale>
<asrwt>0</asrwt>
<pdfrwt beam="1">  1       21 0.16489700E-01 0.18610948E+03</pdfrwt>
<pdfrwt beam="2">  1       21 0.49668550E-01 0.18610948E+03</pdfrwt>
<totfact> 0.12776396E+05</totfact>
</mgrwt>
</event>
<event>
12    1  0.1473662E-001  0.1927621E+03  0.7546771E-02  0.1156290E+00
         21   -1    0    0  504  503  0.00000000000E+00  0.00000000000E+00  0.37712665267E+02  0.37712665267E+02  0.00000000000E+00 0. -1.
         21   -1    0    0  502  504 -0.00000000000E+00 -0.00000000000E+00 -0.10007095553E+04  0.10007095553E+04  0.00000000000E+00 0.  1.
          6    2    1    2  502    0 -0.66249447722E+02 -0.51182123319E+02 -0.55726958413E+03  0.58923196143E+03  0.17215201392E+03 0.  0.
         24    2    3    3    0    0 -0.61309947519E+02 -0.63854110382E+02 -0.20866592046E+03  0.24033142797E+03  0.79884115020E+02 0.  0.
         -6    2    1    2    0  503  0.66249447722E+02  0.51182123319E+02 -0.40572730590E+03  0.44919025914E+03  0.17363364617E+03 0.  0.
        -24    2    5    5    0    0  0.74085159670E+01  0.22042992959E+02 -0.35065767534E+03  0.36336428185E+03  0.92368914685E+02 0.  0.
          2    1    4    4  501    0 -0.22955437093E+01 -0.19937935471E+02 -0.10820030489E+01  0.20098794052E+02  0.00000000000E+00 0. -1.
         -1    1    4    4    0  501 -0.59014403810E+02 -0.43916174911E+02 -0.20758391741E+03  0.22023263392E+03  0.00000000000E+00 0.  1.
          5    1    3    3  502    0 -0.49395002030E+01  0.12671987063E+02 -0.34860366368E+03  0.34890053346E+03  0.47000000000E+01 0. -1.
         13    1    6    6    0    0  0.18953483705E+02  0.20342372276E+02 -0.24678416723E+02  0.37176214255E+02  0.00000000000E+00 0. -1.
        -14    1    6    6    0    0 -0.11544967738E+02  0.17006206829E+01 -0.32597925862E+03  0.32618806760E+03  0.00000000000E+00 0.  1.
         -5    1    5    5    0  503  0.58840931755E+02  0.29139130360E+02 -0.55069630554E+02  0.85825977287E+02  0.47000000000E+01 0.  1.
<mgrwt>
<rscale>  2 0.19242789E+03</rscale>
<asrwt>0</asrwt>
<pdfrwt beam="1">  1       21 0.58019492E-02 0.19276214E+03</pdfrwt>
<pdfrwt beam="2">  1       21 0.15395530E+00 0.19276214E+03</pdfrwt>
<totfact> 0.58270412E+04</totfact>
</mgrwt>
</event>
<event>
12    1  0.1473662E-001  0.1846324E+03  0.7546771E-02  0.1163457E+00
         21   -1    0    0  504  503  0.00000000000E+00  0.00000000000E+00  0.22938845556E+03  0.22938845556E+03  0.00000000000E+00 0.  1.
         21   -1    0    0  502  504 -0.00000000000E+00 -0.00000000000E+00 -0.26443733160E+03  0.26443733160E+03  0.00000000000E+00 0.  1.
          6    2    1    2  502    0 -0.60210368480E+02 -0.16994130574E+01 -0.18109894214E+03  0.25862314750E+03  0.17453059645E+03 0.  0.
         24    2    3    3    0    0 -0.72604215555E+02 -0.19139429557E+02 -0.41284127465E+02  0.11710271072E+03  0.79818392605E+02 0.  0.
         -6    2    1    2    0  503  0.60210368480E+02  0.16994130574E+01  0.14605006611E+03  0.23520263967E+03  0.17424546886E+03 0.  0.
        -24    2    5    5    0    0  0.44249157881E+02  0.28680711679E+02  0.11534139060E+02  0.97002149984E+02  0.80596585176E+02 0.  0.
          4    1    4    4  501    0 -0.10327043638E+02 -0.40806870765E+02 -0.66301458404E+01  0.42612291253E+02  0.00000000000E+00 0. -1.
         -3    1    4    4    0  501 -0.62277171917E+02  0.21667441208E+02 -0.34653981624E+02  0.74490419470E+02  0.00000000000E+00 0.  1.
          5    1    3    3  502    0  0.12393847075E+02  0.17440016500E+02 -0.13981481468E+03  0.14152043677E+03  0.47000000000E+01 0. -1.
         13    1    6    6    0    0  0.10608159897E+02 -0.19803560770E+02 -0.20012730775E+02  0.30086931859E+02  0.00000000000E+00 0. -1.
        -14    1    6    6    0    0  0.33640997984E+02  0.48484272450E+02  0.31546869836E+02  0.66915218126E+02  0.00000000000E+00 0.  1.
         -5    1    5    5    0  503  0.15961210599E+02 -0.26981298622E+02  0.13451592705E+03  0.13820048968E+03  0.47000000000E+01 0.  1.
<mgrwt>
<rscale>  2 0.18456494E+03</rscale>
<asrwt>0</asrwt>
<pdfrwt beam="1">  1       21 0.35290531E-01 0.18463235E+03</pdfrwt>
<pdfrwt beam="2">  1       21 0.40682667E-01 0.18463235E+03</pdfrwt>
<totfact> 0.45234268E+04</totfact>
</mgrwt>
</event>
<event>
12    1  0.1473662E-001  0.2114421E+03  0.7546771E-02  0.1140471E+00
         21   -1    0    0  504  503  0.00000000000E+00  0.00000000000E+00  0.35447113853E+03  0.35447113853E+03  0.00000000000E+00 0.  1.
         21   -1    0    0  502  504 -0.00000000000E+00 -0.00000000000E+00 -0.26059583681E+03  0.26059583681E+03  0.00000000000E+00 0.  1.
          6    2    1    2  502    0 -0.24852515176E+02  0.11816218197E+03  0.26794418797E+03  0.34119155271E+03  0.17331370118E+03 0.  0.
         24    2    3    3    0    0 -0.73324336717E+02  0.65978922624E+02  0.22432730599E+03  0.25754268880E+03  0.79220071689E+02 0.  0.
         -6    2    1    2    0  503  0.24852515176E+02 -0.11816218197E+03 -0.17406888626E+03  0.27387542263E+03  0.17357367658E+03 0.  0.
        -24    2    5    5    0    0  0.76374574755E+02 -0.93483259595E+02 -0.10378983473E+03  0.18318470141E+03  0.90620690485E+02 0.  0.
          4    1    4    4  501    0 -0.34921383623E+02  0.13081248264E+02  0.18584728650E+02  0.41665504068E+02  0.00000000000E+00 0. -1.
         -3    1    4    4    0  501 -0.38402953094E+02  0.52897674360E+02  0.20574257734E+03  0.21587718474E+03  0.00000000000E+00 0.  1.
          5    1    3    3  502    0  0.48471821541E+02  0.52183259344E+02  0.43616881984E+02  0.83648863909E+02  0.47000000000E+01 0. -1.
         13    1    6    6    0    0  0.27329562144E+02  0.11259016914E+02 -0.28855345673E+01  0.29698429901E+02  0.00000000000E+00 0. -1.
        -14    1    6    6    0    0  0.49045012611E+02 -0.10474227651E+03 -0.10090430017E+03  0.15348627151E+03  0.00000000000E+00 0.  1.
         -5    1    5    5    0  503 -0.51522059579E+02 -0.24678922372E+02 -0.70279051521E+02  0.90690721220E+02  0.47000000000E+01 0.  1.
<mgrwt>
<rscale>  2 0.21138876E+03</rscale>
<asrwt>0</asrwt>
<pdfrwt beam="1">  1       21 0.54534021E-01 0.21144212E+03</pdfrwt>
<pdfrwt beam="2">  1       21 0.40091667E-01 0.21144212E+03</pdfrwt>
<totfact> 0.18827607E+04</totfact>
</mgrwt>
</event>
<event>
12    1  0.1473662E-001  0.2014789E+03  0.7546771E-02  0.1149105E+00
         21   -1    0    0  504  503  0.00000000000E+00  0.00000000000E+00  0.15129759093E+03  0.15129759093E+03  0.00000000000E+00 0.  1.
         21   -1    0    0  502  504 -0.00000000000E+00 -0.00000000000E+00 -0.29374760146E+03  0.29374760146E+03  0.00000000000E+00 0. -1.
          6    2    1    2  502    0  0.21924404836E+02 -0.98831065565E+02 -0.14413804107E+01  0.20148401798E+03  0.17419952031E+03 0.  0.
         24    2    3    3    0    0  0.68587575983E+02 -0.65239690347E+02 -0.55674651676E+02  0.12230592920E+03  0.53838654355E+02 0.  0.
         -6    2    1    2    0  503 -0.21924404836E+02  0.98831065565E+02 -0.14100863012E+03  0.24356117441E+03  0.17085184478E+03 0.  0.
        -24    2    5    5    0    0  0.10113019816E+02  0.13067563450E+03 -0.10984054159E+03  0.18847929998E+03  0.79253437286E+02 0.  0.
          4    1    4    4  501    0 -0.51816605030E+01 -0.23646108309E+02 -0.11892650463E+02  0.26970783800E+02  0.00000000000E+00 0. -1.
         -3    1    4    4    0  501  0.73769236486E+02 -0.41593582038E+02 -0.43782001213E+02  0.95335145401E+02  0.00000000000E+00 0.  1.
          5    1    3    3  502    0 -0.46663171147E+02 -0.33591375218E+02  0.54233271265E+02  0.79178088779E+02  0.47000000000E+01 0. -1.
         11    1    6    6    0    0  0.19296827266E+02  0.99035825568E+02 -0.11727435778E+03  0.15470532403E+03  0.00000000000E+00 0. -1.
        -12    1    6    6    0    0 -0.91838074500E+01  0.31639808931E+02  0.74338161914E+01  0.33773975953E+02  0.00000000000E+00 0.  1.
         -5    1    5    5    0  503 -0.32037424652E+02 -0.31844568934E+02 -0.31168088524E+02  0.55081874434E+02  0.47000000000E+01 0.  1.
<mgrwt>
<rscale>  2 0.20075313E+03</rscale>
<asrwt>0</asrwt>
<pdfrwt beam="1">  1       21 0.23276553E-01 0.20147886E+03</pdfrwt>
<pdfrwt beam="2">  1       21 0.45191938E-01 0.20147886E+03</pdfrwt>
<totfact> 0.81196857E+04</totfact>
</mgrwt>
</event>
<event>
12    1  0.1473662E-001  0.1804198E+03  0.7546771E-02  0.1167806E+00
         21   -1    0    0  504  503  0.00000000000E+00  0.00000000000E+00  0.20696129829E+04  0.20696129829E+04  0.00000000000E+00 0.  1.
         21   -1    0    0  502  504 -0.00000000000E+00 -0.00000000000E+00 -0.44506431055E+02  0.44506431055E+02  0.00000000000E+00 0.  1.
          6    2    1    2  502    0 -0.38575631480E+02  0.33182369665E+02  0.16205606449E+03  0.24251488907E+03  0.17309579539E+03 0.  0.
         24    2    3    3    0    0 -0.19282969878E+02  0.36770640890E+02  0.11917913105E+02  0.91026813686E+02  0.80124473155E+02 0.  0.
         -6    2    1    2    0  503  0.38575631480E+02 -0.33182369665E+02  0.18630504873E+04  0.18716045249E+04  0.17133951714E+03 0.  0.
        -24    2    5    5    0    0  0.50692192335E+02 -0.25639407695E+02  0.57140455548E+03  0.57987118915E+03  0.80748699006E+02 0.  0.
          2    1    4    4  501    0  0.21662543388E+02 -0.11730782601E+02  0.12337550161E+02  0.27551627728E+02  0.00000000000E+00 0. -1.
         -1    1    4    4    0  501 -0.40945513266E+02  0.48501423490E+02 -0.41963705599E+00  0.63475185959E+02  0.00000000000E+00 0.  1.
          5    1    3    3  502    0 -0.19292661602E+02 -0.35882712246E+01  0.15013815138E+03  0.15148807538E+03  0.47000000000E+01 0. -1.
         13    1    6    6    0    0 -0.13115087933E+02  0.13923703745E+02  0.20269752502E+03  0.20359803954E+03  0.00000000000E+00 0. -1.
        -14    1    6    6    0    0  0.63807280268E+02 -0.39563111440E+02  0.36870703047E+03  0.37627314961E+03  0.00000000000E+00 0.  1.
         -5    1    5    5    0  503 -0.12116560855E+02 -0.75429619701E+01  0.12916459318E+04  0.12917333357E+04  0.47000000000E+01 0.  1.
<mgrwt>
<rscale>  2 0.17999724E+03</rscale>
<asrwt>0</asrwt>
<pdfrwt beam="1">  1       21 0.31840192E+00 0.18041980E+03</pdfrwt>
<pdfrwt beam="2">  1       21 0.68471449E-02 0.18041980E+03</pdfrwt>
<totfact> 0.42668056E+03</totfact>
</mgrwt>
</event>
<event>
12    1  0.1473662E-001  0.1984837E+03  0.7546771E-02  0.1151244E+00
         21   -1    0    0  504  503  0.00000000000E+00  0.00000000000E+00  0.74990622797E+02  0.74990622797E+02  0.00000000000E+00 0.  1.
         21   -1    0    0  502  504 -0.00000000000E+00 -0.00000000000E+00 -0.83516111147E+03  0.83516111147E+03  0.00000000000E+00 0. -1.
          6    2    1    2  502    0 -0.90034565425E+02  0.41297012578E+02 -0.65785439133E+03  0.68684842993E+03  0.17081188274E+03 0.  0.
         24    2    3    3    0    0  0.96740656867E+01  0.48039427232E+01 -0.17645150787E+03  0.19385311405E+03  0.79543885926E+02 0.  0.
         -6    2    1    2    0  503  0.90034565425E+02 -0.41297012578E+02 -0.10231609734E+03  0.22330330434E+03  0.17200033643E+03 0.  0.
        -24    2    5    5    0    0 -0.12995763115E+02  0.17269001404E+02 -0.60964215185E+02  0.97695602540E+02  0.73216712260E+02 0.  0.
          2    1    4    4  501    0  0.37200790679E+02 -0.15563430382E+02 -0.58647945355E+02  0.71173735934E+02  0.00000000000E+00 0. -1.
         -1    1    4    4    0  501 -0.27526724993E+02  0.20367373106E+02 -0.11780356251E+03  0.12267937812E+03  0.00000000000E+00 0.  1.
          5    1    3    3  502    0 -0.99708631111E+02  0.36493069855E+02 -0.48140288346E+03  0.49299531587E+03  0.47000000000E+01 0. -1.
         11    1    6    6    0    0 -0.14717850634E+02 -0.23331322520E+02 -0.42280397313E+01  0.27907741897E+02  0.00000000000E+00 0. -1.
        -12    1    6    6    0    0  0.17220875192E+01  0.40600323924E+02 -0.56736175453E+02  0.69787860644E+02  0.00000000000E+00 0.  1.
         -5    1    5    5    0  503  0.10303032854E+03 -0.58566013982E+02 -0.41351882157E+02  0.12560770180E+03  0.47000000000E+01 0.  1.
<mgrwt>
<rscale>  2 0.19822596E+03</rscale>
<asrwt>0</asrwt>
<pdfrwt beam="1">  1       21 0.11537018E-01 0.19848371E+03</pdfrwt>
<pdfrwt beam="2">  1       21 0.12848633E+00 0.19848371E+03</pdfrwt>
<totfact> 0.27928358E+04</totfact>
</mgrwt>
</event>
<event>
12    1  0.1473662E-001  0.2190009E+03  0.7546771E-02  0.1135030E+00
         21   -1    0    0  504  503  0.00000000000E+00  0.00000000000E+00  0.78208826654E+03  0.78208826654E+03  0.00000000000E+00 0. -1.
         21   -1    0    0  502  504 -0.00000000000E+00 -0.00000000000E+00 -0.66298310140E+02  0.66298310140E+02  0.00000000000E+00 0.  1.
          6    2    1    2  502    0 -0.25540387619E+02  0.12980443327E+03  0.23657971541E+03  0.32238389781E+03  0.17452768699E+03 0.  0.
         24    2    3    3    0    0 -0.74042640163E+02  0.64111178215E+02  0.18490878582E+03  0.22563656076E+03  0.84427736810E+02 0.  0.
         -6    2    1    2    0  503  0.25540387619E+02 -0.12980443327E+03  0.47921024099E+03  0.52600267887E+03  0.17185709416E+03 0.  0.
        -24    2    5    5    0    0 -0.10894048866E+02 -0.66788455428E+02  0.11962835808E+03  0.15909710227E+03  0.80134672980E+02 0.  0.
          4    1    4    4  501    0 -0.38258258854E+01  0.48622398298E+02  0.37146809489E+02  0.61307911522E+02  0.00000000000E+00 0. -1.
         -3    1    4    4    0  501 -0.70216814278E+02  0.15488779917E+02  0.14776197633E+03  0.16432864924E+03  0.00000000000E+00 0.  1.
          5    1    3    3  502    0  0.48502252544E+02  0.65693255058E+02  0.51670929589E+02  0.96747337051E+02  0.47000000000E+01 0. -1.
         13    1    6    6    0    0 -0.28756214803E+02 -0.18486782359E+02  0.64998613772E+01  0.34798408149E+02  0.00000000000E+00 0. -1.
        -14    1    6    6    0    0  0.17862165936E+02 -0.48301673069E+02  0.11312849670E+03  0.12429869412E+03  0.00000000000E+00 0.  1.
         -5    1    5    5    0  503  0.36434436485E+02 -0.63015977844E+02  0.35958188291E+03  0.36690557660E+03  0.47000000000E+01 0.  1.
<mgrwt>
<rscale>  2 0.21846844E+03</rscale>
<asrwt>0</asrwt>
<pdfrwt beam="1">  1       21 0.12032127E+00 0.21900095E+03</pdfrwt>
<pdfrwt beam="2">  1       21 0.10199741E-01 0.21900095E+03</pdfrwt>
<totfact> 0.40525180E+04</totfact>
</mgrwt>
</event>
<event>
12    1  0.1473662E-001  0.1812225E+03  0.7546771E-02  0.1167125E+00
         21   -1    0    0  504  503  0.00000000000E+00  0.00000000000E+00  0.13054901214E+04  0.13054901214E+04  0.00000000000E+00 0.  1.
         21   -1    0    0  502  504 -0.00000000000E+00 -0.00000000000E+00 -0.28405944872E+02  0.28405944872E+02  0.00000000000E+00 0.  1.
          6    2    1    2  502    0 -0.25353067322E+02  0.46307995000E+02  0.40002310723E+03  0.43830814793E+03  0.17119678093E+03 0.  0.
         24    2    3    3    0    0 -0.29498769315E+02 -0.39632970776E+02  0.21613697722E+03  0.23523369052E+03  0.78605002830E+02 0.  0.
         -6    2    1    2    0  503  0.25353067322E+02 -0.46307995000E+02  0.87706106930E+03  0.89558791834E+03  0.17336202518E+03 0.  0.
        -24    2    5    5    0    0  0.53341342339E+02  0.28520520929E+02  0.55050820752E+03  0.55937145255E+03  0.78602903647E+02 0.  0.
          2    1    4    4  501    0 -0.41890875952E+02 -0.51214580340E+02  0.20376841883E+03  0.21424132944E+03  0.00000000000E+00 0. -1.
         -1    1    4    4    0  501  0.12392106638E+02  0.11581609564E+02  0.12368558387E+02  0.20992361077E+02  0.00000000000E+00 0.  1.
          5    1    3    3  502    0  0.41457019928E+01  0.85940965776E+02  0.18388613002E+03  0.20307445742E+03  0.47000000000E+01 0. -1.
         11    1    6    6    0    0  0.71419177266E+02  0.30655938425E+02  0.37812643113E+03  0.38603119481E+03  0.00000000000E+00 0. -1.
        -12    1    6    6    0    0 -0.18077834927E+02 -0.21354174957E+01  0.17238177639E+03  0.17334025774E+03  0.00000000000E+00 0.  1.
         -5    1    5    5    0  503 -0.27988275017E+02 -0.74828515929E+02  0.32655286177E+03  0.33621646579E+03  0.47000000000E+01 0.  1.
<mgrwt>
<rscale>  2 0.18070273E+03</rscale>
<asrwt>0</asrwt>
<pdfrwt beam="1">  1       21 0.20084459E+00 0.18122252E+03</pdfrwt>
<pdfrwt beam="2">  1       21 0.43701464E-02 0.18122252E+03</pdfrwt>
<totfact> 0.45127530E+04</totfact>
</mgrwt>
</event>
<event>
12    1  0.1473662E-001  0.2001653E+03  0.7546771E-02  0.1150831E+00
         21   -1    0    0  504  503  0.00000000000E+00  0.00000000000E+00  0.83013334697E+03  0.83013334697E+03  0.00000000000E+00 0. -1.
         21   -1    0    0  502  504 -0.00000000000E+00 -0.00000000000E+00 -0.48999579457E+02  0.48999579457E+02  0.00000000000E+00 0. -1.
          6    2    1    2  502    0 -0.86540675987E+02  0.51919360784E+02  0.30476919960E+03  0.36462365640E+03  0.17286190199E+03 0.  0.
         24    2    3    3    0    0  0.10519707415E+02 -0.83916158647E+01  0.16242227112E+03  0.18202335526E+03  0.81058153465E+02 0.  0.
         -6    2    1    2    0  503  0.86540675987E+02 -0.51919360784E+02  0.47636456792E+03  0.51450927003E+03  0.16616762245E+03 0.  0.
        -24    2    5    5    0    0  0.53361341415E+02 -0.21246311843E+02  0.12213335230E+03  0.15737687400E+03  0.80944957849E+02 0.  0.
          4    1    4    4  501    0 -0.85647095877E-01 -0.35575373181E+02  0.14204730300E+03  0.14643445907E+03  0.00000000000E+00 0. -1.
         -3    1    4    4    0  501  0.10605354511E+02  0.27183757317E+02  0.20374968112E+02  0.35588896186E+02  0.00000000000E+00 0.  1.
          5    1    3    3  502    0 -0.97060383402E+02  0.60310976648E+02  0.14234692848E+03  0.18260030114E+03  0.47000000000E+01 0. -1.
         13    1    6    6    0    0  0.18336079563E+02  0.30601932799E+02  0.55449082897E+02  0.65933988950E+02  0.00000000000E+00 0. -1.
        -14    1    6    6    0    0  0.35025261851E+02 -0.51848244642E+02  0.66684269401E+02  0.91442885047E+02  0.00000000000E+00 0.  1.
         -5    1    5    5    0  503  0.33179334572E+02 -0.30673048941E+02  0.35423121562E+03  0.35713239603E+03  0.47000000000E+01 0.  1.
<mgrwt>
<rscale>  2 0.19871157E+03</rscale>
<asrwt>0</asrwt>
<pdfrwt beam="1">  1       21 0.12771281E+00 0.20016530E+03</pdfrwt>
<pdfrwt beam="2">  1       21 0.75383975E-02 0.20016530E+03</pdfrwt>
<totfact> 0.59909573E+04</totfact>
</mgrwt>
</event>
<event>
12    1  0.1473662E-001  0.2720329E+03  0.7546771E-02  0.1100157E+00
         21   -1    0    0  504  503  0.00000000000E+00  0.00000000000E+00  0.30056639978E+03  0.30056639978E+03  0.00000000000E+00 0.  1.
         21   -1    0    0  502  504 -0.00000000000E+00 -0.00000000000E+00 -0.30560739279E+03  0.30560739279E+03  0.00000000000E+00 0. -1.
          6    2    1    2  502    0  0.15390782906E+03  0.14233906002E+03 -0.13639672532E+03  0.30408737189E+03  0.17296541624E+03 0.  0.
         24    2    3    3    0    0  0.28695303827E+02  0.83791182847E+02 -0.16382491364E+02  0.12097118815E+03  0.80754316015E+02 0.  0.
         -6    2    1    2    0  503 -0.15390782906E+03 -0.14233906002E+03  0.13135573230E+03  0.30208642068E+03  0.17336046060E+03 0.  0.
        -24    2    5    5    0    0 -0.25588339919E+02 -0.62267272950E+02  0.47932453492E+01  0.10481114225E+03  0.80189924040E+02 0.  0.
          4    1    4    4  501    0  0.20344582717E+02  0.99032745023E+02 -0.73060457836E+01  0.10136451518E+03  0.00000000000E+00 0. -1.
         -3    1    4    4    0  501  0.83507211099E+01 -0.15241562177E+02 -0.90764455804E+01  0.19606672972E+02  0.00000000000E+00 0.  1.
          5    1    3    3  502    0  0.12521252523E+03  0.58547877169E+02 -0.12001423396E+03  0.18311618374E+03  0.47000000000E+01 0. -1.
         13    1    6    6    0    0 -0.50858851115E+02 -0.58221172280E+02 -0.48585495038E+01  0.77459235355E+02  0.00000000000E+00 0. -1.
        -14    1    6    6    0    0  0.25270511196E+02 -0.40461006702E+01  0.96517948530E+01  0.27351906892E+02  0.00000000000E+00 0.  1.
         -5    1    5    5    0  503 -0.12831948914E+03 -0.80071787065E+02  0.12656248695E+03  0.19727527843E+03  0.47000000000E+01 0.  1.
<mgrwt>
<rscale>  2 0.27196994E+03</rscale>
<asrwt>0</asrwt>
<pdfrwt beam="1">  1       21 0.46240985E-01 0.27203286E+03</pdfrwt>
<pdfrwt beam="2">  1       21 0.47016522E-01 0.27203286E+03</pdfrwt>
<totfact> 0.18602764E+04</totfact>
</mgrwt>
</event>
<event>
12    1  0.1473662E-001  0.2435759E+03  0.7546771E-02  0.1117508E+00
         21   -1    0    0  504  503  0.00000000000E+00  0.00000000000E+00  0.75645555376E+03  0.75645555376E+03  0.00000000000E+00 0.  1.
         21   -1    0    0  502  504 -0.00000000000E+00 -0.00000000000E+00 -0.79572435660E+02  0.79572435660E+02  0.00000000000E+00 0. -1.
          6    2    1    2  502    0 -0.14595514194E+03 -0.88128808507E+02  0.28491281784E+03  0.37454131603E+03  0.17330981881E+03 0.  0.
         24    2    3    3    0    0 -0.11363313923E+03  0.59620706156E+01  0.13331037702E+03  0.19314893621E+03  0.81159215873E+02 0.  0.
         -6    2    1    2    0  503  0.14595514194E+03  0.88128808507E+02  0.39197030026E+03  0.46148667339E+03  0.17395299102E+03 0.  0.
        -24    2    5    5    0    0  0.29348935688E+02  0.74008340653E+01  0.97796923717E+02  0.13487669397E+03  0.87814303595E+02 0.  0.
          4    1    4    4  501    0 -0.87873778412E+02 -0.29188320047E+02  0.69052304257E+02  0.11550748756E+03  0.00000000000E+00 0. -1.
         -3    1    4    4    0  501 -0.25759360822E+02  0.35150390662E+02  0.64258072759E+02  0.77641448649E+02  0.00000000000E+00 0.  1.
          5    1    3    3  502    0 -0.32322002702E+02 -0.94090879123E+02  0.15160244082E+03  0.18139237982E+03  0.47000000000E+01 0. -1.
         13    1    6    6    0    0 -0.13244276661E+02  0.11006170025E+02  0.89741464167E+02  0.91378755921E+02  0.00000000000E+00 0. -1.
        -14    1    6    6    0    0  0.42593212350E+02 -0.36053359601E+01  0.80554595507E+01  0.43497938046E+02  0.00000000000E+00 0.  1.
         -5    1    5    5    0  503  0.11660620625E+03  0.80727974442E+02  0.29417337655E+03  0.32660997943E+03  0.47000000000E+01 0.  1.
<mgrwt>
<rscale>  2 0.24346112E+03</rscale>
<asrwt>0</asrwt>
<pdfrwt beam="1">  1       21 0.11637777E+00 0.24357593E+03</pdfrwt>
<pdfrwt beam="2">  1       21 0.12241914E-01 0.24357593E+03</pdfrwt>
<totfact> 0.31375215E+04</totfact>
</mgrwt>
</event>
<event>
12    1  0.1473662E-001  0.1901646E+03  0.7546771E-02  0.1159482E+00
         21   -1    0    0  504  503  0.00000000000E+00  0.00000000000E+00  0.31109755915E+03  0.31109755915E+03  0.00000000000E+00 0.  1.
         21   -1    0    0  502  504 -0.00000000000E+00 -0.00000000000E+00 -0.11387528337E+03  0.11387528337E+03  0.00000000000E+00 0.  1.
          6    2    1    2  502    0  0.72895437051E+01 -0.71275221657E+02  0.11438401269E+03  0.21754875031E+03  0.17061788222E+03 0.  0.
         24    2    3    3    0    0 -0.28147350962E+01 -0.11306437768E+03  0.10317007778E+03  0.17286908662E+03  0.80300559948E+02 0.  0.
         -6    2    1    2    0  503 -0.72895437051E+01  0.71275221657E+02  0.82838263094E+02  0.20742409221E+03  0.17615130293E+03 0.  0.
        -24    2    5    5    0    0 -0.44009361175E+02  0.52596916781E+02 -0.83643680193E+01  0.10723809523E+03  0.82016991472E+02 0.  0.
          2    1    4    4  501    0 -0.19344696875E+02 -0.61653160667E+02  0.10290761632E+02  0.65431103402E+02  0.00000000000E+00 0. -1.
         -1    1    4    4    0  501  0.16529961779E+02 -0.51411217010E+02  0.92879316145E+02  0.10743798322E+03  0.00000000000E+00 0.  1.
          5    1    3    3  502    0  0.10104278801E+02  0.41789156020E+02  0.11213934914E+02  0.44679663688E+02  0.47000000000E+01 0. -1.
         13    1    6    6    0    0 -0.28253541001E+02  0.94150669571E+00 -0.36640744117E+02  0.46278430650E+02  0.00000000000E+00 0. -1.
        -14    1    6    6    0    0 -0.15755820174E+02  0.51655410085E+02  0.28276376098E+02  0.60959664579E+02  0.00000000000E+00 0.  1.
         -5    1    5    5    0  503  0.36719817470E+02  0.18678304876E+02  0.91202631113E+02  0.10018599698E+03  0.47000000000E+01 0.  1.
<mgrwt>
<rscale>  2 0.18887302E+03</rscale>
<asrwt>0</asrwt>
<pdfrwt beam="1">  1       21 0.47861163E-01 0.19016460E+03</pdfrwt>
<pdfrwt beam="2">  1       21 0.17519274E-01 0.19016460E+03</pdfrwt>
<totfact> 0.12327298E+05</totfact>
</mgrwt>
</event>
<event>
12    1  0.1473662E-001  0.2603762E+03  0.7546771E-02  0.1107006E+00
         21   -1    0    0  504  503  0.00000000000E+00  0.00000000000E+00  0.13659862734E+03  0.13659862734E+03  0.00000000000E+00 0.  1.
         21   -1    0    0  502  504 -0.00000000000E+00 -0.00000000000E+00 -0.86960809687E+03  0.86960809687E+03  0.00000000000E+00 0.  1.
          6    2    1    2  502    0  0.19022300499E+03  0.36189960787E+02 -0.69639051092E+03  0.74326815355E+03  0.17318573697E+03 0.  0.
         24    2    3    3    0    0  0.12683653081E+03  0.55925115367E+02 -0.62692943739E+03  0.64706912979E+03  0.80267148870E+02 0.  0.
         -6    2    1    2    0  503 -0.19022300499E+03 -0.36189960787E+02 -0.36618958599E+02  0.26293857066E+03  0.17407251053E+03 0.  0.
        -24    2    5    5    0    0 -0.15007936411E+03 -0.89095748403E+02 -0.35983033549E+02  0.19635757737E+03  0.82459999831E+02 0.  0.
          4    1    4    4  501    0  0.79420438474E+02  0.86375148045E+01 -0.20787157791E+03  0.22269442205E+03  0.00000000000E+00 0. -1.
         -3    1    4    4    0  501  0.47416092333E+02  0.47287600562E+02 -0.41905785948E+03  0.42437470774E+03  0.00000000000E+00 0.  1.
          5    1    3    3  502    0  0.63386474187E+02 -0.19735154580E+02 -0.69461073534E+02  0.96199023761E+02  0.47000000000E+01 0. -1.
         13    1    6    6    0    0 -0.12257816057E+02 -0.45024259636E+01 -0.32038272180E+02  0.34597352187E+02  0.00000000000E+00 0. -1.
        -14    1    6    6    0    0 -0.13782154806E+03 -0.84593322439E+02 -0.39447613689E+01  0.16176022519E+03  0.00000000000E+00 0.  1.
         -5    1    5    5    0  503 -0.40143640879E+02  0.52905787615E+02 -0.63592504999E+00  0.66580993286E+02  0.47000000000E+01 0.  1.
<mgrwt>
<rscale>  2 0.26022803E+03</rscale>
<asrwt>0</asrwt>
<pdfrwt beam="1">  1       21 0.21015174E-01 0.26037616E+03</pdfrwt>
<pdfrwt beam="2">  1       21 0.13378586E+00 0.26037616E+03</pdfrwt>
<totfact> 0.80804526E+03</totfact>
</mgrwt>
</event>
<event>
12    1  0.1473662E-001  0.1812360E+03  0.7546771E-02  0.1166903E+00
         21   -1    0    0  504  503  0.00000000000E+00  0.00000000000E+00  0.47645122646E+03  0.47645122646E+03  0.00000000000E+00 0. -1.
         21   -1    0    0  502  504 -0.00000000000E+00 -0.00000000000E+00 -0.11339102777E+03  0.11339102777E+03  0.00000000000E+00 0. -1.
          6    2    1    2  502    0 -0.18502138348E+02  0.51701477336E+02 -0.37078534286E+01  0.18127395487E+03  0.17271689742E+03 0.  0.
         24    2    3    3    0    0  0.22139168298E+02 -0.25819671896E+02  0.16774821587E+02  0.91257987620E+02  0.83004984401E+02 0.  0.
         -6    2    1    2    0  503  0.18502138348E+02 -0.51701477336E+02  0.36676805211E+03  0.40856829936E+03  0.17144643277E+03 0.  0.
        -24    2    5    5    0    0 -0.12005057359E+02 -0.23999145973E+02  0.86586450794E+02  0.12533354184E+03  0.86551735042E+02 0.  0.
          2    1    4    4  501    0  0.43925032675E+01 -0.43893704764E+02  0.37990279831E+02  0.58216945682E+02  0.00000000000E+00 0. -1.
         -1    1    4    4    0  501  0.17746665030E+02  0.18074032868E+02 -0.21215458244E+02  0.33041041938E+02  0.00000000000E+00 0.  1.
          5    1    3    3  502    0 -0.40641306646E+02  0.77521149233E+02 -0.20482675015E+02  0.90015967250E+02  0.47000000000E+01 0. -1.
         11    1    6    6    0    0  0.10568123111E+02  0.13486502049E+02  0.79107135857E+02  0.80941397981E+02  0.00000000000E+00 0. -1.
        -12    1    6    6    0    0 -0.22573180470E+02 -0.37485648022E+02  0.74793149362E+01  0.44392143856E+02  0.00000000000E+00 0.  1.
         -5    1    5    5    0  503  0.30507195707E+02 -0.27702331363E+02  0.28018160132E+03  0.28323475752E+03  0.47000000000E+01 0.  1.
<mgrwt>
<rscale>  2 0.18093269E+03</rscale>
<asrwt>0</asrwt>
<pdfrwt beam="1">  1       21 0.73300187E-01 0.18123603E+03</pdfrwt>
<pdfrwt beam="2">  1       21 0.17444774E-01 0.18123603E+03</pdfrwt>
<totfact> 0.50048153E+04</totfact>
</mgrwt>
</event>
<event>
12    1  0.1473662E-001  0.2015029E+03  0.7546771E-02  0.1148950E+00
         21   -1    0    0  504  503  0.00000000000E+00  0.00000000000E+00  0.13163790869E+03  0.13163790869E+03  0.00000000000E+00 0.  1.
         21   -1    0    0  502  504 -0.00000000000E+00 -0.00000000000E+00 -0.42661597600E+03  0.42661597600E+03  0.00000000000E+00 0.  1.
          6    2    1    2  502    0  0.59519405525E+01  0.10517912238E+03 -0.29710052495E+03  0.35898768219E+03  0.17177124514E+03 0.  0.
         24    2    3    3    0    0 -0.33035177048E+02  0.20565804055E+02 -0.52050574776E+02  0.96783606979E+02  0.71718400891E+02 0.  0.
         -6    2    1    2    0  503 -0.59519405525E+01 -0.10517912238E+03  0.21224576412E+01  0.19926620250E+03  0.16912847558E+03 0.  0.
        -24    2    5    5    0    0 -0.52502534005E+01  0.52267706025E+01 -0.26460002941E+02  0.85121554691E+02  0.80564651216E+02 0.  0.
          2    1    4    4  501    0  0.19287572439E+02 -0.90164997111E+01 -0.10712025473E+02  0.23833908772E+02  0.00000000000E+00 0. -1.
         -1    1    4    4    0  501 -0.52322749487E+02  0.29582303767E+02 -0.41338549303E+02  0.72949698207E+02  0.00000000000E+00 0.  1.
          5    1    3    3  502    0  0.38987117600E+02  0.84613318327E+02 -0.24504995017E+03  0.26220407521E+03  0.47000000000E+01 0. -1.
         11    1    6    6    0    0  0.17078547494E+02 -0.28773510390E+02 -0.29120986946E+02  0.44357903077E+02  0.00000000000E+00 0. -1.
        -12    1    6    6    0    0 -0.22328800895E+02  0.34000280993E+02  0.26609840051E+01  0.40763651613E+02  0.00000000000E+00 0.  1.
         -5    1    5    5    0  503 -0.70168715208E+00 -0.11040589299E+03  0.28582460582E+02  0.11414464781E+03  0.47000000000E+01 0.  1.
<mgrwt>
<rscale>  2 0.20093856E+03</rscale>
<asrwt>0</asrwt>
<pdfrwt beam="1">  1       21 0.20251986E-01 0.20150294E+03</pdfrwt>
<pdfrwt beam="2">  1       21 0.65633228E-01 0.20150294E+03</pdfrwt>
<totfact> 0.47906841E+04</totfact>
</mgrwt>
</event>
<event>
12    1  0.1473662E-001  0.2695263E+03  0.7546771E-02  0.1101674E+00
         21   -1    0    0  504  503  0.00000000000E+00  0.00000000000E+00  0.12943259893E+03  0.12943259893E+03  0.00000000000E+00 0. -1.
         21   -1    0    0  502  504 -0.00000000000E+00 -0.00000000000E+00 -0.59551217479E+03  0.59551217479E+03  0.00000000000E+00 0.  1.
          6    2    1    2  502    0  0.17568071880E+03  0.10678567137E+03 -0.32185506374E+03  0.41925684239E+03  0.17297029590E+03 0.  0.
         24    2    3    3    0    0  0.76825861765E+02  0.30459502434E+02 -0.24873740581E+03  0.27445957471E+03  0.81411097381E+02 0.  0.
         -6    2    1    2    0  503 -0.17568071880E+03 -0.10678567137E+03 -0.14422451213E+03  0.30568793133E+03  0.17429144240E+03 0.  0.
        -24    2    5    5    0    0 -0.67428532180E+02 -0.26117481788E+02  0.11780607577E+01  0.10721906495E+03  0.79156871183E+02 0.  0.
          4    1    4    4  501    0  0.16742268571E+02 -0.27161781972E+02 -0.54842053708E+02  0.63448536718E+02  0.00000000000E+00 0. -1.
         -3    1    4    4    0  501  0.60083593194E+02  0.57621284406E+02 -0.19389535211E+03  0.21101103800E+03  0.00000000000E+00 0.  1.
          5    1    3    3  502    0  0.98854857039E+02  0.76326168940E+02 -0.73117657928E+02  0.14479726768E+03  0.47000000000E+01 0. -1.
         13    1    6    6    0    0 -0.24760659447E+02  0.27804730502E+02 -0.72882180318E+01  0.37938257955E+02  0.00000000000E+00 0. -1.
        -14    1    6    6    0    0 -0.42667872734E+02 -0.53922212290E+02  0.84662787895E+01  0.69280806999E+02  0.00000000000E+00 0.  1.
         -5    1    5    5    0  503 -0.10825218662E+03 -0.80668189586E+02 -0.14540257288E+03  0.19846886638E+03  0.47000000000E+01 0.  1.
<mgrwt>
<rscale>  2 0.26931289E+03</rscale>
<asrwt>0</asrwt>
<pdfrwt beam="1">  1       21 0.19912707E-01 0.26952625E+03</pdfrwt>
<pdfrwt beam="2">  1       21 0.91617258E-01 0.26952625E+03</pdfrwt>
<totfact> 0.22533852E+04</totfact>
</mgrwt>
</event>
<event>
12    1  0.1473662E-001  0.2885926E+03  0.7546771E-02  0.1091111E+00
         21   -1    0    0  504  503  0.00000000000E+00  0.00000000000E+00  0.10904826011E+03  0.10904826011E+03  0.00000000000E+00 0.  1.
         21   -1    0    0  502  504 -0.00000000000E+00 -0.00000000000E+00 -0.11094690905E+04  0.11094690905E+04  0.00000000000E+00 0. -1.
          6    2    1    2  502    0  0.19894914332E+03  0.11682411477E+03 -0.84044190792E+03  0.88854923350E+03  0.17305636172E+03 0.  0.
         24    2    3    3    0    0  0.49888050678E+02  0.10227231760E+03 -0.42527370542E+03  0.44716766330E+03  0.78439467296E+02 0.  0.
         -6    2    1    2    0  503 -0.19894914332E+03 -0.11682411477E+03 -0.15997892242E+03  0.32996811708E+03  0.17336974146E+03 0.  0.
        -24    2    5    5    0    0 -0.43974120963E+02 -0.82435766802E+02 -0.36000009439E+02  0.12849187309E+03  0.80528142950E+02 0.  0.
          4    1    4    4  501    0  0.46171905745E+02  0.30272394011E+02 -0.10232932775E+03  0.11627361711E+03  0.00000000000E+00 0. -1.
         -3    1    4    4    0  501  0.37161449327E+01  0.71999923590E+02 -0.32294437767E+03  0.33089404619E+03  0.00000000000E+00 0.  1.
          5    1    3    3  502    0  0.14906109264E+03  0.14551797167E+02 -0.41516820250E+03  0.44138157020E+03  0.47000000000E+01 0. -1.
         13    1    6    6    0    0 -0.47287310911E+02 -0.34930287495E+02 -0.51762714359E+02  0.78330028441E+02  0.00000000000E+00 0. -1.
        -14    1    6    6    0    0  0.33131899488E+01 -0.47505479307E+02  0.15762704920E+02  0.50161844645E+02  0.00000000000E+00 0.  1.
         -5    1    5    5    0  503 -0.15497502236E+03 -0.34388347967E+02 -0.12397891299E+03  0.20147624400E+03  0.47000000000E+01 0.  1.
<mgrwt>
<rscale>  2 0.28854557E+03</rscale>
<asrwt>0</asrwt>
<pdfrwt beam="1">  1       21 0.16776655E-01 0.28859262E+03</pdfrwt>
<pdfrwt beam="2">  1       21 0.17068756E+00 0.28859262E+03</pdfrwt>
<totfact> 0.63066644E+03</totfact>
</mgrwt>
</event>
<event>
12    1  0.1473662E-001  0.2286661E+03  0.7546771E-02  0.1127790E+00
         21   -1    0    0  504  503  0.00000000000E+00  0.00000000000E+00  0.17722763630E+03  0.17722763630E+03  0.00000000000E+00 0. -1.
         21   -1    0    0  502  504 -0.00000000000E+00 -0.00000000000E+00 -0.34352005981E+03  0.34352005981E+03  0.00000000000E+00 0.  1.
          6    2    1    2  502    0 -0.13419462232E+03  0.60507746554E+02 -0.18229498460E+03  0.29152228570E+03  0.17344854452E+03 0.  0.
         24    2    3    3    0    0 -0.10439290861E+03 -0.25727197678E+02 -0.89835011579E+02  0.16153942391E+03  0.80404527882E+02 0.  0.
         -6    2    1    2    0  503  0.13419462232E+03 -0.60507746554E+02  0.16002561089E+02  0.22922541041E+03  0.17498234987E+03 0.  0.
        -24    2    5    5    0    0  0.71698881217E+02 -0.27755683087E+02  0.77502339461E+02  0.13550920020E+03  0.80280901872E+02 0.  0.
          2    1    4    4  501    0 -0.10187754316E+03  0.50893258000E+01 -0.58835214263E+02  0.11775617807E+03  0.00000000000E+00 0. -1.
         -1    1    4    4    0  501 -0.25153654530E+01 -0.30816523478E+02 -0.30999797316E+02  0.43783245840E+02  0.00000000000E+00 0.  1.
          5    1    3    3  502    0 -0.29801713708E+02  0.86234944232E+02 -0.92459973020E+02  0.12998286178E+03  0.47000000000E+01 0. -1.
         11    1    6    6    0    0  0.29123434072E+00  0.10196159937E+02  0.48559486025E+02  0.49619252089E+02  0.00000000000E+00 0. -1.
        -12    1    6    6    0    0  0.71407646876E+02 -0.37951843024E+02  0.28942853437E+02  0.85889948110E+02  0.00000000000E+00 0.  1.
         -5    1    5    5    0  503  0.62495741100E+02 -0.32752063466E+02 -0.61499778372E+02  0.93716210214E+02  0.47000000000E+01 0.  1.
<mgrwt>
<rscale>  2 0.22837269E+03</rscale>
<asrwt>0</asrwt>
<pdfrwt beam="1">  1       21 0.27265790E-01 0.22866615E+03</pdfrwt>
<pdfrwt beam="2">  1       21 0.52849240E-01 0.22866615E+03</pdfrwt>
<totfact> 0.42762178E+04</totfact>
</mgrwt>
</event>
<event>
12    1  0.1473662E-001  0.1781945E+03  0.7546771E-02  0.1169673E+00
         21   -1    0    0  504  503  0.00000000000E+00  0.00000000000E+00  0.18442291205E+03  0.18442291205E+03  0.00000000000E+00 0.  1.
         21   -1    0    0  502  504 -0.00000000000E+00 -0.00000000000E+00 -0.20666943718E+03  0.20666943718E+03  0.00000000000E+00 0.  1.
          6    2    1    2  502    0  0.25751155304E+02 -0.19242441047E+02 -0.91527639114E+02  0.20032621798E+03  0.17527090845E+03 0.  0.
         24    2    3    3    0    0  0.12429530323E+02 -0.49308221001E+02 -0.12227992630E+03  0.15505801740E+03  0.80652430225E+02 0.  0.
         -6    2    1    2    0  503 -0.25751155304E+02  0.19242441047E+02  0.69281113984E+02  0.19076613125E+03  0.17480975528E+03 0.  0.
        -24    2    5    5    0    0 -0.20187634838E+01 -0.55429344269E+02  0.18587681078E+02  0.97326224981E+02  0.77784346556E+02 0.  0.
          2    1    4    4  501    0  0.18737351915E+02 -0.19358730139E+02 -0.12148984493E+03  0.12444127615E+03  0.00000000000E+00 0. -1.
         -1    1    4    4    0  501 -0.63078215917E+01 -0.29949490862E+02 -0.79008137370E+00  0.30616741249E+02  0.00000000000E+00 0.  1.
          5    1    3    3  502    0  0.13321624980E+02  0.30065779954E+02  0.30752287187E+02  0.45268200578E+02  0.47000000000E+01 0. -1.
         13    1    6    6    0    0  0.95194700705E+01 -0.74637288546E+01 -0.27356633140E+02  0.29911752466E+02  0.00000000000E+00 0. -1.
        -14    1    6    6    0    0 -0.11538233554E+02 -0.47965615414E+02  0.45944314217E+02  0.67414472515E+02  0.00000000000E+00 0.  1.
         -5    1    5    5    0  503 -0.23732391820E+02  0.74671785316E+02  0.50693432906E+02  0.93439906269E+02  0.47000000000E+01 0.  1.
<mgrwt>
<rscale>  2 0.17808101E+03</rscale>
<asrwt>0</asrwt>
<pdfrwt beam="1">  1       21 0.28372756E-01 0.17819451E+03</pdfrwt>
<pdfrwt beam="2">  1       21 0.31795298E-01 0.17819451E+03</pdfrwt>
<totfact> 0.11354150E+05</totfact>
</mgrwt>
</event>
<event>
12    1  0.1473662E-001  0.2542685E+03  0.7546771E-02  0.1110682E+00
         21   -1    0    0  504  503  0.00000000000E+00  0.00000000000E+00  0.17528350489E+03  0.17528350489E+03  0.00000000000E+00 0.  1.
         21   -1    0    0  502  504 -0.00000000000E+00 -0.00000000000E+00 -0.40934654772E+03  0.40934654772E+03  0.00000000000E+00 0.  1.
          6    2    1    2  502    0 -0.16233085868E+03  0.91212369003E+02 -0.20940070579E+03  0.32916831241E+03  0.17271976832E+03 0.  0.
         24    2    3    3    0    0 -0.81363396825E+02  0.16403356486E+00 -0.41567488476E+02  0.12171805789E+03  0.80420148397E+02 0.  0.
         -6    2    1    2    0  503  0.16233085868E+03 -0.91212369003E+02 -0.24662337038E+02  0.25546174021E+03  0.17315156916E+03 0.  0.
        -24    2    5    5    0    0  0.10228882666E+03  0.28835034404E+01 -0.52347216962E+02  0.14036342833E+03  0.80562660325E+02 0.  0.
          4    1    4    4  501    0 -0.12992746370E+02  0.74580992395E+01  0.22965129648E+02  0.27419552918E+02  0.00000000000E+00 0. -1.
         -3    1    4    4    0  501 -0.68370650455E+02 -0.72940656746E+01 -0.64532618125E+02  0.94298504971E+02  0.00000000000E+00 0.  1.
          5    1    3    3  502    0 -0.80967461855E+02  0.91048335438E+02 -0.16783321731E+03  0.20745025452E+03  0.47000000000E+01 0. -1.
         13    1    6    6    0    0  0.54868681207E+02 -0.37360437923E+02 -0.38171825393E+02  0.76573250898E+02  0.00000000000E+00 0. -1.
        -14    1    6    6    0    0  0.47420145453E+02  0.40243941364E+02 -0.14175391569E+02  0.63790177437E+02  0.00000000000E+00 0.  1.
         -5    1    5    5    0  503  0.60042032020E+02 -0.94095872444E+02  0.27684879924E+02  0.11509831188E+03  0.47000000000E+01 0.  1.
<mgrwt>
<rscale>  2 0.25419501E+03</rscale>
<asrwt>0</asrwt>
<pdfrwt beam="1">  1       21 0.26966693E-01 0.25426850E+03</pdfrwt>
<pdfrwt beam="2">  1       21 0.62976392E-01 0.25426850E+03</pdfrwt>
<totfact> 0.29653923E+04</totfact>
</mgrwt>
</event>
<event>
12    1  0.1473662E-001  0.1818310E+03  0.7546771E-02  0.1166245E+00
         21   -1    0    0  504  503  0.00000000000E+00  0.00000000000E+00  0.39010406712E+02  0.39010406712E+02  0.00000000000E+00 0. -1.
         21   -1    0    0  502  504 -0.00000000000E+00 -0.00000000000E+00 -0.11796385695E+04  0.11796385695E+04  0.00000000000E+00 0. -1.
          6    2    1    2  502    0 -0.51450632263E+02  0.17258748723E+02 -0.89457812035E+03  0.91270270498E+03  0.17265915061E+03 0.  0.
         24    2    3    3    0    0  0.40401532660E+02  0.17059549934E+02 -0.40264083927E+03  0.41224167912E+03  0.76813048830E+02 0.  0.
         -6    2    1    2    0  503  0.51450632263E+02 -0.17258748723E+02 -0.24605004247E+03  0.30594627127E+03  0.17354384327E+03 0.  0.
        -24    2    5    5    0    0 -0.70419515805E+01 -0.62194227733E+02 -0.17670269824E+03  0.20459675825E+03  0.81965107663E+02 0.  0.
          4    1    4    4  501    0  0.76806874966E+01  0.19762552590E+02 -0.23379583823E+02  0.31561945204E+02  0.00000000000E+00 0. -1.
         -3    1    4    4    0  501  0.32720845164E+02 -0.27030026567E+01 -0.37926125544E+03  0.38067973391E+03  0.00000000000E+00 0.  1.
          5    1    3    3  502    0 -0.91852164923E+02  0.19919878908E+00 -0.49193728109E+03  0.50046102586E+03  0.47000000000E+01 0. -1.
         11    1    6    6    0    0 -0.27702930060E+01 -0.71953543306E+02 -0.81308969128E+02  0.10861001509E+03  0.00000000000E+00 0. -1.
        -12    1    6    6    0    0 -0.42716585744E+01  0.97593155726E+01 -0.95393729114E+02  0.95986743156E+02  0.00000000000E+00 0.  1.
         -5    1    5    5    0  503  0.58492583843E+02  0.44935479011E+02 -0.69347344227E+02  0.10134951302E+03  0.47000000000E+01 0.  1.
<mgrwt>
<rscale>  2 0.18161955E+03</rscale>
<asrwt>0</asrwt>
<pdfrwt beam="1">  1       21 0.60016023E-02 0.18183096E+03</pdfrwt>
<pdfrwt beam="2">  1       21 0.18148282E+00 0.18183096E+03</pdfrwt>
<totfact> 0.35292074E+04</totfact>
</mgrwt>
</event>
<event>
12    1  0.1473662E-001  0.1928108E+03  0.7546771E-02  0.1155962E+00
         21   -1    0    0  504  503  0.00000000000E+00  0.00000000000E+00  0.15483538923E+03  0.15483538923E+03  0.00000000000E+00 0.  1.
         21   -1    0    0  502  504 -0.00000000000E+00 -0.00000000000E+00 -0.29837837032E+03  0.29837837032E+03  0.00000000000E+00 0. -1.
          6    2    1    2  502    0 -0.20194892236E+02  0.82421571157E+02 -0.17196705444E+03  0.25831908680E+03  0.17307493674E+03 0.  0.
         24    2    3    3    0    0 -0.66506319674E+02  0.31578838002E+02 -0.15015139296E+03  0.18601594087E+03  0.81462726953E+02 0.  0.
         -6    2    1    2    0  503  0.20194892236E+02 -0.82421571157E+02  0.28424073343E+02  0.19489467275E+03  0.17313248238E+03 0.  0.
        -24    2    5    5    0    0  0.19704589435E+02 -0.95100888716E+02  0.75067069162E+02  0.14632858839E+03  0.79652627260E+02 0.  0.
          4    1    4    4  501    0 -0.41427765638E+02  0.13698000966E+02 -0.14893119896E+03  0.15519148501E+03  0.00000000000E+00 0. -1.
         -3    1    4    4    0  501 -0.25078554036E+02  0.17880837036E+02 -0.12201940041E+01  0.30824455860E+02  0.00000000000E+00 0.  1.
          5    1    3    3  502    0  0.46311427438E+02  0.50842733155E+02 -0.21815661478E+02  0.72303145932E+02  0.47000000000E+01 0. -1.
         13    1    6    6    0    0 -0.75258227038E+01 -0.57422760567E+02 -0.13933736788E+00  0.57913995316E+02  0.00000000000E+00 0. -1.
        -14    1    6    6    0    0  0.27230412139E+02 -0.37678128149E+02  0.75206406530E+02  0.88414593078E+02  0.00000000000E+00 0.  1.
         -5    1    5    5    0  503  0.49030280083E+00  0.12679317560E+02 -0.46642995819E+02  0.48566084355E+02  0.47000000000E+01 0.  1.
<mgrwt>
<rscale>  2 0.19279788E+03</rscale>
<asrwt>0</asrwt>
<pdfrwt beam="1">  1       21 0.23820830E-01 0.19281080E+03</pdfrwt>
<pdfrwt beam="2">  1       21 0.45904364E-01 0.19281080E+03</pdfrwt>
<totfact> 0.75537811E+04</totfact>
</mgrwt>
</event>
<event>
12    1  0.1473662E-001  0.2538903E+03  0.7546771E-02  0.1110890E+00
         21   -1    0    0  504  503  0.00000000000E+00  0.00000000000E+00  0.47609810311E+03  0.47609810311E+03  0.00000000000E+00 0.  1.
         21   -1    0    0  502  504 -0.00000000000E+00 -0.00000000000E+00 -0.13754789398E+03  0.13754789398E+03  0.00000000000E+00 0. -1.
          6    2    1    2  502    0  0.34944418451E+02 -0.18220307375E+03  0.13025419060E+03  0.28524454388E+03  0.17314509286E+03 0.  0.
         24    2    3    3    0    0  0.22003310355E+02 -0.35123126389E+02  0.97941440009E+02  0.13402884680E+03  0.81568538237E+02 0.  0.
         -6    2    1    2    0  503 -0.34944418451E+02  0.18220307375E+03  0.20829601853E+03  0.32840145321E+03  0.17332400489E+03 0.  0.
        -24    2    5    5    0    0 -0.30723334094E+02  0.10672208087E+03  0.21177317802E+03  0.25257679708E+03  0.81324250340E+02 0.  0.
          2    1    4    4  501    0 -0.19838440642E+02 -0.19108100294E+02  0.13783693344E+01  0.27578671577E+02  0.00000000000E+00 0. -1.
         -1    1    4    4    0  501  0.41841750997E+02 -0.16015026095E+02  0.96563070674E+02  0.10645017522E+03  0.00000000000E+00 0.  1.
          5    1    3    3  502    0  0.12941108095E+02 -0.14707994736E+03  0.32312750590E+02  0.15121569708E+03  0.47000000000E+01 0. -1.
         13    1    6    6    0    0 -0.54148726778E+02  0.54018440980E+02  0.14797359696E+03  0.16657209243E+03  0.00000000000E+00 0. -1.
        -14    1    6    6    0    0  0.23425392684E+02  0.52703639889E+02  0.63799581061E+02  0.86004704659E+02  0.00000000000E+00 0.  1.
         -5    1    5    5    0  503 -0.42210843567E+01  0.75480992876E+02 -0.34771594904E+01  0.75824656127E+02  0.47000000000E+01 0.  1.
<mgrwt>
<rscale>  2 0.25385977E+03</rscale>
<asrwt>0</asrwt>
<pdfrwt beam="1">  1       21 0.73245861E-01 0.25389030E+03</pdfrwt>
<pdfrwt beam="2">  1       21 0.21161215E-01 0.25389030E+03</pdfrwt>
<totfact> 0.33778387E+04</totfact>
</mgrwt>
</event>
<event>
12    1  0.1473662E-001  0.2787346E+03  0.7546771E-02  0.1096857E+00
         21   -1    0    0  504  503  0.00000000000E+00  0.00000000000E+00  0.81605144564E+03  0.81605144564E+03  0.00000000000E+00 0. -1.
         21   -1    0    0  502  504 -0.00000000000E+00 -0.00000000000E+00 -0.11249683071E+03  0.11249683071E+03  0.00000000000E+00 0. -1.
          6    2    1    2  502    0 -0.16720227946E+03 -0.14161313803E+03  0.16188843487E+03  0.31937242118E+03  0.16667331804E+03 0.  0.
         24    2    3    3    0    0 -0.25404667049E+02 -0.41665127724E+02  0.20868299461E+02  0.95754585935E+02  0.79699904825E+02 0.  0.
         -6    2    1    2    0  503  0.16720227946E+03  0.14161313803E+03  0.54166618006E+03  0.60917585517E+03  0.17228490585E+03 0.  0.
        -24    2    5    5    0    0  0.88937286856E+02  0.15590025971E+03  0.41908264504E+03  0.46296250431E+03  0.80556098780E+02 0.  0.
          2    1    4    4  501    0 -0.16705178659E+02 -0.63328436382E+02  0.28168035357E+02  0.71295105474E+02  0.00000000000E+00 0. -1.
         -1    1    4    4    0  501 -0.86994883902E+01  0.21663308658E+02 -0.72997358960E+01  0.24459480461E+02  0.00000000000E+00 0.  1.
          5    1    3    3  502    0 -0.14179761241E+03 -0.99948010310E+02  0.14102013541E+03  0.22361783525E+03  0.47000000000E+01 0. -1.
         13    1    6    6    0    0  0.80094248464E+02  0.90999861269E+02  0.19597962841E+03  0.23044322108E+03  0.00000000000E+00 0. -1.
        -14    1    6    6    0    0  0.88430383916E+01  0.64900398442E+02  0.22310301662E+03  0.23251928323E+03  0.00000000000E+00 0.  1.
         -5    1    5    5    0  503  0.78264992605E+02 -0.14287121677E+02  0.12258353502E+03  0.14621335086E+03  0.47000000000E+01 0.  1.
<mgrwt>
<rscale>  2 0.27787231E+03</rscale>
<asrwt>0</asrwt>
<pdfrwt beam="1">  1       21 0.12554637E+00 0.27873459E+03</pdfrwt>
<pdfrwt beam="2">  1       21 0.17307205E-01 0.27873459E+03</pdfrwt>
<totfact> 0.13537754E+04</totfact>
</mgrwt>
</event>
<event>
12    1  0.1473662E-001  0.1792848E+03  0.7546771E-02  0.1168993E+00
         21   -1    0    0  504  503  0.00000000000E+00  0.00000000000E+00  0.34060261868E+02  0.34060261868E+02  0.00000000000E+00 0.  1.
         21   -1    0    0  502  504 -0.00000000000E+00 -0.00000000000E+00 -0.17093611834E+04  0.17093611834E+04  0.00000000000E+00 0.  1.
          6    2    1    2  502    0  0.72941176998E+01 -0.44350714682E+02 -0.14276955191E+04  0.14389084550E+04  0.17355937406E+03 0.  0.
         24    2    3    3    0    0 -0.15581984280E+02 -0.23205017736E+02 -0.13744214715E+04  0.13770160427E+04  0.79734117586E+02 0.  0.
         -6    2    1    2    0  503 -0.72941176998E+01  0.44350714682E+02 -0.24760540240E+03  0.30451299032E+03  0.17146292874E+03 0.  0.
        -24    2    5    5    0    0  0.51811822964E+02  0.65386663129E+02 -0.16564121074E+03  0.20118708813E+03  0.77970205987E+02 0.  0.
          4    1    4    4  501    0 -0.32676588716E+02  0.19802886998E+02 -0.61698558506E+03  0.61816755492E+03  0.00000000000E+00 0. -1.
         -3    1    4    4    0  501  0.17094604435E+02 -0.43007904734E+02 -0.75743588640E+03  0.75884848777E+03  0.00000000000E+00 0.  1.
          5    1    3    3  502    0  0.22876101980E+02 -0.21145696945E+02 -0.53274047686E+02  0.61892412281E+02  0.47000000000E+01 0. -1.
         11    1    6    6    0    0  0.22964391841E+02  0.73504261673E+02 -0.82720794852E+02  0.11301756358E+03  0.00000000000E+00 0. -1.
        -12    1    6    6    0    0  0.28847431123E+02 -0.81175985446E+01 -0.82920415890E+02  0.88169524553E+02  0.00000000000E+00 0.  1.
         -5    1    5    5    0  503 -0.59105940663E+02 -0.21035948447E+02 -0.81964191658E+02  0.10332590219E+03  0.47000000000E+01 0.  1.
<mgrwt>
<rscale>  2 0.17877547E+03</rscale>
<asrwt>0</asrwt>
<pdfrwt beam="1">  1       21 0.52400398E-02 0.17928482E+03</pdfrwt>
<pdfrwt beam="2">  1       21 0.26297867E+00 0.17928482E+03</pdfrwt>
<totfact> 0.14051716E+04</totfact>
</mgrwt>
</event>
<event>
12    1  0.1473662E-001  0.2186184E+03  0.7546771E-02  0.1136302E+00
         21   -1    0    0  504  503  0.00000000000E+00  0.00000000000E+00  0.69511479310E+02  0.69511479310E+02  0.00000000000E+00 0. -1.
         21   -1    0    0  502  504 -0.00000000000E+00 -0.00000000000E+00 -0.91570383301E+03  0.91570383301E+03  0.00000000000E+00 0. -1.
          6    2    1    2  502    0  0.48410344626E+02 -0.11919008945E+03 -0.67565160136E+03  0.70794619906E+03  0.16772863637E+03 0.  0.
         24    2    3    3    0    0 -0.22634873380E+02 -0.24794875742E+02 -0.18117232645E+03  0.19952735334E+03  0.76554748403E+02 0.  0.
         -6    2    1    2    0  503 -0.48410344626E+02  0.11919008945E+03 -0.17054075234E+03  0.27726911325E+03  0.17676021630E+03 0.  0.
        -24    2    5    5    0    0 -0.84096708748E+02  0.67278014769E+02 -0.16644725933E+03  0.21396645323E+03  0.80488292788E+02 0.  0.
          2    1    4    4  501    0 -0.44658246418E+02 -0.18466066408E+02 -0.16377706338E+03  0.17075796049E+03  0.00000000000E+00 0. -1.
         -1    1    4    4    0  501  0.22023373038E+02 -0.63288093344E+01 -0.17395263069E+02  0.28769392847E+02  0.00000000000E+00 0.  1.
          5    1    3    3  502    0  0.71045218007E+02 -0.94395213703E+02 -0.49447927491E+03  0.50841884572E+03  0.47000000000E+01 0. -1.
         11    1    6    6    0    0 -0.27026232338E+02  0.41472571840E+02 -0.17700673790E+02  0.52570954928E+02  0.00000000000E+00 0. -1.
        -12    1    6    6    0    0 -0.57070476411E+02  0.25805442929E+02 -0.14874658554E+03  0.16139549830E+03  0.00000000000E+00 0.  1.
         -5    1    5    5    0  503  0.35686364122E+02  0.51912074676E+02 -0.40934930111E+01  0.63302660027E+02  0.47000000000E+01 0.  1.
<mgrwt>
<rscale>  2 0.21678665E+03</rscale>
<asrwt>0</asrwt>
<pdfrwt beam="1">  1       21 0.10694074E-01 0.21861842E+03</pdfrwt>
<pdfrwt beam="2">  1       21 0.14087751E+00 0.21861842E+03</pdfrwt>
<totfact> 0.24965894E+04</totfact>
</mgrwt>
</event>
<event>
12    1  0.1473662E-001  0.2929471E+03  0.7546771E-02  0.1088823E+00
         21   -1    0    0  504  503  0.00000000000E+00  0.00000000000E+00  0.14297670430E+03  0.14297670430E+03  0.00000000000E+00 0.  1.
         21   -1    0    0  502  504 -0.00000000000E+00 -0.00000000000E+00 -0.60841016301E+03  0.60841016301E+03  0.00000000000E+00 0. -1.
          6    2    1    2  502    0 -0.17123682837E+03 -0.16322499516E+03 -0.18904127908E+03  0.34864680614E+03  0.17278176929E+03 0.  0.
         24    2    3    3    0    0 -0.10941864218E+03 -0.14643288135E+03 -0.20102203036E+03  0.28330852003E+03  0.80242338157E+02 0.  0.
         -6    2    1    2    0  503  0.17123682837E+03  0.16322499516E+03 -0.27639217964E+03  0.40274006118E+03  0.17274973075E+03 0.  0.
        -24    2    5    5    0    0  0.15812816636E+03  0.13816592743E+03 -0.29305210908E+03  0.36958229972E+03  0.81346156212E+02 0.  0.
          4    1    4    4  501    0 -0.69134531076E+02 -0.45622575165E+02 -0.12803765729E+03  0.15249473576E+03  0.00000000000E+00 0. -1.
         -3    1    4    4    0  501 -0.40284111102E+02 -0.10081030619E+03 -0.72984373074E+02  0.13081378427E+03  0.00000000000E+00 0.  1.
          5    1    3    3  502    0 -0.61818186194E+02 -0.16792113812E+02  0.11980751282E+02  0.65338286110E+02  0.47000000000E+01 0. -1.
         13    1    6    6    0    0  0.12003954999E+03  0.69425777522E+02 -0.13738399466E+03  0.19520193169E+03  0.00000000000E+00 0. -1.
        -14    1    6    6    0    0  0.38088616361E+02  0.68740149909E+02 -0.15566811442E+03  0.17438036803E+03  0.00000000000E+00 0.  1.
         -5    1    5    5    0  503  0.13108662017E+02  0.25059067733E+02  0.16659929448E+02  0.33157761455E+02  0.47000000000E+01 0.  1.
<mgrwt>
<rscale>  2 0.29294235E+03</rscale>
<asrwt>0</asrwt>
<pdfrwt beam="1">  1       21 0.21996416E-01 0.29294708E+03</pdfrwt>
<pdfrwt beam="2">  1       21 0.93601563E-01 0.29294708E+03</pdfrwt>
<totfact> 0.17566696E+04</totfact>
</mgrwt>
</event>
<event>
12    1  0.1473662E-001  0.2607296E+03  0.7546771E-02  0.1106960E+00
         21   -1    0    0  504  503  0.00000000000E+00  0.00000000000E+00  0.22910864452E+03  0.22910864452E+03  0.00000000000E+00 0. -1.
         21   -1    0    0  502  504 -0.00000000000E+00 -0.00000000000E+00 -0.47274633380E+03  0.47274633380E+03  0.00000000000E+00 0.  1.
          6    2    1    2  502    0  0.11901369690E+03  0.15273127207E+03 -0.33687758639E+03  0.42495502780E+03  0.17207314122E+03 0.  0.
         24    2    3    3    0    0  0.10238898731E+02  0.58667447610E+02 -0.19833567695E+03  0.22521542117E+03  0.88533839441E+02 0.  0.
         -6    2    1    2    0  503 -0.11901369690E+03 -0.15273127207E+03  0.93239897102E+02  0.27689995052E+03  0.17461043116E+03 0.  0.
        -24    2    5    5    0    0 -0.14401094162E+03 -0.15011056757E+03  0.10761248469E+03  0.24756751779E+03  0.80230263608E+02 0.  0.
          4    1    4    4  501    0  0.36561518379E+02 -0.43641432488E+01 -0.88737034031E+02  0.96073157443E+02  0.00000000000E+00 0. -1.
         -3    1    4    4    0  501 -0.26322619647E+02  0.63031590858E+02 -0.10959864291E+03  0.12914226372E+03  0.00000000000E+00 0.  1.
          5    1    3    3  502    0  0.10877479816E+03  0.94063824458E+02 -0.13854190944E+03  0.19973960664E+03  0.47000000000E+01 0. -1.
         11    1    6    6    0    0 -0.15417310920E+03 -0.14103007732E+03  0.97375931003E+02  0.23052310567E+03  0.00000000000E+00 0. -1.
        -12    1    6    6    0    0  0.10162167576E+02 -0.90804902552E+01  0.10236553689E+02  0.17044412121E+02  0.00000000000E+00 0.  1.
         -5    1    5    5    0  503  0.24997244727E+02 -0.26207044958E+01 -0.14372587590E+02  0.29332432733E+02  0.47000000000E+01 0.  1.
<mgrwt>
<rscale>  2 0.26030544E+03</rscale>
<asrwt>0</asrwt>
<pdfrwt beam="1">  1       21 0.35247484E-01 0.26072956E+03</pdfrwt>
<pdfrwt beam="2">  1       21 0.72730204E-01 0.26072956E+03</pdfrwt>
<totfact> 0.12695366E+04</totfact>
</mgrwt>
</event>
<event>
12    1  0.1473662E-001  0.1896911E+03  0.7546771E-02  0.1158781E+00
         21   -1    0    0  504  503  0.00000000000E+00  0.00000000000E+00  0.79122925253E+03  0.79122925253E+03  0.00000000000E+00 0. -1.
         21   -1    0    0  502  504 -0.00000000000E+00 -0.00000000000E+00 -0.64470797797E+02  0.64470797797E+02  0.00000000000E+00 0. -1.
          6    2    1    2  502    0 -0.53854910660E+02 -0.56930958006E+02  0.13076850136E+03  0.23025082609E+03  0.17255015672E+03 0.  0.
         24    2    3    3    0    0  0.58000502432E+00  0.16110966256E+02  0.10729354824E+03  0.13606247135E+03  0.82104756106E+02 0.  0.
         -6    2    1    2    0  503  0.53854910660E+02  0.56930958006E+02  0.59598995337E+03  0.62544922424E+03  0.17274612065E+03 0.  0.
        -24    2    5    5    0    0  0.59706062748E+02  0.90665186316E+02  0.55797606059E+03  0.57407432585E+03  0.80243737854E+02 0.  0.
          2    1    4    4  501    0  0.37060953720E+02  0.26214111763E+02  0.51648395281E+02  0.68762276586E+02  0.00000000000E+00 0. -1.
         -1    1    4    4    0  501 -0.36480948695E+02 -0.10103145508E+02  0.55645152960E+02  0.67300194761E+02  0.00000000000E+00 0.  1.
          5    1    3    3  502    0 -0.54434915685E+02 -0.73041924262E+02  0.23474953124E+02  0.94188354745E+02  0.47000000000E+01 0. -1.
         13    1    6    6    0    0  0.28624134289E+01  0.43036476829E+02  0.36157500023E+03  0.36413845243E+03  0.00000000000E+00 0. -1.
        -14    1    6    6    0    0  0.56843649319E+02  0.47628709487E+02  0.19640106037E+03  0.20993587342E+03  0.00000000000E+00 0.  1.
         -5    1    5    5    0  503 -0.58511520879E+01 -0.33734228310E+02  0.38013892777E+02  0.51374898389E+02  0.47000000000E+01 0.  1.
<mgrwt>
<rscale>  2 0.18964646E+03</rscale>
<asrwt>0</asrwt>
<pdfrwt beam="1">  1       21 0.12172757E+00 0.18969108E+03</pdfrwt>
<pdfrwt beam="2">  1       21 0.99185849E-02 0.18969108E+03</pdfrwt>
<totfact> 0.42026755E+04</totfact>
</mgrwt>
</event>
<event>
12    1  0.1473662E-001  0.1782030E+03  0.7546771E-02  0.1170384E+00
         21   -1    0    0  504  503  0.00000000000E+00  0.00000000000E+00  0.22793605519E+03  0.22793605519E+03  0.00000000000E+00 0. -1.
         21   -1    0    0  502  504 -0.00000000000E+00 -0.00000000000E+00 -0.16002283214E+03  0.16002283214E+03  0.00000000000E+00 0. -1.
          6    2    1    2  502    0 -0.42384616915E+02 -0.14724480653E+01 -0.39801783575E+02  0.18259382375E+03  0.17308292418E+03 0.  0.
         24    2    3    3    0    0 -0.56864447282E+01  0.49970927052E+01  0.36694781729E+02  0.97373959268E+02  0.89876995657E+02 0.  0.
         -6    2    1    2    0  503  0.42384616915E+02  0.14724480653E+01  0.10771500662E+03  0.20536506358E+03  0.16962801312E+03 0.  0.
        -24    2    5    5    0    0  0.84588599556E+02 -0.18306718770E+02  0.35144475080E+02  0.11898819376E+03  0.73706777161E+02 0.  0.
          4    1    4    4  501    0 -0.47642237326E+02  0.70207223228E+01  0.18266497410E+02  0.51504740044E+02  0.00000000000E+00 0. -1.
         -3    1    4    4    0  501  0.41955792598E+02 -0.20236296177E+01  0.18428284319E+02  0.45869219225E+02  0.00000000000E+00 0.  1.
          5    1    3    3  502    0 -0.36698172186E+02 -0.64695407705E+01 -0.76496565304E+02  0.85219864485E+02  0.47000000000E+01 0. -1.
         13    1    6    6    0    0  0.84506837972E+02 -0.27287162091E+01  0.45706235099E+01  0.84674329968E+02  0.00000000000E+00 0. -1.
        -14    1    6    6    0    0  0.81761584195E-01 -0.15578002561E+02  0.30573851570E+02  0.34313863796E+02  0.00000000000E+00 0.  1.
         -5    1    5    5    0  503 -0.42203982642E+02  0.19779166836E+02  0.72570531542E+02  0.86376869819E+02  0.47000000000E+01 0.  1.
<mgrwt>
<rscale>  2 0.17735863E+03</rscale>
<asrwt>0</asrwt>
<pdfrwt beam="1">  1       21 0.35067085E-01 0.17820304E+03</pdfrwt>
<pdfrwt beam="2">  1       21 0.24618897E-01 0.17820304E+03</pdfrwt>
<totfact> 0.12289258E+05</totfact>
</mgrwt>
</event>
<event>
12    1  0.1473662E-001  0.2110850E+03  0.7546771E-02  0.1141019E+00
         21   -1    0    0  504  503  0.00000000000E+00  0.00000000000E+00  0.57540761691E+03  0.57540761691E+03  0.00000000000E+00 0. -1.
         21   -1    0    0  502  504 -0.00000000000E+00 -0.00000000000E+00 -0.45327184537E+03  0.45327184537E+03  0.00000000000E+00 0. -1.
          6    2    1    2  502    0  0.11520689009E+03 -0.27868417130E+02 -0.40767767691E+03  0.45836450008E+03  0.17276472582E+03 0.  0.
         24    2    3    3    0    0  0.72203596523E+02  0.33157697994E+02 -0.34161955652E+03  0.35856853196E+03  0.74529715040E+02 0.  0.
         -6    2    1    2    0  503 -0.11520689009E+03  0.27868417130E+02  0.52981344845E+03  0.57031496220E+03  0.17466422002E+03 0.  0.
        -24    2    5    5    0    0 -0.88042704872E+02  0.86495170543E+02  0.36640368353E+03  0.39453148617E+03  0.78552542073E+02 0.  0.
          2    1    4    4  501    0  0.15209033341E+02 -0.23447556628E+02 -0.10648468622E+03  0.11009128488E+03  0.00000000000E+00 0. -1.
         -1    1    4    4    0  501  0.56994563182E+02  0.56605254622E+02 -0.23513487031E+03  0.24847724708E+03  0.00000000000E+00 0.  1.
          5    1    3    3  502    0  0.43003293566E+02 -0.61026115125E+02 -0.66058120390E+02  0.99795968126E+02  0.47000000000E+01 0. -1.
         11    1    6    6    0    0 -0.74475646572E+02  0.37168102543E+02  0.14405114718E+03  0.16636953683E+03  0.00000000000E+00 0. -1.
        -12    1    6    6    0    0 -0.13567058301E+02  0.49327068001E+02  0.22235253634E+03  0.22816194934E+03  0.00000000000E+00 0.  1.
         -5    1    5    5    0  503 -0.27164185217E+02 -0.58626753413E+02  0.16340976492E+03  0.17578347603E+03  0.47000000000E+01 0.  1.
<mgrwt>
<rscale>  2 0.21069162E+03</rscale>
<asrwt>0</asrwt>
<pdfrwt beam="1">  1       21 0.88524249E-01 0.21108497E+03</pdfrwt>
<pdfrwt beam="2">  1       21 0.69734130E-01 0.21108497E+03</pdfrwt>
<totfact> 0.20064141E+03</totfact>
</mgrwt>
</event>
<event>
12    1  0.1473662E-001  0.1886573E+03  0.7546771E-02  0.1159773E+00
         21   -1    0    0  504  503  0.00000000000E+00  0.00000000000E+00  0.10700991916E+04  0.10700991916E+04  0.00000000000E+00 0. -1.
         21   -1    0    0  502  504 -0.00000000000E+00 -0.00000000000E+00 -0.69635577499E+02  0.69635577499E+02  0.00000000000E+00 0.  1.
          6    2    1    2  502    0  0.65619739977E+02 -0.31269581419E+02  0.88207966526E+02  0.20826002462E+03  0.17409151473E+03 0.  0.
         24    2    3    3    0    0  0.51546868326E+02  0.14670025801E+02  0.11817006462E+03  0.15144180087E+03  0.78090752243E+02 0.  0.
         -6    2    1    2    0  503 -0.65619739977E+02  0.31269581419E+02  0.91225564760E+03  0.93147474450E+03  0.17364070972E+03 0.  0.
        -24    2    5    5    0    0  0.23585070082E+02  0.47711765681E+02  0.43502251743E+03  0.44567499760E+03  0.80925550338E+02 0.  0.
          2    1    4    4  501    0  0.46278856245E+02 -0.24262537519E+02  0.86151809017E+02  0.10075980081E+03  0.00000000000E+00 0. -1.
         -1    1    4    4    0  501  0.52680120801E+01  0.38932563319E+02  0.32018255607E+02  0.50682000059E+02  0.00000000000E+00 0.  1.
          5    1    3    3  502    0  0.14072871651E+02 -0.45939607220E+02 -0.29962098098E+02  0.56818223753E+02  0.47000000000E+01 0. -1.
         11    1    6    6    0    0  0.14532340732E+02  0.37235002385E+02  0.42851638368E+03  0.43037649263E+03  0.00000000000E+00 0. -1.
        -12    1    6    6    0    0  0.90527293499E+01  0.10476763296E+02  0.65061337547E+01  0.15298504968E+02  0.00000000000E+00 0.  1.
         -5    1    5    5    0  503 -0.89204810059E+02 -0.16442184261E+02  0.47723313017E+03  0.48579974690E+03  0.47000000000E+01 0.  1.
<mgrwt>
<rscale>  2 0.18855328E+03</rscale>
<asrwt>0</asrwt>
<pdfrwt beam="1">  1       21 0.16463063E+00 0.18865734E+03</pdfrwt>
<pdfrwt beam="2">  1       21 0.10713167E-01 0.18865734E+03</pdfrwt>
<totfact> 0.16781475E+04</totfact>
</mgrwt>
</event>
<event>
12    1  0.1473662E-001  0.2040575E+03  0.7546771E-02  0.1146487E+00
         21   -1    0    0  504  503  0.00000000000E+00  0.00000000000E+00  0.33729053830E+03  0.33729053830E+03  0.00000000000E+00 0.  1.
         21   -1    0    0  502  504 -0.00000000000E+00 -0.00000000000E+00 -0.12541322887E+03  0.12541322887E+03  0.00000000000E+00 0.  1.
          6    2    1    2  502    0 -0.10210269674E+03 -0.35374752415E+02  0.74547929497E+02  0.21724840197E+03  0.17309864406E+03 0.  0.
         24    2    3    3    0    0 -0.12572015665E+03 -0.63365516208E+02  0.34212258893E+02  0.16256455066E+03  0.73729288894E+02 0.  0.
         -6    2    1    2    0  503  0.10210269674E+03  0.35374752415E+02  0.13732937993E+03  0.24545536521E+03  0.17237355925E+03 0.  0.
        -24    2    5    5    0    0  0.91840380795E+02  0.80948867772E+02  0.13756854103E+03  0.19850366325E+03  0.74102807669E+02 0.  0.
          4    1    4    4  501    0 -0.12189722188E+03 -0.38293049259E+02  0.11101208772E+02  0.12825181153E+03  0.00000000000E+00 0. -1.
         -3    1    4    4    0  501 -0.38229347685E+01 -0.25072466949E+02  0.23111050121E+02  0.34312739134E+02  0.00000000000E+00 0.  1.
          5    1    3    3  502    0  0.23617459914E+02  0.27990763793E+02  0.40335670604E+02  0.54683851306E+02  0.47000000000E+01 0. -1.
         13    1    6    6    0    0  0.13109936648E+01  0.65768830870E+01  0.54430124993E+02  0.54841704954E+02  0.00000000000E+00 0. -1.
        -14    1    6    6    0    0  0.90529387130E+02  0.74371984685E+02  0.83138416035E+02  0.14366195829E+03  0.00000000000E+00 0.  1.
         -5    1    5    5    0  503  0.10262315941E+02 -0.45574115357E+02 -0.23916109529E+00  0.46951701961E+02  0.47000000000E+01 0.  1.
<mgrwt>
<rscale>  2 0.20390367E+03</rscale>
<asrwt>0</asrwt>
<pdfrwt beam="1">  1       21 0.51890852E-01 0.20405753E+03</pdfrwt>
<pdfrwt beam="2">  1       21 0.19294343E-01 0.20405753E+03</pdfrwt>
<totfact> 0.86607534E+04</totfact>
</mgrwt>
</event>
<event>
12    1  0.1473662E-001  0.1794352E+03  0.7546771E-02  0.1168502E+00
         21   -1    0    0  504  503  0.00000000000E+00  0.00000000000E+00  0.45381519770E+02  0.45381519770E+02  0.00000000000E+00 0.  1.
         21   -1    0    0  502  504 -0.00000000000E+00 -0.00000000000E+00 -0.20834355123E+04  0.20834355123E+04  0.00000000000E+00 0.  1.
          6    2    1    2  502    0  0.91850220745E+01 -0.42801762968E+02 -0.18847797737E+04  0.18933018199E+04  0.17401330447E+03 0.  0.
         24    2    3    3    0    0 -0.59584385960E+02 -0.46201875642E+02 -0.12286140390E+04  0.12335167385E+04  0.79913545938E+02 0.  0.
         -6    2    1    2    0  503 -0.91850220745E+01  0.42801762968E+02 -0.15327421876E+03  0.23551521216E+03  0.17337264339E+03 0.  0.
        -24    2    5    5    0    0  0.59066917883E+02  0.20673173933E+02 -0.11596779070E+03  0.15450989545E+03  0.80675265124E+02 0.  0.
          2    1    4    4  501    0 -0.22663713579E+02 -0.32476698438E+02 -0.18649310600E+03  0.19065166781E+03  0.00000000000E+00 0. -1.
         -1    1    4    4    0  501 -0.36920672381E+02 -0.13725177204E+02 -0.10421209330E+04  0.10428650707E+04  0.00000000000E+00 0.  1.
          5    1    3    3  502    0  0.68769408035E+02  0.34001126742E+01 -0.65616573472E+03  0.65978508142E+03  0.47000000000E+01 0. -1.
         13    1    6    6    0    0 -0.13570575746E+02  0.22572187635E+02 -0.49316300645E+02  0.55908511785E+02  0.00000000000E+00 0. -1.
        -14    1    6    6    0    0  0.72637493629E+02 -0.18990137017E+01 -0.66651490052E+02  0.98601383661E+02  0.00000000000E+00 0.  1.
         -5    1    5    5    0  503 -0.68251939958E+02  0.22128589034E+02 -0.37306428065E+02  0.81005316712E+02  0.47000000000E+01 0.  1.
<mgrwt>
<rscale>  2 0.17927967E+03</rscale>
<asrwt>0</asrwt>
<pdfrwt beam="1">  1       21 0.69817715E-02 0.17943519E+03</pdfrwt>
<pdfrwt beam="2">  1       21 0.32052858E+00 0.17943519E+03</pdfrwt>
<totfact> 0.40164234E+03</totfact>
</mgrwt>
</event>
<event>
12    1  0.1473662E-001  0.1815236E+03  0.7546771E-02  0.1166855E+00
         21   -1    0    0  504  503  0.00000000000E+00  0.00000000000E+00  0.34037983815E+03  0.34037983815E+03  0.00000000000E+00 0.  1.
         21   -1    0    0  502  504 -0.00000000000E+00 -0.00000000000E+00 -0.25132171635E+03  0.25132171635E+03  0.00000000000E+00 0.  1.
          6    2    1    2  502    0  0.42522740248E+02 -0.30941466618E+02 -0.18820201383E+03  0.26147814928E+03  0.17373907662E+03 0.  0.
         24    2    3    3    0    0  0.44508017397E+02 -0.16503630515E+02 -0.21288941308E+03  0.23242732969E+03  0.80294632154E+02 0.  0.
         -6    2    1    2    0  503 -0.42522740248E+02  0.30941466618E+02  0.27726013563E+03  0.33022340523E+03  0.17148981532E+03 0.  0.
        -24    2    5    5    0    0 -0.38917827134E+02 -0.37215290285E+02  0.94990607831E+02  0.13553747951E+03  0.80297058947E+02 0.  0.
          2    1    4    4  501    0  0.34073793348E+02  0.30084596094E+02 -0.99026325530E+02  0.10896017375E+03  0.00000000000E+00 0. -1.
         -1    1    4    4    0  501  0.10434224049E+02 -0.46588226609E+02 -0.11386308755E+03  0.12346715595E+03  0.00000000000E+00 0.  1.
          5    1    3    3  502    0 -0.19852771496E+01 -0.14437836103E+02  0.24687399250E+02  0.29050819583E+02  0.47000000000E+01 0. -1.
         13    1    6    6    0    0  0.98814740702E+01 -0.88357610540E+01 -0.98161134282E+01  0.16494553223E+02  0.00000000000E+00 0. -1.
        -14    1    6    6    0    0 -0.48799301205E+02 -0.28379529231E+02  0.10480672126E+03  0.11904292629E+03  0.00000000000E+00 0.  1.
         -5    1    5    5    0  503 -0.36049131134E+01  0.68156756903E+02  0.18226952780E+03  0.19468592572E+03  0.47000000000E+01 0.  1.
<mgrwt>
<rscale>  2 0.18098331E+03</rscale>
<asrwt>0</asrwt>
<pdfrwt beam="1">  1       21 0.52366129E-01 0.18152362E+03</pdfrwt>
<pdfrwt beam="2">  1       21 0.38664879E-01 0.18152362E+03</pdfrwt>
<totfact> 0.22455153E+04</totfact>
</mgrwt>
</event>
<event>
12    1  0.1473662E-001  0.1742356E+03  0.7546771E-02  0.1173543E+00
         21   -1    0    0  504  503  0.00000000000E+00  0.00000000000E+00  0.23207751724E+03  0.23207751724E+03  0.00000000000E+00 0.  1.
         21   -1    0    0  502  504 -0.00000000000E+00 -0.00000000000E+00 -0.31378391947E+03  0.31378391947E+03  0.00000000000E+00 0.  1.
          6    2    1    2  502    0  0.45954373873E+01  0.20381883242E+02 -0.24934865621E+03  0.30419202197E+03  0.17297830692E+03 0.  0.
         24    2    3    3    0    0  0.23267291076E+02 -0.12052059372E+01 -0.25724693423E+03  0.27420680336E+03  0.92035680487E+02 0.  0.
         -6    2    1    2    0  503 -0.45954373873E+01 -0.20381883242E+02  0.16764225398E+03  0.24166941475E+03  0.17281099935E+03 0.  0.
        -24    2    5    5    0    0  0.58625815766E+02  0.11567407577E+02  0.11764257663E+03  0.15483772831E+03  0.81019473461E+02 0.  0.
          4    1    4    4  501    0 -0.12975009505E+01 -0.44391967214E+02 -0.13975179028E+03  0.14663864821E+03  0.00000000000E+00 0. -1.
         -3    1    4    4    0  501  0.24564792027E+02  0.43186761277E+02 -0.11749514394E+03  0.12756815514E+03  0.00000000000E+00 0.  1.
          5    1    3    3  502    0 -0.18671853689E+02  0.21587089179E+02  0.78982780181E+01  0.29985218609E+02  0.47000000000E+01 0. -1.
         11    1    6    6    0    0  0.22723617927E+01  0.37726748769E+02  0.53851282211E+02  0.65790818483E+02  0.00000000000E+00 0. -1.
        -12    1    6    6    0    0  0.56353453974E+02 -0.26159341192E+02  0.63791294424E+02  0.89046909832E+02  0.00000000000E+00 0.  1.
         -5    1    5    5    0  503 -0.63221253154E+02 -0.31949290819E+02  0.49999677345E+02  0.86831686433E+02  0.47000000000E+01 0.  1.
<mgrwt>
<rscale>  2 0.17419403E+03</rscale>
<asrwt>0</asrwt>
<pdfrwt beam="1">  1       21 0.35704233E-01 0.17423557E+03</pdfrwt>
<pdfrwt beam="2">  1       21 0.48274449E-01 0.17423557E+03</pdfrwt>
<totfact> 0.31316443E+04</totfact>
</mgrwt>
</event>
<event>
12    1  0.1473662E-001  0.1905093E+03  0.7546771E-02  0.1158005E+00
         21   -1    0    0  504  503  0.00000000000E+00  0.00000000000E+00  0.41463801466E+03  0.41463801466E+03  0.00000000000E+00 0. -1.
         21   -1    0    0  502  504 -0.00000000000E+00 -0.00000000000E+00 -0.26796788289E+03  0.26796788289E+03  0.00000000000E+00 0. -1.
          6    2    1    2  502    0  0.67686704768E+02 -0.42953211136E+02 -0.20673372260E+03  0.28112739219E+03  0.17282161390E+03 0.  0.
         24    2    3    3    0    0 -0.27805302260E+02 -0.18486843691E+02 -0.12738561560E+03  0.15449588495E+03  0.80789759137E+02 0.  0.
         -6    2    1    2    0  503 -0.67686704768E+02  0.42953211136E+02  0.35340385436E+03  0.40147850536E+03  0.17281272417E+03 0.  0.
        -24    2    5    5    0    0 -0.39196262918E+02 -0.14632676042E+02  0.81434299660E+02  0.12198366039E+03  0.80610210307E+02 0.  0.
          4    1    4    4  501    0 -0.39772518966E+02 -0.37056407570E+02 -0.11906827377E+03  0.13089035268E+03  0.00000000000E+00 0. -1.
         -3    1    4    4    0  501  0.11967216706E+02  0.18569563879E+02 -0.83173418232E+01  0.23605532262E+02  0.00000000000E+00 0.  1.
          5    1    3    3  502    0  0.95492007028E+02 -0.24466367445E+02 -0.79348107000E+02  0.12663150724E+03  0.47000000000E+01 0. -1.
         13    1    6    6    0    0 -0.35207336404E+02 -0.41263915896E+02  0.77754292492E+02  0.94805048878E+02  0.00000000000E+00 0. -1.
        -14    1    6    6    0    0 -0.39889265138E+01  0.26631239854E+02  0.36800071679E+01  0.27178611511E+02  0.00000000000E+00 0.  1.
         -5    1    5    5    0  503 -0.28490441850E+02  0.57585887179E+02  0.27196955470E+03  0.27949484497E+03  0.47000000000E+01 0.  1.
<mgrwt>
<rscale>  2 0.19050725E+03</rscale>
<asrwt>0</asrwt>
<pdfrwt beam="1">  1       21 0.63790464E-01 0.19050926E+03</pdfrwt>
<pdfrwt beam="2">  1       21 0.41225828E-01 0.19050926E+03</pdfrwt>
<totfact> 0.12882752E+04</totfact>
</mgrwt>
</event>
<event>
12    1  0.1473662E-001  0.1945923E+03  0.7546771E-02  0.1154665E+00
         21   -1    0    0  504  503  0.00000000000E+00  0.00000000000E+00  0.43738037677E+03  0.43738037677E+03  0.00000000000E+00 0.  1.
         21   -1    0    0  502  504 -0.00000000000E+00 -0.00000000000E+00 -0.92604334615E+02  0.92604334615E+02  0.00000000000E+00 0.  1.
          6    2    1    2  502    0  0.54552397700E+02  0.70304079697E+02  0.10111164490E+03  0.21815385326E+03  0.17160685080E+03 0.  0.
         24    2    3    3    0    0  0.63010706663E+02 -0.14602743387E+02  0.75654398818E+02  0.12898618549E+03  0.82038154046E+02 0.  0.
         -6    2    1    2    0  503 -0.54552397700E+02 -0.70304079697E+02  0.24366439725E+03  0.31183085812E+03  0.17305351159E+03 0.  0.
        -24    2    5    5    0    0 -0.40518957120E+02  0.50861575811E+01  0.20881019105E+03  0.22746539706E+03  0.80443496239E+02 0.  0.
          2    1    4    4  501    0 -0.10435676396E+01 -0.30823113414E+02  0.48656488100E+02  0.57607353594E+02  0.00000000000E+00 0. -1.
         -1    1    4    4    0  501  0.64054274303E+02  0.16220370027E+02  0.26997910718E+02  0.71378831900E+02  0.00000000000E+00 0.  1.
          5    1    3    3  502    0 -0.84583089627E+01  0.84906823084E+02  0.25457246087E+02  0.89167667767E+02  0.47000000000E+01 0. -1.
         13    1    6    6    0    0  0.18958674820E+02 -0.18071933986E+02  0.67759734670E+02  0.72645769260E+02  0.00000000000E+00 0. -1.
        -14    1    6    6    0    0 -0.59477631940E+02  0.23158091567E+02  0.14105045638E+03  0.15481962779E+03  0.00000000000E+00 0.  1.
         -5    1    5    5    0  503 -0.14033440580E+02 -0.75390237278E+02  0.34854206202E+02  0.84365461068E+02  0.47000000000E+01 0.  1.
<mgrwt>
<rscale>  2 0.19427010E+03</rscale>
<asrwt>0</asrwt>
<pdfrwt beam="1">  1       21 0.67289287E-01 0.19459225E+03</pdfrwt>
<pdfrwt beam="2">  1       21 0.14246821E-01 0.19459225E+03</pdfrwt>
<totfact> 0.86987620E+04</totfact>
</mgrwt>
</event>
<event>
12    1  0.1473662E-001  0.1766311E+03  0.7546771E-02  0.1171666E+00
         21   -1    0    0  504  503  0.00000000000E+00  0.00000000000E+00  0.10617570453E+04  0.10617570453E+04  0.00000000000E+00 0. -1.
         21   -1    0    0  502  504 -0.00000000000E+00 -0.00000000000E+00 -0.30305548243E+02  0.30305548243E+02  0.00000000000E+00 0. -1.
          6    2    1    2  502    0  0.22116212317E+02  0.20468858478E+02  0.40602256967E+03  0.44277859064E+03  0.17404152447E+03 0.  0.
         24    2    3    3    0    0 -0.15657659432E+02  0.82373301794E+01  0.39179940685E+03  0.40034200228E+03  0.80336340926E+02 0.  0.
         -6    2    1    2    0  503 -0.22116212317E+02 -0.20468858478E+02  0.62542892743E+03  0.64928400294E+03  0.17175643275E+03 0.  0.
        -24    2    5    5    0    0  0.35079461439E+02 -0.23103858742E+02  0.53111717268E+03  0.53885264233E+03  0.80699207701E+02 0.  0.
          4    1    4    4  501    0 -0.23410133284E+02  0.41741501945E+02  0.23161822204E+03  0.23651086256E+03  0.00000000000E+00 0. -1.
         -3    1    4    4    0  501  0.77524738515E+01 -0.33504171765E+02  0.16018118481E+03  0.16383113972E+03  0.00000000000E+00 0.  1.
          5    1    3    3  502    0  0.37773871749E+02  0.12231528299E+02  0.14223162817E+02  0.42436588364E+02  0.47000000000E+01 0. -1.
         13    1    6    6    0    0  0.14959080009E+02 -0.44339464535E+02  0.45346157710E+03  0.45586967885E+03  0.00000000000E+00 0. -1.
        -14    1    6    6    0    0  0.20120381431E+02  0.21235605793E+02  0.77655595576E+02  0.82982963472E+02  0.00000000000E+00 0.  1.
         -5    1    5    5    0  503 -0.57195673757E+02  0.26350002643E+01  0.94311754755E+02  0.11043136062E+03  0.47000000000E+01 0.  1.
<mgrwt>
<rscale>  2 0.17606562E+03</rscale>
<asrwt>0</asrwt>
<pdfrwt beam="1">  1       21 0.16334721E+00 0.17663112E+03</pdfrwt>
<pdfrwt beam="2">  1       21 0.46623929E-02 0.17663112E+03</pdfrwt>
<totfact> 0.72683852E+04</totfact>
</mgrwt>
</event>
<event>
12    1  0.1473662E-001  0.1824882E+03  0.7546771E-02  0.1167168E+00
         21   -1    0    0  504  503  0.00000000000E+00  0.00000000000E+00  0.19924744268E+02  0.19924744268E+02  0.00000000000E+00 0.  1.
         21   -1    0    0  502  504 -0.00000000000E+00 -0.00000000000E+00 -0.25239147118E+04  0.25239147118E+04  0.00000000000E+00 0.  1.
          6    2    1    2  502    0  0.56074289767E+02 -0.59920564390E+01 -0.20028923070E+04  0.20105470248E+04  0.16595636361E+03 0.  0.
         24    2    3    3    0    0  0.75178089459E+01 -0.21914669454E+02 -0.17776400824E+04  0.17795233980E+04  0.78501536816E+02 0.  0.
         -6    2    1    2    0  503 -0.56074289767E+02  0.59920564390E+01 -0.50109766052E+03  0.53329243130E+03  0.17355610385E+03 0.  0.
        -24    2    5    5    0    0 -0.53464801718E+02 -0.58026625617E+02 -0.25173061005E+03  0.27578278693E+03  0.80388253052E+02 0.  0.
          2    1    4    4  501    0 -0.77922864133E+01 -0.11863726110E+02 -0.55511089967E+02  0.57297022907E+02  0.00000000000E+00 0. -1.
         -1    1    4    4    0  501  0.15310095359E+02 -0.10050943344E+02 -0.17221289924E+04  0.17222263751E+04  0.00000000000E+00 0.  1.
          5    1    3    3  502    0  0.48556480821E+02  0.15922613015E+02 -0.22525222459E+03  0.23102362675E+03  0.47000000000E+01 0. -1.
         13    1    6    6    0    0  0.16097867070E+02 -0.25723135023E+02 -0.11577120824E+03  0.11968205236E+03  0.00000000000E+00 0. -1.
        -14    1    6    6    0    0 -0.69562668789E+02 -0.32303490593E+02 -0.13595940181E+03  0.15610073457E+03  0.00000000000E+00 0.  1.
         -5    1    5    5    0  503 -0.26094880485E+01  0.64018682056E+02 -0.24936705047E+03  0.25750964436E+03  0.47000000000E+01 0.  1.
<mgrwt>
<rscale>  2 0.18065786E+03</rscale>
<asrwt>0</asrwt>
<pdfrwt beam="1">  1       21 0.30653459E-02 0.18248822E+03</pdfrwt>
<pdfrwt beam="2">  1       21 0.38829449E+00 0.18248822E+03</pdfrwt>
<totfact> 0.63710622E+03</totfact>
</mgrwt>
</event>
<event>
12    1  0.1473662E-001  0.2172729E+03  0.7546771E-02  0.1136109E+00
         21   -1    0    0  504  503  0.00000000000E+00  0.00000000000E+00  0.88736969887E+02  0.88736969887E+02  0.00000000000E+00 0. -1.
         21   -1    0    0  502  504 -0.00000000000E+00 -0.00000000000E+00 -0.63384054689E+03  0.63384054689E+03  0.00000000000E+00 0. -1.
          6    2    1    2  502    0 -0.48036891795E+01  0.13164663634E+03 -0.12660814387E+03  0.25146990877E+03  0.17278188746E+03 0.  0.
         24    2    3    3    0    0  0.63053249479E+02  0.53134119050E+02 -0.86773147348E+02  0.14021481252E+03  0.73018269432E+02 0.  0.
         -6    2    1    2    0  503  0.48036891795E+01 -0.13164663634E+03 -0.41849543313E+03  0.47110760800E+03  0.17161013511E+03 0.  0.
        -24    2    5    5    0    0  0.27187067647E+01 -0.10966732022E+03 -0.42623235240E+03  0.44724576799E+03  0.79501234354E+02 0.  0.
          2    1    4    4  501    0  0.83363500257E+01  0.54764472708E+02 -0.44122182231E+02  0.70819553568E+02  0.00000000000E+00 0. -1.
         -1    1    4    4    0  501  0.54716899454E+02 -0.16303536585E+01 -0.42650965117E+02  0.69395258947E+02  0.00000000000E+00 0.  1.
          5    1    3    3  502    0 -0.67856938659E+02  0.78512517293E+02 -0.39834996520E+02  0.11125509626E+03  0.47000000000E+01 0. -1.
         13    1    6    6    0    0  0.17792650415E+02 -0.10822029959E+03 -0.28781857546E+03  0.30800607792E+03  0.00000000000E+00 0. -1.
        -14    1    6    6    0    0 -0.15073943650E+02 -0.14470206233E+01 -0.13841377693E+03  0.13923969007E+03  0.00000000000E+00 0.  1.
         -5    1    5    5    0  503  0.20849824148E+01 -0.21979316127E+02  0.77369192641E+01  0.23861840012E+02  0.47000000000E+01 0.  1.
<mgrwt>
<rscale>  2 0.21703982E+03</rscale>
<asrwt>0</asrwt>
<pdfrwt beam="1">  1       21 0.13651841E-01 0.21727285E+03</pdfrwt>
<pdfrwt beam="2">  1       21 0.97513933E-01 0.21727285E+03</pdfrwt>
<totfact> 0.40024979E+04</totfact>
</mgrwt>
</event>
<event>
12    1  0.1473662E-001  0.1791092E+03  0.7546771E-02  0.1168884E+00
         21   -1    0    0  504  503  0.00000000000E+00  0.00000000000E+00  0.30748627846E+03  0.30748627846E+03  0.00000000000E+00 0. -1.
         21   -1    0    0  502  504 -0.00000000000E+00 -0.00000000000E+00 -0.11019216874E+03  0.11019216874E+03  0.00000000000E+00 0. -1.
          6    2    1    2  502    0  0.34861273152E+02 -0.22561553154E+02  0.48183662884E+02  0.18462474261E+03  0.17332137251E+03 0.  0.
         24    2    3    3    0    0  0.69536827291E+02  0.31298374489E+02  0.48803041351E+02  0.12039266737E+03  0.79358042535E+02 0.  0.
         -6    2    1    2    0  503 -0.34861273152E+02  0.22561553154E+02  0.14911044684E+03  0.23305370459E+03  0.17422907858E+03 0.  0.
        -24    2    5    5    0    0 -0.76279503772E+02 -0.88550037774E+01  0.14268488146E+03  0.18046237672E+03  0.79440041708E+02 0.  0.
          2    1    4    4  501    0  0.68876295692E+02  0.30286203294E+02  0.67845172053E+02  0.10131221836E+03  0.00000000000E+00 0. -1.
         -1    1    4    4    0  501  0.66053159855E+00  0.10121711950E+01 -0.19042130703E+02  0.19080449005E+02  0.00000000000E+00 0.  1.
          5    1    3    3  502    0 -0.34675554139E+02 -0.53859927644E+02 -0.61937846725E+00  0.64232075245E+02  0.47000000000E+01 0. -1.
         11    1    6    6    0    0 -0.49694588535E+02 -0.35804467479E+02  0.45906049098E+02  0.76543303854E+02  0.00000000000E+00 0. -1.
        -12    1    6    6    0    0 -0.26584915236E+02  0.26949463702E+02  0.96778832360E+02  0.10391907286E+03  0.00000000000E+00 0.  1.
         -5    1    5    5    0  503  0.41418230620E+02  0.31416556932E+02  0.64255653805E+01  0.52591327874E+02  0.47000000000E+01 0.  1.
<mgrwt>
<rscale>  2 0.17888807E+03</rscale>
<asrwt>0</asrwt>
<pdfrwt beam="1">  1       21 0.47305581E-01 0.17910920E+03</pdfrwt>
<pdfrwt beam="2">  1       21 0.16952642E-01 0.17910920E+03</pdfrwt>
<totfact> 0.13466970E+05</totfact>
</mgrwt>
</event>
<event>
12    1  0.1473662E-001  0.2944506E+03  0.7546771E-02  0.1088255E+00
         21   -1    0    0  504  503  0.00000000000E+00  0.00000000000E+00  0.30010151485E+03  0.30010151485E+03  0.00000000000E+00 0. -1.
         21   -1    0    0  502  504 -0.00000000000E+00 -0.00000000000E+00 -0.28763663584E+03  0.28763663584E+03  0.00000000000E+00 0. -1.
          6    2    1    2  502    0 -0.11813765312E+03  0.20725780792E+03  0.15846854174E+02  0.29487674635E+03  0.17259452112E+03 0.  0.
         24    2    3    3    0    0 -0.10357464327E+03  0.14868603508E+03 -0.51347081266E+02  0.20443422986E+03  0.79508413552E+02 0.  0.
         -6    2    1    2    0  503  0.11813765312E+03 -0.20725780792E+03 -0.33819751646E+01  0.29286140435E+03  0.16983539199E+03 0.  0.
        -24    2    5    5    0    0  0.14243181933E+03 -0.14740781715E+03 -0.31858118619E+02  0.22211390508E+03  0.79396217744E+02 0.  0.
          4    1    4    4  501    0 -0.97994891128E+02  0.79499383692E+02 -0.47784770651E+02  0.13493159378E+03  0.00000000000E+00 0. -1.
         -3    1    4    4    0  501 -0.55797521447E+01  0.69186651387E+02 -0.35623106147E+01  0.69502636072E+02  0.00000000000E+00 0.  1.
          5    1    3    3  502    0 -0.14563009850E+02  0.58571772838E+02  0.67193935440E+02  0.90442516491E+02  0.47000000000E+01 0. -1.
         13    1    6    6    0    0  0.73338172905E+02 -0.83820946917E+02  0.22485292054E+02  0.11362230021E+03  0.00000000000E+00 0. -1.
        -14    1    6    6    0    0  0.69093646427E+02 -0.63586870237E+02 -0.54343410673E+02  0.10849160487E+03  0.00000000000E+00 0.  1.
         -5    1    5    5    0  503 -0.24294166209E+02 -0.59849990762E+02  0.28476143455E+02  0.70747499264E+02  0.47000000000E+01 0.  1.
<mgrwt>
<rscale>  2 0.29404761E+03</rscale>
<asrwt>0</asrwt>
<pdfrwt beam="1">  1       21 0.46169464E-01 0.29445063E+03</pdfrwt>
<pdfrwt beam="2">  1       21 0.44251790E-01 0.29445063E+03</pdfrwt>
<totfact> 0.20966499E+04</totfact>
</mgrwt>
</event>
<event>
12    1  0.1473662E-001  0.3267988E+03  0.7546771E-02  0.1072827E+00
         21   -1    0    0  504  503  0.00000000000E+00  0.00000000000E+00  0.13777794609E+03  0.13777794609E+03  0.00000000000E+00 0.  1.
         21   -1    0    0  502  504 -0.00000000000E+00 -0.00000000000E+00 -0.15534331508E+04  0.15534331508E+04  0.00000000000E+00 0.  1.
          6    2    1    2  502    0 -0.27365341662E+03 -0.55381621383E+02 -0.13097794903E+04  0.13499332407E+04  0.16983558173E+03 0.  0.
         24    2    3    3    0    0 -0.18847178723E+03 -0.41157311808E+02 -0.61188268505E+03  0.64669766019E+03  0.81252104810E+02 0.  0.
         -6    2    1    2    0  503  0.27365341662E+03  0.55381621383E+02 -0.10587571445E+03  0.34127785619E+03  0.16525008866E+03 0.  0.
        -24    2    5    5    0    0  0.74043423935E+02  0.83526257202E+01 -0.81670111995E+02  0.13472549769E+03  0.76998425630E+02 0.  0.
          2    1    4    4  501    0 -0.51700271667E+02 -0.16821667106E+02 -0.78280702373E+02  0.95308734850E+02  0.00000000000E+00 0. -1.
         -1    1    4    4    0  501 -0.13677151556E+03 -0.24335644703E+02 -0.53360198268E+03  0.55138892534E+03  0.00000000000E+00 0.  1.
          5    1    3    3  502    0 -0.85181629392E+02 -0.14224309575E+02 -0.69789680524E+03  0.70323558054E+03  0.47000000000E+01 0. -1.
         11    1    6    6    0    0  0.36324641546E+02  0.31244632449E+02 -0.76037824197E+01  0.48513133762E+02  0.00000000000E+00 0. -1.
        -12    1    6    6    0    0  0.37718782389E+02 -0.22892006729E+02 -0.74066329575E+02  0.86212363926E+02  0.00000000000E+00 0.  1.
         -5    1    5    5    0  503  0.19960999269E+03  0.47028995663E+02 -0.24205602452E+02  0.20655235850E+03  0.47000000000E+01 0.  1.
<mgrwt>
<rscale>  2 0.32620732E+03</rscale>
<asrwt>0</asrwt>
<pdfrwt beam="1">  1       21 0.21196607E-01 0.32679878E+03</pdfrwt>
<pdfrwt beam="2">  1       21 0.23898971E+00 0.32679878E+03</pdfrwt>
<totfact> 0.14206923E+03</totfact>
</mgrwt>
</event>
<event>
12    1  0.1473662E-001  0.2024564E+03  0.7546771E-02  0.1149003E+00
         21   -1    0    0  504  503  0.00000000000E+00  0.00000000000E+00  0.27169034447E+02  0.27169034447E+02  0.00000000000E+00 0. -1.
         21   -1    0    0  502  504 -0.00000000000E+00 -0.00000000000E+00 -0.15510272616E+04  0.15510272616E+04  0.00000000000E+00 0. -1.
          6    2    1    2  502    0  0.88537244738E+02  0.21194745355E+02 -0.58461754112E+03  0.61868106883E+03  0.18083289140E+03 0.  0.
         24    2    3    3    0    0  0.97417957956E+02  0.64870655228E+02 -0.31900774314E+03  0.34931680440E+03  0.80980424865E+02 0.  0.
         -6    2    1    2    0  503 -0.88537244738E+02 -0.21194745355E+02 -0.93924068608E+03  0.95951522726E+03  0.17380547753E+03 0.  0.
        -24    2    5    5    0    0 -0.70089315203E+02  0.52927101749E+02 -0.61633118971E+03  0.62766133295E+03  0.79880055498E+02 0.  0.
          4    1    4    4  501    0  0.17842637276E+02 -0.16939025105E+02 -0.31384321970E+02  0.39878138647E+02  0.00000000000E+00 0. -1.
         -3    1    4    4    0  501  0.79575320680E+02  0.81809680333E+02 -0.28762342117E+03  0.30943866575E+03  0.00000000000E+00 0.  1.
          5    1    3    3  502    0 -0.88807132180E+01 -0.43675909873E+02 -0.26560979798E+03  0.26936426443E+03  0.47000000000E+01 0. -1.
         13    1    6    6    0    0 -0.84902901640E+02  0.30929595357E+02 -0.51770395513E+03  0.52553071055E+03  0.00000000000E+00 0. -1.
        -14    1    6    6    0    0  0.14813586436E+02  0.21997506393E+02 -0.98627234576E+02  0.10213062239E+03  0.00000000000E+00 0.  1.
         -5    1    5    5    0  503 -0.18447929534E+02 -0.74121847105E+02 -0.32290949637E+03  0.33185389431E+03  0.47000000000E+01 0.  1.
<mgrwt>
<rscale>  2 0.20087513E+03</rscale>
<asrwt>0</asrwt>
<pdfrwt beam="1">  1       21 0.41798513E-02 0.20245640E+03</pdfrwt>
<pdfrwt beam="2">  1       21 0.23861959E+00 0.20245640E+03</pdfrwt>
<totfact> 0.28038775E+04</totfact>
</mgrwt>
</event>
<event>
12    1  0.1473662E-001  0.1887608E+03  0.7546771E-02  0.1159614E+00
         21   -1    0    0  504  503  0.00000000000E+00  0.00000000000E+00  0.36248663368E+03  0.36248663368E+03  0.00000000000E+00 0.  1.
         21   -1    0    0  502  504 -0.00000000000E+00 -0.00000000000E+00 -0.11065083357E+03  0.11065083357E+03  0.00000000000E+00 0.  1.
          6    2    1    2  502    0  0.52865228438E+02 -0.54192382344E+02  0.46682589532E+02  0.19444766842E+03  0.17291351857E+03 0.  0.
         24    2    3    3    0    0 -0.51450911033E+01  0.28765339833E+02  0.92369604291E+01  0.86413201781E+02  0.80796059718E+02 0.  0.
         -6    2    1    2    0  503 -0.52865228438E+02  0.54192382344E+02  0.20515321058E+03  0.27868979883E+03  0.17276752437E+03 0.  0.
        -24    2    5    5    0    0 -0.38720544057E+02  0.45217640388E+02  0.37808363035E+02  0.11044293827E+03  0.84995616141E+02 0.  0.
          4    1    4    4  501    0 -0.27104554916E+02  0.40551580993E+02  0.27054510091E+02  0.55776645063E+02  0.00000000000E+00 0. -1.
         -3    1    4    4    0  501  0.21959463813E+02 -0.11786241159E+02 -0.17817549662E+02  0.30636556718E+02  0.00000000000E+00 0.  1.
          5    1    3    3  502    0  0.58010319541E+02 -0.82957722177E+02  0.37445629103E+02  0.10803446663E+03  0.47000000000E+01 0. -1.
         11    1    6    6    0    0 -0.27653308076E+02 -0.18538296206E+02  0.30801459707E+02  0.45355306127E+02  0.00000000000E+00 0. -1.
        -12    1    6    6    0    0 -0.11067235981E+02  0.63755936594E+02  0.70069033280E+01  0.65087632139E+02  0.00000000000E+00 0.  1.
         -5    1    5    5    0  503 -0.14144684381E+02  0.89747419562E+01  0.16734484755E+03  0.16824686057E+03  0.47000000000E+01 0.  1.
<mgrwt>
<rscale>  2 0.18872734E+03</rscale>
<asrwt>0</asrwt>
<pdfrwt beam="1">  1       21 0.55767174E-01 0.18876078E+03</pdfrwt>
<pdfrwt beam="2">  1       21 0.17023205E-01 0.18876078E+03</pdfrwt>
<totfact> 0.94402332E+04</totfact>
</mgrwt>
</event>
<event>
12    1  0.1473662E-001  0.2889761E+03  0.7546771E-02  0.1090907E+00
         21   -1    0    0  504  503  0.00000000000E+00  0.00000000000E+00  0.48354006207E+02  0.48354006207E+02  0.00000000000E+00 0.  1.
         21   -1    0    0  502  504 -0.00000000000E+00 -0.00000000000E+00 -0.17428395046E+04  0.17428395046E+04  0.00000000000E+00 0. -1.
          6    2    1    2  502    0  0.19803232372E+03 -0.11907581896E+03 -0.75944272857E+03  0.81256411702E+03  0.17352617780E+03 0.  0.
         24    2    3    3    0    0  0.24421273007E+02 -0.44219565961E+02 -0.21127773474E+03  0.23269240189E+03  0.83400863968E+02 0.  0.
         -6    2    1    2    0  503 -0.19803232372E+03  0.11907581896E+03 -0.93504276978E+03  0.97862939375E+03  0.17324738696E+03 0.  0.
        -24    2    5    5    0    0 -0.13847009918E+03  0.65866558146E+01 -0.57629571673E+03  0.59794184668E+03  0.78742278936E+02 0.  0.
          2    1    4    4  501    0  0.15587995900E+02  0.15454503038E+02 -0.12795993552E+03  0.12982901208E+03  0.00000000000E+00 0. -1.
         -1    1    4    4    0  501  0.88332771071E+01 -0.59674068999E+02 -0.83317799223E+02  0.10286338981E+03  0.00000000000E+00 0.  1.
          5    1    3    3  502    0  0.17361105072E+03 -0.74856253001E+02 -0.54816499383E+03  0.57987171513E+03  0.47000000000E+01 0. -1.
         13    1    6    6    0    0 -0.10681485772E+03 -0.22962655062E+02 -0.32316687479E+03  0.34113564211E+03  0.00000000000E+00 0. -1.
        -14    1    6    6    0    0 -0.31655241465E+02  0.29549310877E+02 -0.25312884193E+03  0.25680620457E+03  0.00000000000E+00 0.  1.
         -5    1    5    5    0  503 -0.59562224541E+02  0.11248916315E+03 -0.35874705305E+03  0.38068754707E+03  0.47000000000E+01 0.  1.
<mgrwt>
<rscale>  2 0.28893426E+03</rscale>
<asrwt>0</asrwt>
<pdfrwt beam="1">  1       21 0.74390790E-02 0.28897610E+03</pdfrwt>
<pdfrwt beam="2">  1       21 0.26812912E+00 0.28897610E+03</pdfrwt>
<totfact> 0.65333517E+03</totfact>
</mgrwt>
</event>
<event>
12    1  0.1473662E-001  0.2104717E+03  0.7546771E-02  0.1141379E+00
         21   -1    0    0  504  503  0.00000000000E+00  0.00000000000E+00  0.23107919668E+03  0.23107919668E+03  0.00000000000E+00 0. -1.
         21   -1    0    0  502  504 -0.00000000000E+00 -0.00000000000E+00 -0.40574080355E+03  0.40574080355E+03  0.00000000000E+00 0.  1.
          6    2    1    2  502    0 -0.36760342873E+02 -0.11014592669E+03 -0.31896409569E+03  0.38163077698E+03  0.17441475746E+03 0.  0.
         24    2    3    3    0    0  0.12465915218E+02 -0.13227543588E+03 -0.23576514174E+03  0.28234787008E+03  0.80516629970E+02 0.  0.
         -6    2    1    2    0  503  0.36760342873E+02  0.11014592669E+03  0.14430248882E+03  0.25518922325E+03  0.17554168568E+03 0.  0.
        -24    2    5    5    0    0  0.18908040471E+00  0.48802255952E+02  0.15602851357E+03  0.18266272579E+03  0.81480540064E+02 0.  0.
          2    1    4    4  501    0 -0.15877134711E+02 -0.94868599941E+02 -0.10023347843E+03  0.13892042636E+03  0.00000000000E+00 0. -1.
         -1    1    4    4    0  501  0.28343049929E+02 -0.37406835940E+02 -0.13553166331E+03  0.14342744372E+03  0.00000000000E+00 0.  1.
          5    1    3    3  502    0 -0.49226258091E+02  0.22129509187E+02 -0.83198953958E+02  0.99282906898E+02  0.47000000000E+01 0. -1.
         13    1    6    6    0    0 -0.63190417258E+01  0.71039426690E+02  0.10939209857E+03  0.13058775464E+03  0.00000000000E+00 0. -1.
        -14    1    6    6    0    0  0.65081221305E+01 -0.22237170738E+02  0.46636414998E+02  0.52074971147E+02  0.00000000000E+00 0.  1.
         -5    1    5    5    0  503  0.36571262469E+02  0.61343670743E+02 -0.11726024744E+02  0.72526497468E+02  0.47000000000E+01 0.  1.
<mgrwt>
<rscale>  2 0.21023655E+03</rscale>
<asrwt>0</asrwt>
<pdfrwt beam="1">  1       21 0.35550646E-01 0.21047169E+03</pdfrwt>
<pdfrwt beam="2">  1       21 0.62421661E-01 0.21047169E+03</pdfrwt>
<totfact> 0.17957318E+04</totfact>
</mgrwt>
</event>
<event>
12    1  0.1473662E-001  0.2950650E+03  0.7546771E-02  0.1087745E+00
         21   -1    0    0  504  503  0.00000000000E+00  0.00000000000E+00  0.17059058050E+03  0.17059058050E+03  0.00000000000E+00 0. -1.
         21   -1    0    0  502  504 -0.00000000000E+00 -0.00000000000E+00 -0.51390715894E+03  0.51390715894E+03  0.00000000000E+00 0.  1.
          6    2    1    2  502    0  0.23246200822E+03  0.53330278869E+02 -0.14268324919E+03  0.32775274470E+03  0.17372578434E+03 0.  0.
         24    2    3    3    0    0  0.24426353722E+03  0.22852635247E+02 -0.14024283362E+03  0.29464370551E+03  0.83426268421E+02 0.  0.
         -6    2    1    2    0  503 -0.23246200822E+03 -0.53330278869E+02 -0.20063332926E+03  0.35674499474E+03  0.17358155015E+03 0.  0.
        -24    2    5    5    0    0 -0.11150052326E+03 -0.69394912915E+02 -0.17281375697E+03  0.23150214299E+03  0.80502341493E+02 0.  0.
          2    1    4    4  501    0  0.75313637434E+02  0.45746210151E+02 -0.39074723243E+02  0.96393431950E+02  0.00000000000E+00 0. -1.
         -1    1    4    4    0  501  0.16894989979E+03 -0.22893574904E+02 -0.10116811038E+03  0.19825027356E+03  0.00000000000E+00 0.  1.
          5    1    3    3  502    0 -0.11801528998E+02  0.30477643623E+02 -0.24404155707E+01  0.33109039183E+02  0.47000000000E+01 0. -1.
         11    1    6    6    0    0 -0.70217438110E+02 -0.31537685133E+02 -0.38688185313E+02  0.86150391068E+02  0.00000000000E+00 0. -1.
        -12    1    6    6    0    0 -0.41283085149E+02 -0.37857227782E+02 -0.13412557166E+03  0.14535175193E+03  0.00000000000E+00 0.  1.
         -5    1    5    5    0  503 -0.12096148496E+03  0.16064634046E+02 -0.27819572284E+02  0.12524285175E+03  0.47000000000E+01 0.  1.
<mgrwt>
<rscale>  2 0.29504377E+03</rscale>
<asrwt>0</asrwt>
<pdfrwt beam="1">  1       21 0.26244705E-01 0.29506500E+03</pdfrwt>
<pdfrwt beam="2">  1       21 0.79062639E-01 0.29506500E+03</pdfrwt>
<totfact> 0.18498918E+04</totfact>
</mgrwt>
</event>
<event>
12    1  0.1473662E-001  0.1883908E+03  0.7546771E-02  0.1160646E+00
         21   -1    0    0  504  503  0.00000000000E+00  0.00000000000E+00  0.20737835480E+02  0.20737835480E+02  0.00000000000E+00 0.  1.
         21   -1    0    0  502  504 -0.00000000000E+00 -0.00000000000E+00 -0.16933845680E+04  0.16933845680E+04  0.00000000000E+00 0.  1.
          6    2    1    2  502    0  0.22425653615E+02 -0.66026029840E+02 -0.91073622918E+03  0.93001696923E+03  0.17501067780E+03 0.  0.
         24    2    3    3    0    0  0.13188289332E+01 -0.10742711301E+03 -0.77520082773E+03  0.78665908565E+03  0.79711164884E+02 0.  0.
         -6    2    1    2    0  503 -0.22425653615E+02  0.66026029840E+02 -0.76191050334E+03  0.78410543426E+03  0.17161401567E+03 0.  0.
        -24    2    5    5    0    0  0.13920748152E+02  0.61221294254E+02 -0.72421836321E+03  0.73131401608E+03  0.79913192940E+02 0.  0.
          2    1    4    4  501    0  0.38877586226E+02 -0.67107329992E+02 -0.40208285636E+03  0.40949418045E+03  0.00000000000E+00 0. -1.
         -1    1    4    4    0  501 -0.37558757293E+02 -0.40319783016E+02 -0.37311797138E+03  0.37716490520E+03  0.00000000000E+00 0.  1.
          5    1    3    3  502    0  0.21106824682E+02  0.41401083169E+02 -0.13553540145E+03  0.14335788357E+03  0.47000000000E+01 0. -1.
         13    1    6    6    0    0 -0.14407121812E+02 -0.14705672437E+02 -0.14738845914E+03  0.14881928587E+03  0.00000000000E+00 0. -1.
        -14    1    6    6    0    0  0.28327869965E+02  0.75926966690E+02 -0.57682990407E+03  0.58249473021E+03  0.00000000000E+00 0.  1.
         -5    1    5    5    0  503 -0.36346401768E+02  0.48047355862E+01 -0.37692140133E+02  0.52791418178E+02  0.47000000000E+01 0.  1.
<mgrwt>
<rscale>  2 0.18759800E+03</rscale>
<asrwt>0</asrwt>
<pdfrwt beam="1">  1       21 0.31904361E-02 0.18839077E+03</pdfrwt>
<pdfrwt beam="2">  1       21 0.26052071E+00 0.18839077E+03</pdfrwt>
<totfact> 0.33090641E+04</totfact>
</mgrwt>
</event>
<event>
12    1  0.1473662E-001  0.2047434E+03  0.7546771E-02  0.1146089E+00
         21   -1    0    0  504  503  0.00000000000E+00  0.00000000000E+00  0.31856166270E+02  0.31856166270E+02  0.00000000000E+00 0.  1.
         21   -1    0    0  502  504 -0.00000000000E+00 -0.00000000000E+00 -0.15035242056E+04  0.15035242056E+04  0.00000000000E+00 0. -1.
          6    2    1    2  502    0  0.64855426582E+02  0.86238024617E+02 -0.10157400544E+04  0.10361697404E+04  0.17400186638E+03 0.  0.
         24    2    3    3    0    0 -0.24116255317E+02  0.63219443258E+02 -0.68026874434E+03  0.68830639775E+03  0.80136389241E+02 0.  0.
         -6    2    1    2    0  503 -0.64855426582E+02 -0.86238024617E+02 -0.45592798497E+03  0.49921063154E+03  0.17233021764E+03 0.  0.
        -24    2    5    5    0    0 -0.42914678064E+02 -0.55901209519E+02 -0.10347363590E+03  0.14474218869E+03  0.72642226293E+02 0.  0.
          2    1    4    4  501    0  0.77835419462E+01  0.27823863224E+02 -0.52723663228E+03  0.52802766718E+03  0.00000000000E+00 0. -1.
         -1    1    4    4    0  501 -0.31899797263E+02  0.35395580034E+02 -0.15303211206E+03  0.16027873057E+03  0.00000000000E+00 0.  1.
          5    1    3    3  502    0  0.88971681898E+02  0.23018581359E+02 -0.33547131005E+03  0.34786334261E+03  0.47000000000E+01 0. -1.
         13    1    6    6    0    0 -0.18203858801E+02  0.16499148569E+02 -0.21952582890E+02  0.32947204348E+02  0.00000000000E+00 0. -1.
        -14    1    6    6    0    0 -0.24710819262E+02 -0.72400358088E+02 -0.81521053006E+02  0.11179498434E+03  0.00000000000E+00 0.  1.
         -5    1    5    5    0  503 -0.21940748518E+02 -0.30336815099E+02 -0.35245434908E+03  0.35446844286E+03  0.47000000000E+01 0.  1.
<mgrwt>
<rscale>  2 0.20438782E+03</rscale>
<asrwt>0</asrwt>
<pdfrwt beam="1">  1       21 0.49009490E-02 0.20474343E+03</pdfrwt>
<pdfrwt beam="2">  1       21 0.23131140E+00 0.20474343E+03</pdfrwt>
<totfact> 0.23666518E+04</totfact>
</mgrwt>
</event>
<event>
12    1  0.1473662E-001  0.2165731E+03  0.7546771E-02  0.1136534E+00
         21   -1    0    0  504  503  0.00000000000E+00  0.00000000000E+00  0.57735427695E+02  0.57735427695E+02  0.00000000000E+00 0. -1.
         21   -1    0    0  502  504 -0.00000000000E+00 -0.00000000000E+00 -0.82988951173E+03  0.82988951173E+03  0.00000000000E+00 0. -1.
          6    2    1    2  502    0 -0.10443430167E+03 -0.76911144710E+02 -0.45268302578E+03  0.50166422685E+03  0.17298331460E+03 0.  0.
         24    2    3    3    0    0  0.41299221735E+01 -0.25239662178E+02 -0.26844139479E+03  0.28161150272E+03  0.81179795682E+02 0.  0.
         -6    2    1    2    0  503  0.10443430167E+03  0.76911144710E+02 -0.31947105826E+03  0.38596071258E+03  0.17344182610E+03 0.  0.
        -24    2    5    5    0    0  0.69116793288E+02  0.59189670834E+02 -0.85287009120E+02  0.14841990365E+03  0.80461454288E+02 0.  0.
          4    1    4    4  501    0  0.15271362484E+02 -0.36439163296E+01 -0.41960162923E+01  0.16251128917E+02  0.00000000000E+00 0. -1.
         -3    1    4    4    0  501 -0.11141440311E+02 -0.21595745848E+02 -0.26424537849E+03  0.26536037380E+03  0.00000000000E+00 0.  1.
          5    1    3    3  502    0 -0.10856422384E+03 -0.51671482533E+02 -0.18424163099E+03  0.22005272413E+03  0.47000000000E+01 0. -1.
         11    1    6    6    0    0  0.64775596114E+02  0.14988401790E+02 -0.79488708871E+02  0.10362907352E+03  0.00000000000E+00 0. -1.
        -12    1    6    6    0    0  0.43411971746E+01  0.44201269043E+02 -0.57983002490E+01  0.44790830130E+02  0.00000000000E+00 0.  1.
         -5    1    5    5    0  503  0.35317508383E+02  0.17721473877E+02 -0.23418404914E+03  0.23754080893E+03  0.47000000000E+01 0.  1.
<mgrwt>
<rscale>  2 0.21648130E+03</rscale>
<asrwt>0</asrwt>
<pdfrwt beam="1">  1       21 0.88823739E-02 0.21657312E+03</pdfrwt>
<pdfrwt beam="2">  1       21 0.12767530E+00 0.21657312E+03</pdfrwt>
<totfact> 0.44637082E+04</totfact>
</mgrwt>
</event>
<event>
12    1  0.1473662E-001  0.1885434E+03  0.7546771E-02  0.1159855E+00
         21   -1    0    0  504  503  0.00000000000E+00  0.00000000000E+00  0.17310000816E+03  0.17310000816E+03  0.00000000000E+00 0. -1.
         21   -1    0    0  502  504 -0.00000000000E+00 -0.00000000000E+00 -0.58467930533E+03  0.58467930533E+03  0.00000000000E+00 0. -1.
          6    2    1    2  502    0 -0.67482285816E+02 -0.32077653717E+02 -0.51117099531E+03  0.54483427454E+03  0.17310622608E+03 0.  0.
         24    2    3    3    0    0 -0.67466293125E+01 -0.53330973271E+02 -0.15398637658E+03  0.18186944785E+03  0.80467273915E+02 0.  0.
         -6    2    1    2    0  503  0.67482285816E+02  0.32077653717E+02  0.99591698131E+02  0.21294503894E+03  0.17275487983E+03 0.  0.
        -24    2    5    5    0    0  0.80211111034E+02  0.73288908389E+02  0.44158397475E+02  0.14255092467E+03  0.81029103597E+02 0.  0.
          4    1    4    4  501    0 -0.31479186421E+02 -0.60364847006E+02 -0.89536337757E+02  0.11247937460E+03  0.00000000000E+00 0. -1.
         -3    1    4    4    0  501  0.24732557109E+02  0.70338737353E+01 -0.64450038827E+02  0.69390073251E+02  0.00000000000E+00 0.  1.
          5    1    3    3  502    0 -0.60735656504E+02  0.21253319554E+02 -0.35718461872E+03  0.36296482669E+03  0.47000000000E+01 0. -1.
         13    1    6    6    0    0  0.33936333544E+02  0.81627170887E+02  0.31649296069E+02  0.93895408317E+02  0.00000000000E+00 0. -1.
        -14    1    6    6    0    0  0.46274777490E+02 -0.83382624984E+01  0.12509101406E+02  0.48655516349E+02  0.00000000000E+00 0.  1.
         -5    1    5    5    0  503 -0.12728825218E+02 -0.41211254671E+02  0.55433300657E+02  0.70394114276E+02  0.47000000000E+01 0.  1.
<mgrwt>
<rscale>  2 0.18846268E+03</rscale>
<asrwt>0</asrwt>
<pdfrwt beam="1">  1       21 0.26630770E-01 0.18854336E+03</pdfrwt>
<pdfrwt beam="2">  1       21 0.89950664E-01 0.18854336E+03</pdfrwt>
<totfact> 0.14154720E+04</totfact>
</mgrwt>
</event>
<event>
12    1  0.1473662E-001  0.1891184E+03  0.7546771E-02  0.1160097E+00
         21   -1    0    0  504  503  0.00000000000E+00  0.00000000000E+00  0.50746899417E+03  0.50746899417E+03  0.00000000000E+00 0. -1.
         21   -1    0    0  502  504 -0.00000000000E+00 -0.00000000000E+00 -0.19939311099E+03  0.19939311099E+03  0.00000000000E+00 0. -1.
          6    2    1    2  502    0 -0.64585484347E+02 -0.19979961693E+02 -0.13215244407E+03  0.22773086509E+03  0.17270377757E+03 0.  0.
         24    2    3    3    0    0 -0.31526894859E+02 -0.41623402200E+02 -0.80964396671E+01  0.97449281270E+02  0.81880140294E+02 0.  0.
         -6    2    1    2    0  503  0.64585484347E+02  0.19979961693E+02  0.44022832725E+03  0.47913124007E+03  0.17662186003E+03 0.  0.
        -24    2    5    5    0    0  0.95661077469E+02  0.58238421373E+02  0.34349984162E+03  0.37046711463E+03  0.81920610127E+02 0.  0.
          2    1    4    4  501    0 -0.17933050447E+02  0.21299796495E+02  0.11548436374E+02  0.30143689418E+02  0.00000000000E+00 0. -1.
         -1    1    4    4    0  501 -0.13593844412E+02 -0.62923198695E+02 -0.19644876041E+02  0.67305591852E+02  0.00000000000E+00 0.  1.
          5    1    3    3  502    0 -0.33058589488E+02  0.21643440507E+02 -0.12405600440E+03  0.13028158382E+03  0.47000000000E+01 0. -1.
         13    1    6    6    0    0  0.55614855716E+02  0.75194902890E+02  0.20561209001E+03  0.22588407902E+03  0.00000000000E+00 0. -1.
        -14    1    6    6    0    0  0.40046221753E+02 -0.16956481517E+02  0.13788775161E+03  0.14458303561E+03  0.00000000000E+00 0.  1.
         -5    1    5    5    0  503 -0.31075593122E+02 -0.38258459680E+02  0.96728485631E+02  0.10866412544E+03  0.47000000000E+01 0.  1.
<mgrwt>
<rscale>  2 0.18819822E+03</rscale>
<asrwt>0</asrwt>
<pdfrwt beam="1">  1       21 0.78072152E-01 0.18911839E+03</pdfrwt>
<pdfrwt beam="2">  1       21 0.30675863E-01 0.18911839E+03</pdfrwt>
<totfact> 0.14859675E+04</totfact>
</mgrwt>
</event>
<event>
12    1  0.1473662E-001  0.1995427E+03  0.7546771E-02  0.1150177E+00
         21   -1    0    0  504  503  0.00000000000E+00  0.00000000000E+00  0.54169337854E+03  0.54169337854E+03  0.00000000000E+00 0.  1.
         21   -1    0    0  502  504 -0.00000000000E+00 -0.00000000000E+00 -0.92696731430E+02  0.92696731430E+02  0.00000000000E+00 0.  1.
          6    2    1    2  502    0  0.94610003859E+02 -0.29420938389E+02  0.79724867297E+02  0.21465335765E+03  0.17292589465E+03 0.  0.
         24    2    3    3    0    0 -0.23180478715E+01  0.32250827789E+02  0.45956377211E+02  0.94816573321E+02  0.76372146303E+02 0.  0.
         -6    2    1    2    0  503 -0.94610003859E+02  0.29420938389E+02  0.36927177981E+03  0.41973675232E+03  0.17320695550E+03 0.  0.
        -24    2    5    5    0    0 -0.17551600257E+02  0.61636756318E+02  0.27594607508E+03  0.29440665356E+03  0.80136713859E+02 0.  0.
          4    1    4    4  501    0 -0.13115201565E+02  0.12475309055E+02  0.63646659608E+02  0.66170530656E+02  0.00000000000E+00 0. -1.
         -3    1    4    4    0  501  0.10797153694E+02  0.19775518734E+02 -0.17690282396E+02  0.28646042665E+02  0.00000000000E+00 0.  1.
          5    1    3    3  502    0  0.96928051731E+02 -0.61671766178E+02  0.33768490085E+02  0.11983678433E+03  0.47000000000E+01 0. -1.
         11    1    6    6    0    0  0.31204598135E+02  0.13275677504E+02  0.94423933002E+02  0.10032870816E+03  0.00000000000E+00 0. -1.
        -12    1    6    6    0    0 -0.48756198392E+02  0.48361078814E+02  0.18152214208E+03  0.19407794540E+03  0.00000000000E+00 0.  1.
         -5    1    5    5    0  503 -0.77058403602E+02 -0.32215817929E+02  0.93325704732E+02  0.12533009876E+03  0.47000000000E+01 0.  1.
<mgrwt>
<rscale>  2 0.19948170E+03</rscale>
<asrwt>0</asrwt>
<pdfrwt beam="1">  1       21 0.83337441E-01 0.19954271E+03</pdfrwt>
<pdfrwt beam="2">  1       21 0.14261036E-01 0.19954271E+03</pdfrwt>
<totfact> 0.53719164E+04</totfact>
</mgrwt>
</event>
<event>
12    1  0.1473662E-001  0.1846631E+03  0.7546771E-02  0.1165238E+00
         21   -1    0    0  504  503  0.00000000000E+00  0.00000000000E+00  0.54011836902E+03  0.54011836902E+03  0.00000000000E+00 0. -1.
         21   -1    0    0  502  504 -0.00000000000E+00 -0.00000000000E+00 -0.13879744592E+03  0.13879744592E+03  0.00000000000E+00 0. -1.
          6    2    1    2  502    0 -0.41805740368E+02  0.50414336503E+02 -0.52397414011E+02  0.19195299746E+03  0.17265902521E+03 0.  0.
         24    2    3    3    0    0  0.11275779810E+02  0.38095335121E+02  0.29723670437E+02  0.93285028545E+02  0.78994950460E+02 0.  0.
         -6    2    1    2    0  503  0.41805740368E+02 -0.50414336503E+02  0.45371833711E+03  0.48696281747E+03  0.16426542823E+03 0.  0.
        -24    2    5    5    0    0 -0.20791959186E+02 -0.78074603088E+01  0.34018701633E+03  0.35041513829E+03  0.81057393653E+02 0.  0.
          2    1    4    4  501    0 -0.40715568076E+01 -0.21409075735E+02 -0.54702675208E+01  0.22468865690E+02  0.00000000000E+00 0. -1.
         -1    1    4    4    0  501  0.15347336618E+02  0.59504410855E+02  0.35193937958E+02  0.70816162855E+02  0.00000000000E+00 0.  1.
          5    1    3    3  502    0 -0.53081520178E+02  0.12319001382E+02 -0.82121084448E+02  0.98667968918E+02  0.47000000000E+01 0. -1.
         11    1    6    6    0    0 -0.17626781583E+02  0.22326764965E+02  0.29273786303E+03  0.29411671886E+03  0.00000000000E+00 0. -1.
        -12    1    6    6    0    0 -0.31651776030E+01 -0.30134225274E+02  0.47449153299E+02  0.56298419435E+02  0.00000000000E+00 0.  1.
         -5    1    5    5    0  503  0.62597699554E+02 -0.42606876194E+02  0.11353132079E+03  0.13654767918E+03  0.47000000000E+01 0.  1.
<mgrwt>
<rscale>  2 0.18267552E+03</rscale>
<asrwt>0</asrwt>
<pdfrwt beam="1">  1       21 0.83095133E-01 0.18466311E+03</pdfrwt>
<pdfrwt beam="2">  1       21 0.21353453E-01 0.18466311E+03</pdfrwt>
<totfact> 0.25882149E+04</totfact>
</mgrwt>
</event>
<event>
12    1  0.1473662E-001  0.1902631E+03  0.7546771E-02  0.1158715E+00
         21   -1    0    0  504  503  0.00000000000E+00  0.00000000000E+00  0.12295411167E+03  0.12295411167E+03  0.00000000000E+00 0. -1.
         21   -1    0    0  502  504 -0.00000000000E+00 -0.00000000000E+00 -0.32059099166E+03  0.32059099166E+03  0.00000000000E+00 0. -1.
          6    2    1    2  502    0 -0.69059893605E+02  0.28719163917E+02 -0.16662467399E+03  0.25291070196E+03  0.17494565414E+03 0.  0.
         24    2    3    3    0    0 -0.98568710915E+02 -0.21935196913E+02 -0.96756347650E+02  0.16158541742E+03  0.80938944138E+02 0.  0.
         -6    2    1    2    0  503  0.69059893605E+02 -0.28719163917E+02 -0.31012205997E+02  0.19063440136E+03  0.17258522179E+03 0.  0.
        -24    2    5    5    0    0  0.25684714239E+02 -0.72954229877E+02  0.15932896097E+02  0.11276219929E+03  0.80494920384E+02 0.  0.
          2    1    4    4  501    0 -0.81136245564E+02 -0.76050277821E+01 -0.23324231071E+02  0.84764064006E+02  0.00000000000E+00 0. -1.
         -1    1    4    4    0  501 -0.17432465351E+02 -0.14330169131E+02 -0.73432116579E+02  0.76821353417E+02  0.00000000000E+00 0.  1.
          5    1    3    3  502    0  0.29508817310E+02  0.50654360831E+02 -0.69868326342E+02  0.91325284539E+02  0.47000000000E+01 0. -1.
         11    1    6    6    0    0  0.55057255955E+02 -0.49139802227E+02  0.11545799136E+02  0.74694893225E+02  0.00000000000E+00 0. -1.
        -12    1    6    6    0    0 -0.29372541715E+02 -0.23814427651E+02  0.43870969608E+01  0.38067306063E+02  0.00000000000E+00 0.  1.
         -5    1    5    5    0  503  0.43375179366E+02  0.44235065960E+02 -0.46945102094E+02  0.77872202076E+02  0.47000000000E+01 0.  1.
<mgrwt>
<rscale>  2 0.18971872E+03</rscale>
<asrwt>0</asrwt>
<pdfrwt beam="1">  1       21 0.18916017E-01 0.19026308E+03</pdfrwt>
<pdfrwt beam="2">  1       21 0.49321691E-01 0.19026308E+03</pdfrwt>
<totfact> 0.10048816E+05</totfact>
</mgrwt>
</event>
<event>
12    1  0.1473662E-001  0.1883543E+03  0.7546771E-02  0.1160810E+00
         21   -1    0    0  504  503  0.00000000000E+00  0.00000000000E+00  0.49029731432E+03  0.49029731432E+03  0.00000000000E+00 0. -1.
         21   -1    0    0  502  504 -0.00000000000E+00 -0.00000000000E+00 -0.93424155743E+02  0.93424155743E+02  0.00000000000E+00 0. -1.
          6    2    1    2  502    0 -0.26573430200E+02  0.59612883165E+02  0.56760986868E+02  0.19672101789E+03  0.17668476510E+03 0.  0.
         24    2    3    3    0    0 -0.50288981722E+01 -0.30437224634E+02  0.61978154124E+02  0.10386361318E+03  0.77425086981E+02 0.  0.
         -6    2    1    2    0  503  0.26573430200E+02 -0.59612883165E+02  0.34011217171E+03  0.38700045218E+03  0.17272295043E+03 0.  0.
        -24    2    5    5    0    0  0.77179776826E+02 -0.47690700014E+02  0.29237911241E+03  0.31626378757E+03  0.79411064299E+02 0.  0.
          2    1    4    4  501    0 -0.19169943665E+01 -0.43105254984E+02  0.27712997864E+01  0.43236766497E+02  0.00000000000E+00 0. -1.
         -1    1    4    4    0  501 -0.31119038057E+01  0.12668030349E+02  0.59206854338E+02  0.60626846683E+02  0.00000000000E+00 0.  1.
          5    1    3    3  502    0 -0.21544532027E+02  0.90050107800E+02 -0.52171672562E+01  0.92857404708E+02  0.47000000000E+01 0. -1.
         11    1    6    6    0    0  0.27721159251E+02  0.10472772591E+01  0.19326989568E+03  0.19525063902E+03  0.00000000000E+00 0. -1.
        -12    1    6    6    0    0  0.49458617575E+02 -0.48737977273E+02  0.99109216728E+02  0.12101314855E+03  0.00000000000E+00 0.  1.
         -5    1    5    5    0  503 -0.50606346626E+02 -0.11922183151E+02  0.47733059302E+02  0.70736664611E+02  0.47000000000E+01 0.  1.
<mgrwt>
<rscale>  2 0.18741957E+03</rscale>
<asrwt>0</asrwt>
<pdfrwt beam="1">  1       21 0.75430355E-01 0.18835432E+03</pdfrwt>
<pdfrwt beam="2">  1       21 0.14372947E-01 0.18835432E+03</pdfrwt>
<totfact> 0.66675195E+04</totfact>
</mgrwt>
</event>
<event>
12    1  0.1473662E-001  0.1928246E+03  0.7546771E-02  0.1156190E+00
         21   -1    0    0  504  503  0.00000000000E+00  0.00000000000E+00  0.14989657407E+03  0.14989657407E+03  0.00000000000E+00 0. -1.
         21   -1    0    0  502  504 -0.00000000000E+00 -0.00000000000E+00 -0.26358902160E+03  0.26358902160E+03  0.00000000000E+00 0. -1.
          6    2    1    2  502    0 -0.72920789183E+02 -0.40207065023E+02 -0.10919074718E+03  0.22060844059E+03  0.17265982513E+03 0.  0.
         24    2    3    3    0    0 -0.52165256517E+02 -0.11024305299E+02  0.74761133070E+01  0.98478706545E+02  0.82458559761E+02 0.  0.
         -6    2    1    2    0  503  0.72920789183E+02  0.40207065023E+02 -0.45017003529E+01  0.19287715508E+03  0.17391745764E+03 0.  0.
        -24    2    5    5    0    0  0.22956501300E+02  0.82166566630E+02 -0.30265647575E+02  0.12257138849E+03  0.82640124816E+02 0.  0.
          4    1    4    4  501    0 -0.34563545921E+02 -0.38617377626E+02  0.28921156667E+02  0.59349590263E+02  0.00000000000E+00 0. -1.
         -3    1    4    4    0  501 -0.17601710596E+02  0.27593072327E+02 -0.21445043360E+02  0.39129116283E+02  0.00000000000E+00 0.  1.
          5    1    3    3  502    0 -0.20755532666E+02 -0.29182759724E+02 -0.11666686048E+03  0.12212973404E+03  0.47000000000E+01 0. -1.
         11    1    6    6    0    0  0.27497359428E+02  0.65560279373E+02  0.16288986786E+02  0.72935492714E+02  0.00000000000E+00 0. -1.
        -12    1    6    6    0    0 -0.45408581277E+01  0.16606287257E+02 -0.46554634361E+02  0.49635895776E+02  0.00000000000E+00 0.  1.
         -5    1    5    5    0  503  0.49964287883E+02 -0.41959501607E+02  0.25763947222E+02  0.70305766585E+02  0.47000000000E+01 0.  1.
<mgrwt>
<rscale>  2 0.19254060E+03</rscale>
<asrwt>0</asrwt>
<pdfrwt beam="1">  1       21 0.23061012E-01 0.19282461E+03</pdfrwt>
<pdfrwt beam="2">  1       21 0.40552157E-01 0.19282461E+03</pdfrwt>
<totfact> 0.10346476E+05</totfact>
</mgrwt>
</event>
<event>
12    1  0.1473662E-001  0.2082456E+03  0.7546771E-02  0.1149482E+00
         21   -1    0    0  504  503  0.00000000000E+00  0.00000000000E+00  0.26370698513E+03  0.26370698513E+03  0.00000000000E+00 0. -1.
         21   -1    0    0  502  504 -0.00000000000E+00 -0.00000000000E+00 -0.14695210886E+03  0.14695210886E+03  0.00000000000E+00 0. -1.
          6    2    1    2  502    0 -0.27448718735E+02 -0.71668582718E+02  0.23737276175E+02  0.20959406057E+03  0.19358820738E+03 0.  0.
         24    2    3    3    0    0  0.30008323803E+02 -0.10209947633E+02 -0.46955686167E+02  0.99602876883E+02  0.81921633844E+02 0.  0.
         -6    2    1    2    0  503  0.27448718735E+02  0.71668582718E+02  0.93017600096E+02  0.20106503342E+03  0.16088833341E+03 0.  0.
        -24    2    5    5    0    0  0.75229132716E+02  0.63661364722E+02  0.82172064535E+02  0.15119721672E+03  0.79975986316E+02 0.  0.
          4    1    4    4  501    0 -0.90544654166E+01  0.24737696810E+02  0.38310263005E+01  0.26619799961E+02  0.00000000000E+00 0. -1.
         -3    1    4    4    0  501  0.39062789219E+02 -0.34947644443E+02 -0.50786712468E+02  0.72983076922E+02  0.00000000000E+00 0.  1.
          5    1    3    3  502    0 -0.57457042538E+02 -0.61458635085E+02  0.70692962342E+02  0.10999118369E+03  0.47000000000E+01 0. -1.
         13    1    6    6    0    0  0.68107130392E+02  0.58075414029E+02  0.98150056222E+02  0.13283361194E+03  0.00000000000E+00 0. -1.
        -14    1    6    6    0    0  0.71220023241E+01  0.55859506929E+01 -0.15977991687E+02  0.18363604782E+02  0.00000000000E+00 0.  1.
         -5    1    5    5    0  503 -0.47780413981E+02  0.80072179964E+01  0.10845535561E+02  0.49867816694E+02  0.47000000000E+01 0.  1.
<mgrwt>
<rscale>  2 0.20030523E+03</rscale>
<asrwt>0</asrwt>
<pdfrwt beam="1">  1       21 0.40570305E-01 0.20824556E+03</pdfrwt>
<pdfrwt beam="2">  1       21 0.22608017E-01 0.20824556E+03</pdfrwt>
<totfact> 0.10666768E+05</totfact>
</mgrwt>
</event>
<event>
12    1  0.1473662E-001  0.2188629E+03  0.7546771E-02  0.1135020E+00
         21   -1    0    0  504  503  0.00000000000E+00  0.00000000000E+00  0.10421570333E+03  0.10421570333E+03  0.00000000000E+00 0.  1.
         21   -1    0    0  502  504 -0.00000000000E+00 -0.00000000000E+00 -0.70381070317E+03  0.70381070317E+03  0.00000000000E+00 0. -1.
          6    2    1    2  502    0  0.12468646782E+03  0.42524666783E+02 -0.60958953302E+02  0.22719370103E+03  0.17477391470E+03 0.  0.
         24    2    3    3    0    0  0.37246754380E+01  0.43796729985E+02 -0.46594146997E+02  0.10528467339E+03  0.83557292632E+02 0.  0.
         -6    2    1    2    0  503 -0.12468646782E+03 -0.42524666783E+02 -0.53863604654E+03  0.58083270546E+03  0.17286636041E+03 0.  0.
        -24    2    5    5    0    0 -0.95929580885E+01 -0.12438292084E+02 -0.11985122131E+03  0.14545410497E+03  0.80906399304E+02 0.  0.
          2    1    4    4  501    0 -0.21895629073E+02  0.27256632944E+02 -0.61954921077E+02  0.71138982686E+02  0.00000000000E+00 0. -1.
         -1    1    4    4    0  501  0.25620304511E+02  0.16540097041E+02  0.15360774080E+02  0.34145690704E+02  0.00000000000E+00 0.  1.
          5    1    3    3  502    0  0.12096179238E+03 -0.12720632018E+01 -0.14364806305E+02  0.12190902764E+03  0.47000000000E+01 0. -1.
         13    1    6    6    0    0 -0.39244348083E+02 -0.25854982617E+02 -0.88814939984E+02  0.10048229967E+03  0.00000000000E+00 0. -1.
        -14    1    6    6    0    0  0.29651389994E+02  0.13416690533E+02 -0.31036281327E+02  0.44971805301E+02  0.00000000000E+00 0.  1.
         -5    1    5    5    0  503 -0.11509350973E+03 -0.30086374699E+02 -0.41878482523E+03  0.43537860049E+03  0.47000000000E+01 0.  1.
<mgrwt>
<rscale>  2 0.21848188E+03</rscale>
<asrwt>0</asrwt>
<pdfrwt beam="1">  1       21 0.16033185E-01 0.21886293E+03</pdfrwt>
<pdfrwt beam="2">  1       21 0.10827857E+00 0.21886293E+03</pdfrwt>
<totfact> 0.23204295E+04</totfact>
</mgrwt>
</event>
<event>
12    1  0.1473662E-001  0.2773879E+03  0.7546771E-02  0.1097363E+00
         21   -1    0    0  504  503  0.00000000000E+00  0.00000000000E+00  0.25251392376E+03  0.25251392376E+03  0.00000000000E+00 0.  1.
         21   -1    0    0  502  504 -0.00000000000E+00 -0.00000000000E+00 -0.61640620286E+03  0.61640620286E+03  0.00000000000E+00 0. -1.
          6    2    1    2  502    0  0.13225481361E+03 -0.16895349022E+03 -0.49210212437E+03  0.56489695968E+03  0.17580516679E+03 0.  0.
         24    2    3    3    0    0  0.10986390362E+03 -0.39640127088E+02 -0.30290887889E+03  0.33459395738E+03  0.80980926221E+02 0.  0.
         -6    2    1    2    0  503 -0.13225481361E+03  0.16895349022E+03  0.12820984526E+03  0.30402316694E+03  0.17307716207E+03 0.  0.
        -24    2    5    5    0    0 -0.29772811097E+02  0.13864630065E+02  0.23171065246E+02  0.90457367498E+02  0.81036959608E+02 0.  0.
          2    1    4    4  501    0  0.11236939049E+03 -0.55712461123E+02 -0.25903807610E+03  0.28780459189E+03  0.00000000000E+00 0. -1.
         -1    1    4    4    0  501 -0.25054868662E+01  0.16072334035E+02 -0.43870802790E+02  0.46789365493E+02  0.00000000000E+00 0.  1.
          5    1    3    3  502    0  0.22390909986E+02 -0.12931336313E+03 -0.18919324548E+03  0.23030300230E+03  0.47000000000E+01 0. -1.
         11    1    6    6    0    0 -0.23451859279E+02 -0.26695727482E+02  0.32728532213E+02  0.48309506210E+02  0.00000000000E+00 0. -1.
        -12    1    6    6    0    0 -0.63209518184E+01  0.40560357548E+02 -0.95574669678E+01  0.42147861288E+02  0.00000000000E+00 0.  1.
         -5    1    5    5    0  503 -0.10248200251E+03  0.15508886015E+03  0.10503878002E+03  0.21356579944E+03  0.47000000000E+01 0.  1.
<mgrwt>
<rscale>  2 0.27695672E+03</rscale>
<asrwt>0</asrwt>
<pdfrwt beam="1">  1       21 0.38848296E-01 0.27738795E+03</pdfrwt>
<pdfrwt beam="2">  1       21 0.94831723E-01 0.27738795E+03</pdfrwt>
<totfact> 0.56203513E+03</totfact>
</mgrwt>
</event>
<event>
12    1  0.1473662E-001  0.2185612E+03  0.7546771E-02  0.1135164E+00
         21   -1    0    0  504  503  0.00000000000E+00  0.00000000000E+00  0.86748223891E+03  0.86748223891E+03  0.00000000000E+00 0.  1.
         21   -1    0    0  502  504 -0.00000000000E+00 -0.00000000000E+00 -0.56767794182E+02  0.56767794182E+02  0.00000000000E+00 0.  1.
          6    2    1    2  502    0  0.27849218785E+02 -0.13142599291E+03  0.31823788358E+03  0.38545308149E+03  0.17102735711E+03 0.  0.
         24    2    3    3    0    0  0.67926618146E+02 -0.14090465688E+03  0.24536777041E+03  0.30161880208E+03  0.79375129788E+02 0.  0.
         -6    2    1    2    0  503 -0.27849218785E+02  0.13142599291E+03  0.49247656114E+03  0.53879695160E+03  0.17239669713E+03 0.  0.
        -24    2    5    5    0    0  0.27667478324E+02  0.11592452934E+03  0.43256215561E+03  0.45552495738E+03  0.78670086273E+02 0.  0.
          4    1    4    4  501    0  0.32662250101E+02 -0.10323166254E+03  0.10009677292E+03  0.14745495136E+03  0.00000000000E+00 0. -1.
         -3    1    4    4    0  501  0.35264368045E+02 -0.37672994343E+02  0.14527099750E+03  0.15416385073E+03  0.00000000000E+00 0.  1.
          5    1    3    3  502    0 -0.40077399361E+02  0.94786639679E+01  0.72870113166E+02  0.83834279402E+02  0.47000000000E+01 0. -1.
         13    1    6    6    0    0  0.11746936875E+02 -0.79632882197E+01  0.85509848693E+02  0.86679517239E+02  0.00000000000E+00 0. -1.
        -14    1    6    6    0    0  0.15920541449E+02  0.12388781756E+03  0.34705230692E+03  0.36884544014E+03  0.00000000000E+00 0.  1.
         -5    1    5    5    0  503 -0.55516697109E+02  0.15501463574E+02  0.59914405534E+02  0.83271994220E+02  0.47000000000E+01 0.  1.
<mgrwt>
<rscale>  2 0.21829107E+03</rscale>
<asrwt>0</asrwt>
<pdfrwt beam="1">  1       21 0.13345880E+00 0.21856119E+03</pdfrwt>
<pdfrwt beam="2">  1       21 0.87335074E-02 0.21856119E+03</pdfrwt>
<totfact> 0.41052381E+04</totfact>
</mgrwt>
</event>
<event>
12    1  0.1473662E-001  0.2021381E+03  0.7546771E-02  0.1148164E+00
         21   -1    0    0  504  503  0.00000000000E+00  0.00000000000E+00  0.22016153498E+03  0.22016153498E+03  0.00000000000E+00 0.  1.
         21   -1    0    0  502  504 -0.00000000000E+00 -0.00000000000E+00 -0.11153278447E+04  0.11153278447E+04  0.00000000000E+00 0.  1.
          6    2    1    2  502    0  0.42277333758E+02  0.91721475080E+02 -0.10577486506E+04  0.10768899774E+04  0.17509886856E+03 0.  0.
         24    2    3    3    0    0  0.46171783228E+02 -0.14731949845E+02 -0.54578897529E+03  0.55394418911E+03  0.81361509227E+02 0.  0.
         -6    2    1    2    0  503 -0.42277333758E+02 -0.91721475080E+02  0.16258234082E+03  0.25859940228E+03  0.17389776127E+03 0.  0.
        -24    2    5    5    0    0 -0.91118616759E+02 -0.46930039788E+02  0.79786698591E+02  0.15244408224E+03  0.79801315679E+02 0.  0.
          4    1    4    4  501    0  0.16803765986E+02 -0.39132296959E+02 -0.13926794080E+03  0.14563400204E+03  0.00000000000E+00 0. -1.
         -3    1    4    4    0  501  0.29368017243E+02  0.24400347114E+02 -0.40652103450E+03  0.40831018707E+03  0.00000000000E+00 0.  1.
          5    1    3    3  502    0 -0.38944494697E+01  0.10645342492E+03 -0.51195967526E+03  0.52294578831E+03  0.47000000000E+01 0. -1.
         11    1    6    6    0    0 -0.57738936777E+01  0.20378662694E+02  0.11955238913E+02  0.24321913553E+02  0.00000000000E+00 0. -1.
        -12    1    6    6    0    0 -0.85344723081E+02 -0.67308702483E+02  0.67831459678E+02  0.12812216869E+03  0.00000000000E+00 0.  1.
         -5    1    5    5    0  503  0.48841283000E+02 -0.44791435291E+02  0.82795642224E+02  0.10615532004E+03  0.47000000000E+01 0.  1.
<mgrwt>
<rscale>  2 0.20187772E+03</rscale>
<asrwt>0</asrwt>
<pdfrwt beam="1">  1       21 0.33871006E-01 0.20213811E+03</pdfrwt>
<pdfrwt beam="2">  1       21 0.17158890E+00 0.20213811E+03</pdfrwt>
<totfact> 0.17300309E+03</totfact>
</mgrwt>
</event>
<event>
12    1  0.1473662E-001  0.2175837E+03  0.7546771E-02  0.1136011E+00
         21   -1    0    0  504  503  0.00000000000E+00  0.00000000000E+00  0.46483256215E+02  0.46483256215E+02  0.00000000000E+00 0.  1.
         21   -1    0    0  502  504 -0.00000000000E+00 -0.00000000000E+00 -0.10252763576E+04  0.10252763576E+04  0.00000000000E+00 0.  1.
          6    2    1    2  502    0  0.85175985266E+02  0.96025945736E+02 -0.42383270051E+03  0.47566924284E+03  0.17364083578E+03 0.  0.
         24    2    3    3    0    0  0.58711413072E+02  0.13293322673E+03 -0.36509739365E+03  0.40127537722E+03  0.81286829899E+02 0.  0.
         -6    2    1    2    0  503 -0.85175985266E+02 -0.96025945736E+02 -0.55496040090E+03  0.59609037099E+03  0.17568936537E+03 0.  0.
        -24    2    5    5    0    0 -0.67587899892E+02 -0.82728848237E+02 -0.55761456676E+03  0.57339041184E+03  0.80189605224E+02 0.  0.
          4    1    4    4  501    0  0.38098146277E+01  0.10041528664E+03 -0.25403455816E+03  0.27318730062E+03  0.00000000000E+00 0. -1.
         -3    1    4    4    0  501  0.54901598444E+02  0.32517940085E+02 -0.11106283549E+03  0.12808807660E+03  0.00000000000E+00 0.  1.
          5    1    3    3  502    0  0.26464572194E+02 -0.36907280994E+02 -0.58735306855E+02  0.74393865628E+02  0.47000000000E+01 0. -1.
         13    1    6    6    0    0 -0.41038010556E+02 -0.29584821201E+02 -0.42595346827E+03  0.42894724278E+03  0.00000000000E+00 0. -1.
        -14    1    6    6    0    0 -0.26549889336E+02 -0.53144027037E+02 -0.13166109849E+03  0.14444316907E+03  0.00000000000E+00 0.  1.
         -5    1    5    5    0  503 -0.17588085374E+02 -0.13297097499E+02  0.26541658614E+01  0.22699959150E+02  0.47000000000E+01 0.  1.
<mgrwt>
<rscale>  2 0.21716988E+03</rscale>
<asrwt>0</asrwt>
<pdfrwt beam="1">  1       21 0.71512693E-02 0.21758374E+03</pdfrwt>
<pdfrwt beam="2">  1       21 0.15773484E+00 0.21758374E+03</pdfrwt>
<totfact> 0.37563762E+04</totfact>
</mgrwt>
</event>
<event>
12    1  0.1473662E-001  0.2343899E+03  0.7546771E-02  0.1124630E+00
         21   -1    0    0  504  503  0.00000000000E+00  0.00000000000E+00  0.12540605513E+04  0.12540605513E+04  0.00000000000E+00 0. -1.
         21   -1    0    0  502  504 -0.00000000000E+00 -0.00000000000E+00 -0.43411197379E+02  0.43411197379E+02  0.00000000000E+00 0.  1.
          6    2    1    2  502    0  0.83097880548E+02  0.12368815466E+03  0.51443161084E+03  0.56285771308E+03  0.17310374225E+03 0.  0.
         24    2    3    3    0    0  0.40736816729E+02  0.10099258848E+02  0.12266496220E+03  0.15273566543E+03  0.80746562005E+02 0.  0.
         -6    2    1    2    0  503 -0.83097880548E+02 -0.12368815466E+03  0.69621774308E+03  0.73461403560E+03  0.18092710734E+03 0.  0.
        -24    2    5    5    0    0  0.59334741310E+00 -0.41914690379E+02  0.48121683455E+03  0.48979042202E+03  0.81042102137E+02 0.  0.
          4    1    4    4  501    0 -0.19239167705E+02 -0.16535010741E+02  0.35240884781E+02  0.43422023379E+02  0.00000000000E+00 0. -1.
         -3    1    4    4    0  501  0.59975984434E+02  0.26634269589E+02  0.87424077424E+02  0.10931364205E+03  0.00000000000E+00 0.  1.
          5    1    3    3  502    0  0.42361063819E+02  0.11358889582E+03  0.39176664864E+03  0.41012204764E+03  0.47000000000E+01 0. -1.
         13    1    6    6    0    0  0.14955511783E+01  0.14933366383E+02  0.19603033762E+02  0.24688479855E+02  0.00000000000E+00 0. -1.
        -14    1    6    6    0    0 -0.90220376519E+00 -0.56848056762E+02  0.46161380079E+03  0.46510194216E+03  0.00000000000E+00 0.  1.
         -5    1    5    5    0  503 -0.83691227961E+02 -0.81773464284E+02  0.21500090853E+03  0.24482361358E+03  0.47000000000E+01 0.  1.
<mgrwt>
<rscale>  2 0.23287919E+03</rscale>
<asrwt>0</asrwt>
<pdfrwt beam="1">  1       21 0.19293236E+00 0.23438992E+03</pdfrwt>
<pdfrwt beam="2">  1       21 0.66786467E-02 0.23438992E+03</pdfrwt>
<totfact> 0.23788836E+04</totfact>
</mgrwt>
</event>
<event>
12    1  0.1473662E-001  0.1852718E+03  0.7546771E-02  0.1163577E+00
         21   -1    0    0  504  503  0.00000000000E+00  0.00000000000E+00  0.29487058284E+02  0.29487058284E+02  0.00000000000E+00 0.  1.
         21   -1    0    0  502  504 -0.00000000000E+00 -0.00000000000E+00 -0.11475186634E+04  0.11475186634E+04  0.00000000000E+00 0.  1.
          6    2    1    2  502    0  0.75185033919E+00 -0.57680138920E+02 -0.59955448493E+03  0.62752787779E+03  0.17606275386E+03 0.  0.
         24    2    3    3    0    0 -0.13060698896E+02 -0.91031238667E+02 -0.56142873514E+03  0.57481407345E+03  0.82168887826E+02 0.  0.
         -6    2    1    2    0  503 -0.75185033919E+00  0.57680138920E+02 -0.51847712023E+03  0.54947784394E+03  0.17256828525E+03 0.  0.
        -24    2    5    5    0    0 -0.45228833001E+02  0.29376746381E+01 -0.17744645403E+03  0.20119786365E+03  0.83301014534E+02 0.  0.
          4    1    4    4  501    0 -0.14609413606E+01 -0.27580161974E+02 -0.40033538114E+03  0.40128695104E+03  0.00000000000E+00 0. -1.
         -3    1    4    4    0  501 -0.11599757536E+02 -0.63451076693E+02 -0.16109335401E+03  0.17352712241E+03  0.00000000000E+00 0.  1.
          5    1    3    3  502    0  0.13812549236E+02  0.33351099747E+02 -0.38125749788E+02  0.52713804336E+02  0.47000000000E+01 0. -1.
         13    1    6    6    0    0 -0.88638517077E+01 -0.10259334639E+01  0.81173738866E+01  0.12062842343E+02  0.00000000000E+00 0. -1.
        -14    1    6    6    0    0 -0.36364981294E+02  0.39636081020E+01 -0.18556382792E+03  0.18913502131E+03  0.00000000000E+00 0.  1.
         -5    1    5    5    0  503  0.44476982662E+02  0.54742464282E+02 -0.34103066620E+03  0.34827998029E+03  0.47000000000E+01 0.  1.
<mgrwt>
<rscale>  2 0.18443684E+03</rscale>
<asrwt>0</asrwt>
<pdfrwt beam="1">  1       21 0.45364712E-02 0.18527185E+03</pdfrwt>
<pdfrwt beam="2">  1       21 0.17654131E+00 0.18527185E+03</pdfrwt>
<totfact> 0.61194613E+04</totfact>
</mgrwt>
</event>
<event>
12    1  0.1473662E-001  0.1920937E+03  0.7546771E-02  0.1157088E+00
         21   -1    0    0  504  503  0.00000000000E+00  0.00000000000E+00  0.36287629093E+03  0.36287629093E+03  0.00000000000E+00 0.  1.
         21   -1    0    0  502  504 -0.00000000000E+00 -0.00000000000E+00 -0.10903240166E+03  0.10903240166E+03  0.00000000000E+00 0.  1.
          6    2    1    2  502    0  0.77296946992E+02  0.31178263999E+02  0.19360031667E+03  0.27272893933E+03  0.17306960904E+03 0.  0.
         24    2    3    3    0    0 -0.13121295592E+02  0.19091785162E+02  0.51315025532E+02  0.10364690115E+03  0.87021742188E+02 0.  0.
         -6    2    1    2    0  503 -0.77296946992E+02 -0.31178263999E+02  0.60243572606E+02  0.19917975326E+03  0.17057662181E+03 0.  0.
        -24    2    5    5    0    0 -0.49960130522E+02 -0.62647816905E+01  0.10432088895E+03  0.14144862689E+03  0.81176376153E+02 0.  0.
          2    1    4    4  501    0 -0.26323650622E+02 -0.13481128837E+02 -0.11447727204E+02  0.31713181407E+02  0.00000000000E+00 0. -1.
         -1    1    4    4    0  501  0.13202355030E+02  0.32572913999E+02  0.62762752736E+02  0.71933719741E+02  0.00000000000E+00 0.  1.
          5    1    3    3  502    0  0.90418242584E+02  0.12086478837E+02  0.14228529114E+03  0.16908203818E+03  0.47000000000E+01 0. -1.
         11    1    6    6    0    0 -0.34114670253E+01  0.27117502801E+02  0.65049306159E+01  0.28094682552E+02  0.00000000000E+00 0. -1.
        -12    1    6    6    0    0 -0.46548663497E+02 -0.33382284491E+02  0.97815958338E+02  0.11335394434E+03  0.00000000000E+00 0.  1.
         -5    1    5    5    0  503 -0.27336816470E+02 -0.24913482309E+02 -0.44077316348E+02  0.57731126370E+02  0.47000000000E+01 0.  1.
<mgrwt>
<rscale>  2 0.19153048E+03</rscale>
<asrwt>0</asrwt>
<pdfrwt beam="1">  1       21 0.55827121E-01 0.19209371E+03</pdfrwt>
<pdfrwt beam="2">  1       21 0.16774216E-01 0.19209371E+03</pdfrwt>
<totfact> 0.96653225E+04</totfact>
</mgrwt>
</event>
<event>
12    1  0.1473662E-001  0.1932166E+03  0.7546771E-02  0.1155874E+00
         21   -1    0    0  504  503  0.00000000000E+00  0.00000000000E+00  0.21285883968E+03  0.21285883968E+03  0.00000000000E+00 0. -1.
         21   -1    0    0  502  504 -0.00000000000E+00 -0.00000000000E+00 -0.27980047070E+03  0.27980047070E+03  0.00000000000E+00 0. -1.
          6    2    1    2  502    0  0.70818880008E+02  0.47651183040E+02 -0.18484678309E+03  0.26739666193E+03  0.17333981822E+03 0.  0.
         24    2    3    3    0    0  0.46270743692E+00  0.18388765052E+02 -0.16997233727E+03  0.18961736350E+03  0.82010903709E+02 0.  0.
         -6    2    1    2    0  503 -0.70818880008E+02 -0.47651183040E+02  0.11790515207E+03  0.22526264845E+03  0.17191767475E+03 0.  0.
        -24    2    5    5    0    0 -0.99575581583E+02  0.81583579071E+01  0.74264357847E+02  0.14865806852E+03  0.81253745992E+02 0.  0.
          4    1    4    4  501    0  0.18562605395E+02 -0.12715719031E+02 -0.14270125775E+03  0.14446421285E+03  0.00000000000E+00 0. -1.
         -3    1    4    4    0  501 -0.18099897958E+02  0.31104484083E+02 -0.27271079515E+02  0.45153150655E+02  0.00000000000E+00 0.  1.
          5    1    3    3  502    0  0.70356172571E+02  0.29262417988E+02 -0.14874445826E+02  0.77779298428E+02  0.47000000000E+01 0. -1.
         13    1    6    6    0    0 -0.90571612920E+02  0.11957772536E+01  0.19410662967E+02  0.92635958391E+02  0.00000000000E+00 0. -1.
        -14    1    6    6    0    0 -0.90039686625E+01  0.69625806535E+01  0.54853694880E+02  0.56022110127E+02  0.00000000000E+00 0.  1.
         -5    1    5    5    0  503  0.28756701575E+02 -0.55809540947E+02  0.43640794226E+02  0.76604579934E+02  0.47000000000E+01 0.  1.
<mgrwt>
<rscale>  2 0.19289707E+03</rscale>
<asrwt>0</asrwt>
<pdfrwt beam="1">  1       21 0.32747514E-01 0.19321657E+03</pdfrwt>
<pdfrwt beam="2">  1       21 0.43046226E-01 0.19321657E+03</pdfrwt>
<totfact> 0.46567768E+04</totfact>
</mgrwt>
</event>
<event>
12    1  0.1473662E-001  0.2833869E+03  0.7546771E-02  0.1094648E+00
         21   -1    0    0  504  503  0.00000000000E+00  0.00000000000E+00  0.13983040839E+03  0.13983040839E+03  0.00000000000E+00 0. -1.
         21   -1    0    0  502  504 -0.00000000000E+00 -0.00000000000E+00 -0.68168286199E+03  0.68168286199E+03  0.00000000000E+00 0.  1.
          6    2    1    2  502    0  0.24915652805E+02  0.21630828083E+03 -0.44031103961E+03  0.52048369645E+03  0.17210288946E+03 0.  0.
         24    2    3    3    0    0 -0.24368008557E+02  0.18629995920E+03 -0.24868294661E+03  0.32030179250E+03  0.73814332638E+02 0.  0.
         -6    2    1    2    0  503 -0.24915652805E+02 -0.21630828083E+03 -0.10154141399E+03  0.30102957393E+03  0.18137828843E+03 0.  0.
        -24    2    5    5    0    0 -0.47729982077E+02 -0.76527283349E+02  0.10453106911E+02  0.12040819206E+03  0.79084062773E+02 0.  0.
          4    1    4    4  501    0 -0.11233785694E+01  0.78636205006E+02 -0.50184420410E+02  0.93291965191E+02  0.00000000000E+00 0. -1.
         -3    1    4    4    0  501 -0.23244629988E+02  0.10766375420E+03 -0.19849852620E+03  0.22700982731E+03  0.00000000000E+00 0.  1.
          5    1    3    3  502    0  0.49283661362E+02  0.30008321627E+02 -0.19162809300E+03  0.20018190396E+03  0.47000000000E+01 0. -1.
         13    1    6    6    0    0  0.72143690468E+00  0.43991835541E+01 -0.20622586697E+02  0.21098918674E+02  0.00000000000E+00 0. -1.
        -14    1    6    6    0    0 -0.48451418982E+02 -0.80926466904E+02  0.31075693607E+02  0.99309273384E+02  0.00000000000E+00 0.  1.
         -5    1    5    5    0  503  0.22814329272E+02 -0.13978099748E+03 -0.11199452090E+03  0.18062138187E+03  0.47000000000E+01 0.  1.
<mgrwt>
<rscale>  2 0.28191421E+03</rscale>
<asrwt>0</asrwt>
<pdfrwt beam="1">  1       21 0.21512371E-01 0.28338692E+03</pdfrwt>
<pdfrwt beam="2">  1       21 0.10487428E+00 0.28338692E+03</pdfrwt>
<totfact> 0.14015850E+04</totfact>
</mgrwt>
</event>
<event>
12    1  0.1473662E-001  0.1763440E+03  0.7546771E-02  0.1171911E+00
         21   -1    0    0  504  503  0.00000000000E+00  0.00000000000E+00  0.59862132173E+03  0.59862132173E+03  0.00000000000E+00 0.  1.
         21   -1    0    0  502  504 -0.00000000000E+00 -0.00000000000E+00 -0.59515415393E+02  0.59515415393E+02  0.00000000000E+00 0.  1.
          6    2    1    2  502    0 -0.17536203890E+02  0.19186319424E+02  0.39293462259E+03  0.43069109586E+03  0.17441780048E+03 0.  0.
         24    2    3    3    0    0  0.13911144484E+02  0.71249291595E+02  0.18894565800E+03  0.21777544010E+03  0.80347365503E+02 0.  0.
         -6    2    1    2    0  503  0.17536203890E+02 -0.19186319424E+02  0.14617128375E+03  0.22744564126E+03  0.17230740622E+03 0.  0.
        -24    2    5    5    0    0  0.42052191603E+02 -0.18991136426E+02  0.16813229509E+03  0.19419736659E+03  0.85528348832E+02 0.  0.
          2    1    4    4  501    0 -0.30426383446E+02  0.44397688988E+02  0.12000306010E+03  0.13152054604E+03  0.00000000000E+00 0. -1.
         -1    1    4    4    0  501  0.44337527929E+02  0.26851602607E+02  0.68942597893E+02  0.86254894063E+02  0.00000000000E+00 0.  1.
          5    1    3    3  502    0 -0.31447348374E+02 -0.52062972171E+02  0.20398896459E+03  0.21291565575E+03  0.47000000000E+01 0. -1.
         11    1    6    6    0    0 -0.16136497782E+02 -0.19787916798E+01  0.86257105862E+00  0.16280239741E+02  0.00000000000E+00 0. -1.
        -12    1    6    6    0    0  0.58188689385E+02 -0.17012344746E+02  0.16726972403E+03  0.17791712684E+03  0.00000000000E+00 0.  1.
         -5    1    5    5    0  503 -0.24515987713E+02 -0.19518299822E+00 -0.21961011342E+02  0.33248274679E+02  0.47000000000E+01 0.  1.
<mgrwt>
<rscale>  2 0.17581989E+03</rscale>
<asrwt>0</asrwt>
<pdfrwt beam="1">  1       21 0.92095584E-01 0.17634399E+03</pdfrwt>
<pdfrwt beam="2">  1       21 0.91562182E-02 0.17634399E+03</pdfrwt>
<totfact> 0.95030414E+04</totfact>
</mgrwt>
</event>
<event>
12    1  0.1473662E-001  0.2540971E+03  0.7546771E-02  0.1111523E+00
         21   -1    0    0  504  503  0.00000000000E+00  0.00000000000E+00  0.90935790822E+03  0.90935790822E+03  0.00000000000E+00 0. -1.
         21   -1    0    0  502  504 -0.00000000000E+00 -0.00000000000E+00 -0.26193400282E+03  0.26193400282E+03  0.00000000000E+00 0.  1.
          6    2    1    2  502    0 -0.18389235176E+03 -0.33548348778E+02 -0.17896088025E+03  0.30672429751E+03  0.16465390757E+03 0.  0.
         24    2    3    3    0    0 -0.20036445960E+03 -0.37231876674E+02 -0.18644437769E+03  0.28767196305E+03  0.80383599355E+02 0.  0.
         -6    2    1    2    0  503  0.18389235176E+03  0.33548348778E+02  0.82638478565E+03  0.86456761353E+03  0.17211465847E+03 0.  0.
        -24    2    5    5    0    0  0.11580407885E+03 -0.32508871533E+02  0.63013792300E+03  0.64654355439E+03  0.80482012326E+02 0.  0.
          2    1    4    4  501    0 -0.62299274341E+02 -0.49809853126E+02 -0.57387133436E+02  0.98262424842E+02  0.00000000000E+00 0. -1.
         -1    1    4    4    0  501 -0.13806518526E+03  0.12577976453E+02 -0.12905724425E+03  0.18940953821E+03  0.00000000000E+00 0.  1.
          5    1    3    3  502    0  0.16472107832E+02  0.36835278951E+01  0.74834974399E+01  0.19052334453E+02  0.47000000000E+01 0. -1.
         11    1    6    6    0    0  0.82527069395E+02  0.12811431193E+02  0.45501872340E+03  0.46261959383E+03  0.00000000000E+00 0. -1.
        -12    1    6    6    0    0  0.33277009455E+02 -0.45320302726E+02  0.17511919960E+03  0.18392396056E+03  0.00000000000E+00 0.  1.
         -5    1    5    5    0  503  0.68088272915E+02  0.66057220311E+02  0.19624686265E+03  0.21802405914E+03  0.47000000000E+01 0.  1.
<mgrwt>
<rscale>  2 0.25283953E+03</rscale>
<asrwt>0</asrwt>
<pdfrwt beam="1">  1       21 0.13990122E+00 0.25409712E+03</pdfrwt>
<pdfrwt beam="2">  1       21 0.40297539E-01 0.25409712E+03</pdfrwt>
<totfact> 0.20206809E+03</totfact>
</mgrwt>
</event>
<event>
12    1  0.1473662E-001  0.2250241E+03  0.7546771E-02  0.1131808E+00
         21   -1    0    0  504  503  0.00000000000E+00  0.00000000000E+00  0.35900526097E+03  0.35900526097E+03  0.00000000000E+00 0. -1.
         21   -1    0    0  502  504 -0.00000000000E+00 -0.00000000000E+00 -0.19365332839E+03  0.19365332839E+03  0.00000000000E+00 0.  1.
          6    2    1    2  502    0 -0.58079028211E+02 -0.11658969280E+03 -0.67428230410E+02  0.23490936184E+03  0.18349253946E+03 0.  0.
         24    2    3    3    0    0 -0.86151415232E+02 -0.11393750836E+03 -0.23181129659E+01  0.16380021764E+03  0.80133111087E+02 0.  0.
         -6    2    1    2    0  503  0.58079028211E+02  0.11658969280E+03  0.23278016299E+03  0.31774922752E+03  0.17266046832E+03 0.  0.
        -24    2    5    5    0    0  0.42878974695E+02  0.10697149088E+03  0.25309638583E+03  0.29021033964E+03  0.82962367240E+02 0.  0.
          2    1    4    4  501    0 -0.67324018365E+02 -0.12382154338E+03  0.57471536916E+01  0.14105788822E+03  0.00000000000E+00 0. -1.
         -1    1    4    4    0  501 -0.18827396867E+02  0.98840350188E+01 -0.80652666575E+01  0.22742329416E+02  0.00000000000E+00 0.  1.
          5    1    3    3  502    0  0.28072387021E+02 -0.26521844379E+01 -0.65110117444E+02  0.71109144201E+02  0.47000000000E+01 0. -1.
         11    1    6    6    0    0  0.62889740920E+02  0.46286475249E+02  0.13709869892E+03  0.15777709133E+03  0.00000000000E+00 0. -1.
        -12    1    6    6    0    0 -0.20010766225E+02  0.60685015630E+02  0.11599768692E+03  0.13243324831E+03  0.00000000000E+00 0.  1.
         -5    1    5    5    0  503  0.15200053516E+02  0.96182019208E+01 -0.20316222842E+02  0.27538887880E+02  0.47000000000E+01 0.  1.
<mgrwt>
<rscale>  2 0.22280603E+03</rscale>
<asrwt>0</asrwt>
<pdfrwt beam="1">  1       21 0.55231579E-01 0.22502409E+03</pdfrwt>
<pdfrwt beam="2">  1       21 0.29792820E-01 0.22502409E+03</pdfrwt>
<totfact> 0.32835800E+04</totfact>
</mgrwt>
</event>
<event>
12    1  0.1473662E-001  0.2616151E+03  0.7546771E-02  0.1106189E+00
         21   -1    0    0  504  503  0.00000000000E+00  0.00000000000E+00  0.58971143201E+03  0.58971143201E+03  0.00000000000E+00 0.  1.
         21   -1    0    0  502  504 -0.00000000000E+00 -0.00000000000E+00 -0.11641082633E+03  0.11641082633E+03  0.00000000000E+00 0.  1.
          6    2    1    2  502    0 -0.13949809904E+03 -0.14146549451E+03  0.21630094664E+03  0.33939170033E+03  0.17008357052E+03 0.  0.
         24    2    3    3    0    0 -0.58995922660E+02 -0.17092093410E+01  0.87816662746E+02  0.13313283178E+03  0.80803120955E+02 0.  0.
         -6    2    1    2    0  503  0.13949809904E+03  0.14146549451E+03  0.25699965904E+03  0.36673055802E+03  0.17020655588E+03 0.  0.
        -24    2    5    5    0    0  0.13062660065E+03  0.80076988800E+02  0.11276076652E+03  0.20965032300E+03  0.88105814428E+02 0.  0.
          4    1    4    4  501    0  0.13053391692E+02  0.15761142707E+02  0.33359284976E+01  0.20734827538E+02  0.00000000000E+00 0. -1.
         -3    1    4    4    0  501 -0.72049314352E+02 -0.17470352048E+02  0.84480734248E+02  0.11239800425E+03  0.00000000000E+00 0.  1.
          5    1    3    3  502    0 -0.80502176382E+02 -0.13975628517E+03  0.12848428389E+03  0.20625886854E+03  0.47000000000E+01 0. -1.
         11    1    6    6    0    0  0.38508859822E+02  0.48903506612E+02  0.20314150811E+01  0.62278502639E+02  0.00000000000E+00 0. -1.
        -12    1    6    6    0    0  0.92117740827E+02  0.31173482187E+02  0.11072935144E+03  0.14737182036E+03  0.00000000000E+00 0.  1.
         -5    1    5    5    0  503  0.88714983931E+01  0.61388505707E+02  0.14423889253E+03  0.15708023502E+03  0.47000000000E+01 0.  1.
<mgrwt>
<rscale>  2 0.26159513E+03</rscale>
<asrwt>0</asrwt>
<pdfrwt beam="1">  1       21 0.90724834E-01 0.26161513E+03</pdfrwt>
<pdfrwt beam="2">  1       21 0.17909358E-01 0.26161513E+03</pdfrwt>
<totfact> 0.28216418E+04</totfact>
</mgrwt>
</event>
<event>
12    1  0.1473662E-001  0.2238236E+03  0.7546771E-02  0.1131657E+00
         21   -1    0    0  504  503  0.00000000000E+00  0.00000000000E+00  0.12654659114E+04  0.12654659114E+04  0.00000000000E+00 0. -1.
         21   -1    0    0  502  504 -0.00000000000E+00 -0.00000000000E+00 -0.44167882587E+02  0.44167882587E+02  0.00000000000E+00 0. -1.
          6    2    1    2  502    0 -0.11458190332E+03 -0.84099836280E+02  0.39099118910E+03  0.45052314701E+03  0.17290228746E+03 0.  0.
         24    2    3    3    0    0  0.12387537069E+02 -0.29690024833E+02  0.15819760489E+03  0.17978968173E+03  0.79138478720E+02 0.  0.
         -6    2    1    2    0  503  0.11458190332E+03  0.84099836280E+02  0.83030683967E+03  0.85911064694E+03  0.16870050576E+03 0.  0.
        -24    2    5    5    0    0  0.13753387634E+03  0.63191814752E+02  0.78812663032E+03  0.80652549228E+03  0.80193588755E+02 0.  0.
          2    1    4    4  501    0  0.28412544363E+02 -0.51196540047E+02  0.10546904533E+03  0.12063199374E+03  0.00000000000E+00 0. -1.
         -1    1    4    4    0  501 -0.16025007294E+02  0.21506515214E+02  0.52728559555E+02  0.59157687988E+02  0.00000000000E+00 0.  1.
          5    1    3    3  502    0 -0.12696944039E+03 -0.54409811447E+02  0.23279358422E+03  0.27073346529E+03  0.47000000000E+01 0. -1.
         13    1    6    6    0    0  0.79593014218E+02  0.76830490436E+02  0.55515335973E+03  0.56606821584E+03  0.00000000000E+00 0. -1.
        -14    1    6    6    0    0  0.57940862121E+02 -0.13638675683E+02  0.23297327060E+03  0.24045727643E+03  0.00000000000E+00 0.  1.
         -5    1    5    5    0  503 -0.22951973021E+02  0.20908021527E+02  0.42180209350E+02  0.52585154659E+02  0.47000000000E+01 0.  1.
<mgrwt>
<rscale>  2 0.22301175E+03</rscale>
<asrwt>0</asrwt>
<pdfrwt beam="1">  1       21 0.19468704E+00 0.22382358E+03</pdfrwt>
<pdfrwt beam="2">  1       21 0.67950598E-02 0.22382358E+03</pdfrwt>
<totfact> 0.22636003E+04</totfact>
</mgrwt>
</event>
<event>
12    1  0.1473662E-001  0.2359105E+03  0.7546771E-02  0.1122611E+00
         21   -1    0    0  504  503  0.00000000000E+00  0.00000000000E+00  0.11453610179E+04  0.11453610179E+04  0.00000000000E+00 0. -1.
         21   -1    0    0  502  504 -0.00000000000E+00 -0.00000000000E+00 -0.52504176491E+02  0.52504176491E+02  0.00000000000E+00 0. -1.
          6    2    1    2  502    0 -0.15912844691E+03  0.18956589388E+02  0.38092058089E+03  0.44786051910E+03  0.17261906248E+03 0.  0.
         24    2    3    3    0    0 -0.10672987034E+03 -0.31629273709E+02  0.14022634692E+03  0.19634442690E+03  0.80597949267E+02 0.  0.
         -6    2    1    2    0  503  0.15912844691E+03 -0.18956589388E+02  0.71193626052E+03  0.75000467528E+03  0.17312584732E+03 0.  0.
        -24    2    5    5    0    0  0.20123770568E+02 -0.14055454924E+02  0.16551135602E+03  0.18613537534E+03  0.81546594202E+02 0.  0.
          4    1    4    4  501    0 -0.74875714216E+02 -0.57816362857E+02  0.11076983200E+03  0.14566763565E+03  0.00000000000E+00 0. -1.
         -3    1    4    4    0  501 -0.31854156124E+02  0.26187089149E+02  0.29456514913E+02  0.50676791249E+02  0.00000000000E+00 0.  1.
          5    1    3    3  502    0 -0.52398576572E+02  0.50585863097E+02  0.24069423397E+03  0.25151609220E+03  0.47000000000E+01 0. -1.
         13    1    6    6    0    0  0.29578101164E+02  0.32374154109E+01  0.13194992959E+02  0.32549236031E+02  0.00000000000E+00 0. -1.
        -14    1    6    6    0    0 -0.94543305961E+01 -0.17292870335E+02  0.15231636306E+03  0.15358613931E+03  0.00000000000E+00 0.  1.
         -5    1    5    5    0  503  0.13900467634E+03 -0.49011344647E+01  0.54642490450E+03  0.56386929995E+03  0.47000000000E+01 0.  1.
<mgrwt>
<rscale>  2 0.23581755E+03</rscale>
<asrwt>0</asrwt>
<pdfrwt beam="1">  1       21 0.17620937E+00 0.23591052E+03</pdfrwt>
<pdfrwt beam="2">  1       21 0.80775665E-02 0.23591052E+03</pdfrwt>
<totfact> 0.22154259E+04</totfact>
</mgrwt>
</event>
<event>
12    1  0.1473662E-001  0.2410287E+03  0.7546771E-02  0.1120099E+00
         21   -1    0    0  504  503  0.00000000000E+00  0.00000000000E+00  0.48923213812E+03  0.48923213812E+03  0.00000000000E+00 0. -1.
         21   -1    0    0  502  504 -0.00000000000E+00 -0.00000000000E+00 -0.12320669829E+03  0.12320669829E+03  0.00000000000E+00 0.  1.
          6    2    1    2  502    0  0.14647725406E+03  0.65386284691E+02  0.25564697641E+03  0.34733840312E+03  0.17192334791E+03 0.  0.
         24    2    3    3    0    0  0.15710944583E+03  0.14470450150E+02  0.16200091171E+03  0.24011368049E+03  0.80731110921E+02 0.  0.
         -6    2    1    2    0  503 -0.14647725406E+03 -0.65386284691E+02  0.11037846342E+03  0.26510043329E+03  0.17989964526E+03 0.  0.
        -24    2    5    5    0    0  0.13552631594E+01 -0.40495117541E+02  0.28587951580E+02  0.94261909606E+02  0.80164489297E+02 0.  0.
          2    1    4    4  501    0  0.10474450354E+03  0.24672233722E+02  0.55689263074E+02  0.12116692685E+03  0.00000000000E+00 0. -1.
         -1    1    4    4    0  501  0.52364942285E+02 -0.10201783573E+02  0.10631164863E+03  0.11894675365E+03  0.00000000000E+00 0.  1.
          5    1    3    3  502    0 -0.10632191770E+02  0.50915834541E+02  0.93646064699E+02  0.10722472263E+03  0.47000000000E+01 0. -1.
         11    1    6    6    0    0 -0.15662231708E+02 -0.55942420929E+02  0.66554955703E+00  0.58097357235E+02  0.00000000000E+00 0. -1.
        -12    1    6    6    0    0  0.17017494867E+02  0.15447303388E+02  0.27922402023E+02  0.36164552372E+02  0.00000000000E+00 0.  1.
         -5    1    5    5    0  503 -0.14783251722E+03 -0.24891167150E+02  0.81790511839E+02  0.17083852369E+03  0.47000000000E+01 0.  1.
<mgrwt>
<rscale>  2 0.23954163E+03</rscale>
<asrwt>0</asrwt>
<pdfrwt beam="1">  1       21 0.75266481E-01 0.24102870E+03</pdfrwt>
<pdfrwt beam="2">  1       21 0.18954877E-01 0.24102870E+03</pdfrwt>
<totfact> 0.39301608E+04</totfact>
</mgrwt>
</event>
<event>
12    1  0.1473662E-001  0.1851959E+03  0.7546771E-02  0.1162892E+00
         21   -1    0    0  504  503  0.00000000000E+00  0.00000000000E+00  0.17236762712E+04  0.17236762712E+04  0.00000000000E+00 0. -1.
         21   -1    0    0  502  504 -0.00000000000E+00 -0.00000000000E+00 -0.24911700195E+02  0.24911700195E+02  0.00000000000E+00 0. -1.
          6    2    1    2  502    0 -0.26861008610E+01  0.67437194328E+02  0.45650831814E+03  0.49260304556E+03  0.17234536735E+03 0.  0.
         24    2    3    3    0    0 -0.45379019014E+02  0.40574534280E+02  0.41516867891E+03  0.42721693437E+03  0.80272840131E+02 0.  0.
         -6    2    1    2    0  503  0.26861008610E+01 -0.67437194328E+02  0.12422562529E+04  0.12559849259E+04  0.17246027318E+03 0.  0.
        -24    2    5    5    0    0 -0.26643360054E+02 -0.57219000790E+02  0.11950056826E+04  0.11992457405E+04  0.78535865115E+02 0.  0.
          2    1    4    4  501    0  0.21193471283E+02  0.12228327318E+02  0.16465864457E+03  0.16646670672E+03  0.00000000000E+00 0. -1.
         -1    1    4    4    0  501 -0.66572490297E+02  0.28346206962E+02  0.25051003434E+03  0.26075022765E+03  0.00000000000E+00 0.  1.
          5    1    3    3  502    0  0.42692918153E+02  0.26862660048E+02  0.41339639228E+02  0.65386111191E+02  0.47000000000E+01 0. -1.
         11    1    6    6    0    0 -0.21828402462E+02 -0.52715435357E+02  0.38422145078E+03  0.38843470432E+03  0.00000000000E+00 0. -1.
        -12    1    6    6    0    0 -0.48149575916E+01 -0.45035654333E+01  0.81078423180E+03  0.81081103622E+03  0.00000000000E+00 0.  1.
         -5    1    5    5    0  503  0.29329460915E+02 -0.10218193537E+02  0.47250570320E+02  0.56739185333E+02  0.47000000000E+01 0.  1.
<mgrwt>
<rscale>  2 0.18516918E+03</rscale>
<asrwt>0</asrwt>
<pdfrwt beam="1">  1       21 0.26518087E+00 0.18519594E+03</pdfrwt>
<pdfrwt beam="2">  1       21 0.38325706E-02 0.18519594E+03</pdfrwt>
<totfact> 0.22976380E+04</totfact>
</mgrwt>
</event>
<event>
12    1  0.1473662E-001  0.1749031E+03  0.7546771E-02  0.1173096E+00
         21   -1    0    0  504  503  0.00000000000E+00  0.00000000000E+00  0.60341118226E+03  0.60341118226E+03  0.00000000000E+00 0.  1.
         21   -1    0    0  502  504 -0.00000000000E+00 -0.00000000000E+00 -0.51037261711E+02  0.51037261711E+02  0.00000000000E+00 0.  1.
          6    2    1    2  502    0  0.21879965775E+01  0.19526546919E+02  0.31218915021E+03  0.35732925798E+03  0.17273117766E+03 0.  0.
         24    2    3    3    0    0 -0.42023990925E+02  0.14856589025E+02  0.29571966829E+03  0.30968639723E+03  0.80428902548E+02 0.  0.
         -6    2    1    2    0  503 -0.21879965775E+01 -0.19526546919E+02  0.24018477034E+03  0.29711918599E+03  0.17379589586E+03 0.  0.
        -24    2    5    5    0    0 -0.47629297347E+02  0.11131937052E+02  0.70880698872E+02  0.11910004918E+03  0.82269546335E+02 0.  0.
          4    1    4    4  501    0 -0.14700166430E+02  0.33453456776E+01  0.28788507313E+01  0.15348420515E+02  0.00000000000E+00 0. -1.
         -3    1    4    4    0  501 -0.27323824495E+02  0.11511243348E+02  0.29284081756E+03  0.29433797672E+03  0.00000000000E+00 0.  1.
          5    1    3    3  502    0  0.44211987502E+02  0.46699578936E+01  0.16469481919E+02  0.47642860749E+02  0.47000000000E+01 0. -1.
         11    1    6    6    0    0  0.39250890962E+00  0.27254715020E+02  0.61924811275E+02  0.67658375723E+02  0.00000000000E+00 0. -1.
        -12    1    6    6    0    0 -0.48021806256E+02 -0.16122777967E+02  0.89558875961E+01  0.51441673458E+02  0.00000000000E+00 0.  1.
         -5    1    5    5    0  503  0.45441300769E+02 -0.30658483971E+02  0.16930407147E+03  0.17801913681E+03  0.47000000000E+01 0.  1.
<mgrwt>
<rscale>  2 0.17463799E+03</rscale>
<asrwt>0</asrwt>
<pdfrwt beam="1">  1       21 0.92832485E-01 0.17490308E+03</pdfrwt>
<pdfrwt beam="2">  1       21 0.78518868E-02 0.17490308E+03</pdfrwt>
<totfact> 0.12202374E+05</totfact>
</mgrwt>
</event>
<event>
12    1  0.1473662E-001  0.2134525E+03  0.7546771E-02  0.1138998E+00
         21   -1    0    0  504  503  0.00000000000E+00  0.00000000000E+00  0.15829571106E+03  0.15829571106E+03  0.00000000000E+00 0. -1.
         21   -1    0    0  502  504 -0.00000000000E+00 -0.00000000000E+00 -0.28905968976E+03  0.28905968976E+03  0.00000000000E+00 0. -1.
          6    2    1    2  502    0  0.96092083086E+02 -0.78161478679E+02 -0.84701338400E+02  0.22898937043E+03  0.17297083529E+03 0.  0.
         24    2    3    3    0    0  0.55559719042E+02 -0.17908206266E+02 -0.11344721886E+03  0.15074778931E+03  0.80293451062E+02 0.  0.
         -6    2    1    2    0  503 -0.96092083086E+02  0.78161478679E+02 -0.46062640295E+02  0.21836603039E+03  0.17383627705E+03 0.  0.
        -24    2    5    5    0    0 -0.96216126576E+02 -0.92057074075E+01 -0.20981460542E+02  0.12734847072E+03  0.80219219928E+02 0.  0.
          4    1    4    4  501    0  0.41301665562E+01  0.23449739139E+02 -0.63990589378E+02  0.68276965885E+02  0.00000000000E+00 0. -1.
         -3    1    4    4    0  501  0.51429552485E+02 -0.41357945405E+02 -0.49456629485E+02  0.82470823428E+02  0.00000000000E+00 0.  1.
          5    1    3    3  502    0  0.40532364045E+02 -0.60253272414E+02  0.28745880463E+02  0.78241581114E+02  0.47000000000E+01 0. -1.
         11    1    6    6    0    0  0.43427565923E+01  0.20145959719E+02 -0.64244831062E+01  0.21586875897E+02  0.00000000000E+00 0. -1.
        -12    1    6    6    0    0 -0.10055888317E+03 -0.29351667127E+02 -0.14556977436E+02  0.10576159482E+03  0.00000000000E+00 0.  1.
         -5    1    5    5    0  503  0.12404348946E+00  0.87367186087E+02 -0.25081179753E+02  0.91017559675E+02  0.47000000000E+01 0.  1.
<mgrwt>
<rscale>  2 0.21327619E+03</rscale>
<asrwt>0</asrwt>
<pdfrwt beam="1">  1       21 0.24353187E-01 0.21345247E+03</pdfrwt>
<pdfrwt beam="2">  1       21 0.44470721E-01 0.21345247E+03</pdfrwt>
<totfact> 0.76620184E+04</totfact>
</mgrwt>
</event>
<event>
12    1  0.1473662E-001  0.1785002E+03  0.7546771E-02  0.1169441E+00
         21   -1    0    0  504  503  0.00000000000E+00  0.00000000000E+00  0.34331412942E+02  0.34331412942E+02  0.00000000000E+00 0. -1.
         21   -1    0    0  502  504 -0.00000000000E+00 -0.00000000000E+00 -0.96410850776E+03  0.96410850776E+03  0.00000000000E+00 0. -1.
          6    2    1    2  502    0 -0.13967228753E+02  0.37705208863E+02 -0.56542902114E+03  0.59271607067E+03  0.17316349565E+03 0.  0.
         24    2    3    3    0    0  0.55370498298E+02  0.33879697047E+02 -0.40706878283E+03  0.41973511793E+03  0.79112889684E+02 0.  0.
         -6    2    1    2    0  503  0.13967228753E+02 -0.37705208863E+02 -0.36434807367E+03  0.40572385003E+03  0.17391249937E+03 0.  0.
        -24    2    5    5    0    0  0.68247297127E+02 -0.22926601694E+02 -0.30587393702E+03  0.32444625343E+03  0.80766226740E+02 0.  0.
          4    1    4    4  501    0  0.15068362399E+02  0.37074117772E+02 -0.33260774880E+03  0.33500665713E+03  0.00000000000E+00 0. -1.
         -3    1    4    4    0  501  0.40302135899E+02 -0.31944207255E+01 -0.74461034022E+02  0.84728460799E+02  0.00000000000E+00 0.  1.
          5    1    3    3  502    0 -0.69337727051E+02  0.38255118168E+01 -0.15836023832E+03  0.17298095275E+03  0.47000000000E+01 0. -1.
         11    1    6    6    0    0  0.10347296422E+02 -0.38427738628E+01 -0.21339902025E+03  0.21368428884E+03  0.00000000000E+00 0. -1.
        -12    1    6    6    0    0  0.57900000705E+02 -0.19083827831E+02 -0.92474916771E+02  0.11076196458E+03  0.00000000000E+00 0.  1.
         -5    1    5    5    0  503 -0.54280068374E+02 -0.14778607170E+02 -0.58474136649E+02  0.81277596601E+02  0.47000000000E+01 0.  1.
<mgrwt>
<rscale>  2 0.17831751E+03</rscale>
<asrwt>0</asrwt>
<pdfrwt beam="1">  1       21 0.52817558E-02 0.17850021E+03</pdfrwt>
<pdfrwt beam="2">  1       21 0.14832439E+00 0.17850021E+03</pdfrwt>
<totfact> 0.75996565E+04</totfact>
</mgrwt>
</event>
<event>
12    1  0.1473662E-001  0.1797638E+03  0.7546771E-02  0.1168650E+00
         21   -1    0    0  504  503  0.00000000000E+00  0.00000000000E+00  0.74759673109E+02  0.74759673109E+02  0.00000000000E+00 0. -1.
         21   -1    0    0  502  504 -0.00000000000E+00 -0.00000000000E+00 -0.45021812615E+03  0.45021812615E+03  0.00000000000E+00 0. -1.
          6    2    1    2  502    0  0.48653723876E+02  0.73463941372E+01 -0.12582418383E+03  0.21735417786E+03  0.17026437985E+03 0.  0.
         24    2    3    3    0    0  0.31236623065E+02  0.29243096398E+02 -0.15329472645E+03  0.17786314492E+03  0.79404910784E+02 0.  0.
         -6    2    1    2    0  503 -0.48653723876E+02 -0.73463941372E+01 -0.24963426922E+03  0.30762362140E+03  0.17289843759E+03 0.  0.
        -24    2    5    5    0    0 -0.10496087009E+02 -0.38933173824E+02 -0.53677955249E+02  0.10544870484E+03  0.81315106873E+02 0.  0.
          4    1    4    4  501    0  0.54349523534E+02  0.30605455925E+02 -0.82808202537E+02  0.10367141867E+03  0.00000000000E+00 0. -1.
         -3    1    4    4    0  501 -0.23112900469E+02 -0.13623595262E+01 -0.70486523915E+02  0.74191726258E+02  0.00000000000E+00 0.  1.
          5    1    3    3  502    0  0.17417100811E+02 -0.21896702261E+02  0.27470542625E+02  0.39491032940E+02  0.47000000000E+01 0. -1.
         11    1    6    6    0    0 -0.46989931333E+01 -0.58202275096E+02 -0.60614209586E+02  0.84164527958E+02  0.00000000000E+00 0. -1.
        -12    1    6    6    0    0 -0.57970938755E+01  0.19269101272E+02  0.69362543363E+01  0.21284176879E+02  0.00000000000E+00 0.  1.
         -5    1    5    5    0  503 -0.38157636867E+02  0.31586779687E+02 -0.19595631397E+03  0.20217491656E+03  0.47000000000E+01 0.  1.
<mgrwt>
<rscale>  2 0.17912743E+03</rscale>
<asrwt>0</asrwt>
<pdfrwt beam="1">  1       21 0.11501488E-01 0.17976380E+03</pdfrwt>
<pdfrwt beam="2">  1       21 0.69264326E-01 0.17976380E+03</pdfrwt>
<totfact> 0.12061969E+05</totfact>
</mgrwt>
</event>
<event>
12    1  0.1473662E-001  0.2895376E+03  0.7546771E-02  0.1090643E+00
         21   -1    0    0  504  503  0.00000000000E+00  0.00000000000E+00  0.24891629894E+03  0.24891629894E+03  0.00000000000E+00 0.  1.
         21   -1    0    0  502  504 -0.00000000000E+00 -0.00000000000E+00 -0.45452846241E+03  0.45452846241E+03  0.00000000000E+00 0. -1.
          6    2    1    2  502    0 -0.17834829339E+03 -0.14870873858E+03 -0.28211844091E+03  0.40396986776E+03  0.17227430647E+03 0.  0.
         24    2    3    3    0    0 -0.13969162131E+03 -0.15601212474E+03 -0.28649809824E+03  0.36410824280E+03  0.81486931742E+02 0.  0.
         -6    2    1    2    0  503  0.17834829339E+03  0.14870873858E+03  0.76506277443E+02  0.29947489359E+03  0.17294391783E+03 0.  0.
        -24    2    5    5    0    0  0.59186939512E+02  0.29766956121E+02 -0.25629453693E+02  0.10249678961E+03  0.73888818486E+02 0.  0.
          2    1    4    4  501    0 -0.12830823705E+03 -0.11485561459E+03 -0.17874664857E+03  0.24820390866E+03  0.00000000000E+00 0. -1.
         -1    1    4    4    0  501 -0.11383384253E+02 -0.41156510159E+02 -0.10775144968E+03  0.11590433414E+03  0.00000000000E+00 0.  1.
          5    1    3    3  502    0 -0.38656672086E+02  0.73033861604E+01  0.43796573381E+01  0.39861624961E+02  0.47000000000E+01 0. -1.
         13    1    6    6    0    0 -0.81851277606E+01  0.26290623961E+02 -0.21453003540E+02  0.34905939117E+02  0.00000000000E+00 0. -1.
        -14    1    6    6    0    0  0.67372067273E+02  0.34763321600E+01 -0.41764501526E+01  0.67590850488E+02  0.00000000000E+00 0.  1.
         -5    1    5    5    0  503  0.11916135388E+03  0.11894178246E+03  0.10213573114E+03  0.19697810398E+03  0.47000000000E+01 0.  1.
<mgrwt>
<rscale>  2 0.28943765E+03</rscale>
<asrwt>0</asrwt>
<pdfrwt beam="1">  1       21 0.38294816E-01 0.28953756E+03</pdfrwt>
<pdfrwt beam="2">  1       21 0.69927455E-01 0.28953756E+03</pdfrwt>
<totfact> 0.11566341E+04</totfact>
</mgrwt>
</event>
<event>
12    1  0.1473662E-001  0.2190728E+03  0.7546771E-02  0.1134782E+00
         21   -1    0    0  504  503  0.00000000000E+00  0.00000000000E+00  0.18614347786E+03  0.18614347786E+03  0.00000000000E+00 0.  1.
         21   -1    0    0  502  504 -0.00000000000E+00 -0.00000000000E+00 -0.27491381585E+03  0.27491381585E+03  0.00000000000E+00 0.  1.
          6    2    1    2  502    0  0.21781409879E+02 -0.13061951291E+03 -0.10408256888E+03  0.24254082568E+03  0.17451929408E+03 0.  0.
         24    2    3    3    0    0  0.43214833438E+00 -0.11094228177E+02  0.17793562560E+01  0.81385863440E+02  0.80605359674E+02 0.  0.
         -6    2    1    2    0  503 -0.21781409879E+02  0.13061951291E+03  0.15312230889E+02  0.21851646803E+03  0.17314472391E+03 0.  0.
        -24    2    5    5    0    0  0.53185320410E+02  0.90483677345E+02  0.15826724105E+02  0.13335044987E+03  0.80721020255E+02 0.  0.
          4    1    4    4  501    0  0.30600270547E+02 -0.10887719618E+02 -0.25046559485E+02  0.41015230562E+02  0.00000000000E+00 0. -1.
         -3    1    4    4    0  501 -0.30168122212E+02 -0.20650855910E+00  0.26825915741E+02  0.40370632878E+02  0.00000000000E+00 0.  1.
          5    1    3    3  502    0  0.21349261545E+02 -0.11952528474E+03 -0.10586192514E+03  0.16115496224E+03  0.47000000000E+01 0. -1.
         13    1    6    6    0    0  0.36854824324E+02  0.27236971318E+02 -0.28904840198E+02  0.54181366441E+02  0.00000000000E+00 0. -1.
        -14    1    6    6    0    0  0.16330496086E+02  0.63246706026E+02  0.44731564303E+02  0.79169083427E+02  0.00000000000E+00 0.  1.
         -5    1    5    5    0  503 -0.74966730289E+02  0.40135835569E+02 -0.51449321612E+00  0.85166018166E+02  0.47000000000E+01 0.  1.
<mgrwt>
<rscale>  2 0.21879888E+03</rscale>
<asrwt>0</asrwt>
<pdfrwt beam="1">  1       21 0.28637458E-01 0.21907275E+03</pdfrwt>
<pdfrwt beam="2">  1       21 0.42294433E-01 0.21907275E+03</pdfrwt>
<totfact> 0.62002664E+04</totfact>
</mgrwt>
</event>
<event>
12    1  0.1473662E-001  0.2523675E+03  0.7546771E-02  0.1111832E+00
         21   -1    0    0  504  503  0.00000000000E+00  0.00000000000E+00  0.21235433041E+03  0.21235433041E+03  0.00000000000E+00 0. -1.
         21   -1    0    0  502  504 -0.00000000000E+00 -0.00000000000E+00 -0.43987613164E+03  0.43987613164E+03  0.00000000000E+00 0. -1.
          6    2    1    2  502    0 -0.76983948512E+02 -0.16653826591E+03 -0.29776918373E+03  0.39026853723E+03  0.17315173123E+03 0.  0.
         24    2    3    3    0    0 -0.38962463243E+02 -0.38582010741E+02 -0.20555507855E+03  0.22796028799E+03  0.81892353025E+02 0.  0.
         -6    2    1    2    0  503  0.76983948512E+02  0.16653826591E+03  0.70247382501E+02  0.26196192483E+03  0.17328540900E+03 0.  0.
        -24    2    5    5    0    0  0.24056550838E+02  0.10580763334E+03  0.10764918688E+03  0.17302090996E+03  0.81079682631E+02 0.  0.
          4    1    4    4  501    0 -0.40205883075E+02 -0.60332111272E+02 -0.18182335351E+03  0.19574526448E+03  0.00000000000E+00 0. -1.
         -3    1    4    4    0  501  0.12434198316E+01  0.21750100530E+02 -0.23731725047E+02  0.32215023509E+02  0.00000000000E+00 0.  1.
          5    1    3    3  502    0 -0.38021485269E+02 -0.12795625517E+03 -0.92214105176E+02  0.16230824924E+03  0.47000000000E+01 0. -1.
         11    1    6    6    0    0  0.25081736279E+02  0.10998573261E+03  0.65081812120E+02  0.13023669660E+03  0.00000000000E+00 0. -1.
        -12    1    6    6    0    0 -0.10251854417E+01 -0.41780992713E+01  0.42567374756E+02  0.42784213354E+02  0.00000000000E+00 0.  1.
         -5    1    5    5    0  503  0.52927397674E+02  0.60730632567E+02 -0.37401804376E+02  0.88941014876E+02  0.47000000000E+01 0.  1.
<mgrwt>
<rscale>  2 0.25234455E+03</rscale>
<asrwt>0</asrwt>
<pdfrwt beam="1">  1       21 0.32669897E-01 0.25236750E+03</pdfrwt>
<pdfrwt beam="2">  1       21 0.67673250E-01 0.25236750E+03</pdfrwt>
<totfact> 0.17405046E+04</totfact>
</mgrwt>
</event>
<event>
12    1  0.1473662E-001  0.2518531E+03  0.7546771E-02  0.1112424E+00
         21   -1    0    0  504  503  0.00000000000E+00  0.00000000000E+00  0.39906009673E+03  0.39906009673E+03  0.00000000000E+00 0. -1.
         21   -1    0    0  502  504 -0.00000000000E+00 -0.00000000000E+00 -0.16987257495E+03  0.16987257495E+03  0.00000000000E+00 0. -1.
          6    2    1    2  502    0  0.84869543971E+02  0.16105726347E+03  0.39168218673E+02  0.25488059763E+03  0.17403358321E+03 0.  0.
         24    2    3    3    0    0  0.90697231017E+02  0.46570770658E+02 -0.84308409806E+01  0.13066755704E+03  0.81290263807E+02 0.  0.
         -6    2    1    2    0  503 -0.84869543971E+02 -0.16105726347E+03  0.19001930311E+03  0.31405207404E+03  0.17140329064E+03 0.  0.
        -24    2    5    5    0    0 -0.94916771578E+02 -0.14229523336E+03  0.21148084661E+03  0.28346370359E+03  0.79814759331E+02 0.  0.
          2    1    4    4  501    0  0.61550537647E+02  0.31704257952E+02  0.33961668447E+02  0.77116947428E+02  0.00000000000E+00 0. -1.
         -1    1    4    4    0  501  0.29146693371E+02  0.14866512706E+02 -0.42392509428E+02  0.53550609614E+02  0.00000000000E+00 0.  1.
          5    1    3    3  502    0 -0.58276870460E+01  0.11448649282E+03  0.47599059654E+02  0.12421304059E+03  0.47000000000E+01 0. -1.
         11    1    6    6    0    0 -0.41920299810E+02 -0.12641148893E+03  0.14270929439E+03  0.19520020178E+03  0.00000000000E+00 0. -1.
        -12    1    6    6    0    0 -0.52996471768E+02 -0.15883744426E+02  0.68771552223E+02  0.88263501812E+02  0.00000000000E+00 0.  1.
         -5    1    5    5    0  503  0.10047227607E+02 -0.18762030117E+02 -0.21461543507E+02  0.30588370444E+02  0.47000000000E+01 0.  1.
<mgrwt>
<rscale>  2 0.25139926E+03</rscale>
<asrwt>0</asrwt>
<pdfrwt beam="1">  1       21 0.61393861E-01 0.25185307E+03</pdfrwt>
<pdfrwt beam="2">  1       21 0.26134242E-01 0.25185307E+03</pdfrwt>
<totfact> 0.33335834E+04</totfact>
</mgrwt>
</event>
<event>
12    1  0.1473662E-001  0.1882745E+03  0.7546771E-02  0.1160080E+00
         21   -1    0    0  504  503  0.00000000000E+00  0.00000000000E+00  0.19980859723E+04  0.19980859723E+04  0.00000000000E+00 0. -1.
         21   -1    0    0  502  504 -0.00000000000E+00 -0.00000000000E+00 -0.40786563735E+02  0.40786563735E+02  0.00000000000E+00 0. -1.
          6    2    1    2  502    0 -0.64277905707E+02  0.35926424057E+02  0.21171717753E+03  0.28316623731E+03  0.17302195694E+03 0.  0.
         24    2    3    3    0    0 -0.60439612668E+02 -0.13468797361E+02  0.49274855829E+02  0.11327151028E+03  0.81043620003E+02 0.  0.
         -6    2    1    2    0  503  0.64277905707E+02 -0.35926424057E+02  0.17455822310E+04  0.17557062987E+04  0.17327701799E+03 0.  0.
        -24    2    5    5    0    0  0.17854417686E+02 -0.60569512074E+02  0.15423009350E+04  0.15456877345E+04  0.80442229356E+02 0.  0.
          2    1    4    4  501    0 -0.17208007213E+02 -0.91391410044E+00 -0.22625630872E+02  0.28440638593E+02  0.00000000000E+00 0. -1.
         -1    1    4    4    0  501 -0.43231605455E+02 -0.12554883261E+02  0.71900486701E+02  0.84830871691E+02  0.00000000000E+00 0.  1.
          5    1    3    3  502    0 -0.38382930383E+01  0.49395221418E+02  0.16244232170E+03  0.16989472703E+03  0.47000000000E+01 0. -1.
         13    1    6    6    0    0 -0.32111271084E+02 -0.27799347099E+02  0.66226611894E+03  0.66362666441E+03  0.00000000000E+00 0. -1.
        -14    1    6    6    0    0  0.49965688771E+02 -0.32770164975E+02  0.88003481609E+03  0.88206107005E+03  0.00000000000E+00 0.  1.
         -5    1    5    5    0  503  0.46423488020E+02  0.24643088017E+02  0.20328129602E+03  0.21001856427E+03  0.47000000000E+01 0.  1.
<mgrwt>
<rscale>  2 0.18821578E+03</rscale>
<asrwt>0</asrwt>
<pdfrwt beam="1">  1       21 0.30739777E+00 0.18827449E+03</pdfrwt>
<pdfrwt beam="2">  1       21 0.62748575E-02 0.18827449E+03</pdfrwt>
<totfact> 0.56801354E+03</totfact>
</mgrwt>
</event>
<event>
12    1  0.1473662E-001  0.2052704E+03  0.7546771E-02  0.1147345E+00
         21   -1    0    0  504  503  0.00000000000E+00  0.00000000000E+00  0.14636796236E+04  0.14636796236E+04  0.00000000000E+00 0. -1.
         21   -1    0    0  502  504 -0.00000000000E+00 -0.00000000000E+00 -0.28888182012E+02  0.28888182012E+02  0.00000000000E+00 0. -1.
          6    2    1    2  502    0 -0.72392528678E+02  0.58728901204E+02  0.53636470875E+03  0.57098951516E+03  0.17219803594E+03 0.  0.
         24    2    3    3    0    0 -0.72077394424E+01 -0.21701749014E+02  0.16353191861E+03  0.18402113707E+03  0.81229139251E+02 0.  0.
         -6    2    1    2    0  503  0.72392528678E+02 -0.58728901204E+02  0.89842673281E+03  0.92157829042E+03  0.18288299296E+03 0.  0.
        -24    2    5    5    0    0 -0.12536984647E+02 -0.82398504000E+02  0.58669080195E+03  0.59758036926E+03  0.77133074539E+02 0.  0.
          4    1    4    4  501    0  0.30476783555E+02  0.12580114871E+02  0.54965769057E+02  0.64096251014E+02  0.00000000000E+00 0. -1.
         -3    1    4    4    0  501 -0.37684522997E+02 -0.34281863885E+02  0.10856614956E+03  0.11992488605E+03  0.00000000000E+00 0.  1.
          5    1    3    3  502    0 -0.65184789236E+02  0.80430650219E+02  0.37283279014E+03  0.38696837810E+03  0.47000000000E+01 0. -1.
         11    1    6    6    0    0  0.10797742277E+02 -0.87979876091E+02  0.49032124213E+03  0.49826897387E+03  0.00000000000E+00 0. -1.
        -12    1    6    6    0    0 -0.23334726924E+02  0.55813720910E+01  0.96369559822E+02  0.99311395395E+02  0.00000000000E+00 0.  1.
         -5    1    5    5    0  503  0.84929513325E+02  0.23669602796E+02  0.31173593085E+03  0.32399792116E+03  0.47000000000E+01 0.  1.
<mgrwt>
<rscale>  2 0.20286356E+03</rscale>
<asrwt>0</asrwt>
<pdfrwt beam="1">  1       21 0.22518142E+00 0.20527043E+03</pdfrwt>
<pdfrwt beam="2">  1       21 0.44443368E-02 0.20527043E+03</pdfrwt>
<totfact> 0.30410208E+04</totfact>
</mgrwt>
</event>
<event>
12    1  0.1473662E-001  0.2403898E+03  0.7546771E-02  0.1119983E+00
         21   -1    0    0  504  503  0.00000000000E+00  0.00000000000E+00  0.60838500104E+03  0.60838500104E+03  0.00000000000E+00 0. -1.
         21   -1    0    0  502  504 -0.00000000000E+00 -0.00000000000E+00 -0.33870879052E+03  0.33870879052E+03  0.00000000000E+00 0.  1.
          6    2    1    2  502    0 -0.99939638215E+02  0.13018836681E+03 -0.26751866762E+03  0.35965747689E+03  0.17564259453E+03 0.  0.
         24    2    3    3    0    0 -0.50723815898E+02 -0.16603542599E+01 -0.75339259624E+02  0.12141118148E+03  0.80554383324E+02 0.  0.
         -6    2    1    2    0  503  0.99939638215E+02 -0.13018836681E+03  0.53719487815E+03  0.58743631467E+03  0.17194808678E+03 0.  0.
        -24    2    5    5    0    0  0.35273615185E+02  0.39311757814E+01  0.16541967689E+03  0.18692584476E+03  0.79485343713E+02 0.  0.
          2    1    4    4  501    0 -0.30549554105E+02  0.37010968576E+02 -0.55853966296E+02  0.73639341400E+02  0.00000000000E+00 0. -1.
         -1    1    4    4    0  501 -0.20174261794E+02 -0.38671322835E+02 -0.19485293328E+02  0.47771840082E+02  0.00000000000E+00 0.  1.
          5    1    3    3  502    0 -0.49215822317E+02  0.13184872107E+03 -0.19217940800E+03  0.23824629540E+03  0.47000000000E+01 0. -1.
         11    1    6    6    0    0  0.87431327059E+01 -0.36674304193E+02  0.85420866925E+02  0.93371148990E+02  0.00000000000E+00 0. -1.
        -12    1    6    6    0    0  0.26530482479E+02  0.40605479974E+02  0.79998809962E+02  0.93554695766E+02  0.00000000000E+00 0.  1.
         -5    1    5    5    0  503  0.64666023030E+02 -0.13411954259E+03  0.37177520126E+03  0.40051046991E+03  0.47000000000E+01 0.  1.
<mgrwt>
<rscale>  2 0.23971547E+03</rscale>
<asrwt>0</asrwt>
<pdfrwt beam="1">  1       21 0.93597692E-01 0.24038981E+03</pdfrwt>
<pdfrwt beam="2">  1       21 0.52109045E-01 0.24038981E+03</pdfrwt>
<totfact> 0.32301493E+03</totfact>
</mgrwt>
</event>
<event>
12    1  0.1473662E-001  0.1993696E+03  0.7546771E-02  0.1150790E+00
         21   -1    0    0  504  503  0.00000000000E+00  0.00000000000E+00  0.19782634713E+03  0.19782634713E+03  0.00000000000E+00 0. -1.
         21   -1    0    0  502  504 -0.00000000000E+00 -0.00000000000E+00 -0.40031717516E+03  0.40031717516E+03  0.00000000000E+00 0.  1.
          6    2    1    2  502    0 -0.78478414242E+02 -0.58692799420E+02 -0.31391018557E+03  0.37187073171E+03  0.17362180246E+03 0.  0.
         24    2    3    3    0    0 -0.86247910109E+02 -0.28485971814E+02 -0.10571068956E+03  0.16129547761E+03  0.81186997859E+02 0.  0.
         -6    2    1    2    0  503  0.78478414242E+02  0.58692799420E+02  0.11141935754E+03  0.22627279057E+03  0.17082563131E+03 0.  0.
        -24    2    5    5    0    0  0.82819263472E+02  0.55680918128E+02  0.14359704290E+03  0.19332726226E+03  0.82437397825E+02 0.  0.
          4    1    4    4  501    0  0.14029849101E+02 -0.93274970918E+01 -0.42797360708E+01  0.17382606497E+02  0.00000000000E+00 0. -1.
         -3    1    4    4    0  501 -0.10027775921E+03 -0.19158474722E+02 -0.10143095349E+03  0.14391287111E+03  0.00000000000E+00 0.  1.
          5    1    3    3  502    0  0.77694958666E+01 -0.30206827606E+02 -0.20819949601E+03  0.21057525410E+03  0.47000000000E+01 0. -1.
         13    1    6    6    0    0  0.56077093224E+02  0.69146341794E+02  0.68028637033E+02  0.11204352915E+03  0.00000000000E+00 0. -1.
        -14    1    6    6    0    0  0.26742170248E+02 -0.13465423666E+02  0.75568405864E+02  0.81283733113E+02  0.00000000000E+00 0.  1.
         -5    1    5    5    0  503 -0.43408492304E+01  0.30118812925E+01 -0.32177685353E+02  0.32945528310E+02  0.47000000000E+01 0.  1.
<mgrwt>
<rscale>  2 0.19875924E+03</rscale>
<asrwt>0</asrwt>
<pdfrwt beam="1">  1       21 0.30434823E-01 0.19936960E+03</pdfrwt>
<pdfrwt beam="2">  1       21 0.61587258E-01 0.19936960E+03</pdfrwt>
<totfact> 0.25283321E+04</totfact>
</mgrwt>
</event>
<event>
12    1  0.1473662E-001  0.3110953E+03  0.7546771E-02  0.1079850E+00
         21   -1    0    0  504  503  0.00000000000E+00  0.00000000000E+00  0.16781898195E+03  0.16781898195E+03  0.00000000000E+00 0. -1.
         21   -1    0    0  502  504 -0.00000000000E+00 -0.00000000000E+00 -0.57656252406E+03  0.57656252406E+03  0.00000000000E+00 0. -1.
          6    2    1    2  502    0  0.18899181536E+02  0.25792467051E+03 -0.21277495731E+03  0.37670773529E+03  0.17249121904E+03 0.  0.
         24    2    3    3    0    0 -0.10044520465E+02  0.77418631650E+02 -0.14143515485E+03  0.18041299423E+03  0.80314435455E+02 0.  0.
         -6    2    1    2    0  503 -0.18899181536E+02 -0.25792467051E+03 -0.19596858481E+03  0.36767377072E+03  0.17291038351E+03 0.  0.
        -24    2    5    5    0    0 -0.49928397124E+00 -0.21012141192E+03 -0.76867519254E+02  0.23793996026E+03  0.80966364238E+02 0.  0.
          2    1    4    4  501    0 -0.44133782727E+02  0.33288818012E+02 -0.58626459133E+02  0.80579140557E+02  0.00000000000E+00 0. -1.
         -1    1    4    4    0  501  0.34089262262E+02  0.44129813638E+02 -0.82808695715E+02  0.99833853674E+02  0.00000000000E+00 0.  1.
          5    1    3    3  502    0  0.28943702000E+02  0.18050603886E+03 -0.71339802459E+02  0.19629474105E+03  0.47000000000E+01 0. -1.
         13    1    6    6    0    0 -0.18032661455E+02 -0.15620713966E+03 -0.87955552321E+02  0.18017221358E+03  0.00000000000E+00 0. -1.
        -14    1    6    6    0    0  0.17533377484E+02 -0.53914272260E+02  0.11088033067E+02  0.57767746681E+02  0.00000000000E+00 0.  1.
         -5    1    5    5    0  503 -0.18399897564E+02 -0.47803258590E+02 -0.11910106556E+03  0.12973381047E+03  0.47000000000E+01 0.  1.
<mgrwt>
<rscale>  2 0.31103714E+03</rscale>
<asrwt>0</asrwt>
<pdfrwt beam="1">  1       21 0.25818305E-01 0.31109535E+03</pdfrwt>
<pdfrwt beam="2">  1       21 0.88701926E-01 0.31109535E+03</pdfrwt>
<totfact> 0.14543705E+04</totfact>
</mgrwt>
</event>
<event>
12    1  0.1473662E-001  0.2808214E+03  0.7546771E-02  0.1095343E+00
         21   -1    0    0  504  503  0.00000000000E+00  0.00000000000E+00  0.85366803924E+03  0.85366803924E+03  0.00000000000E+00 0. -1.
         21   -1    0    0  502  504 -0.00000000000E+00 -0.00000000000E+00 -0.10213800228E+03  0.10213800228E+03  0.00000000000E+00 0. -1.
          6    2    1    2  502    0 -0.12259226924E+03  0.18262933246E+03  0.22664694012E+03  0.36087326288E+03  0.17458046524E+03 0.  0.
         24    2    3    3    0    0 -0.75171417422E+02  0.18926595482E+03  0.13485743341E+03  0.25723839671E+03  0.80701435821E+02 0.  0.
         -6    2    1    2    0  503  0.12259226924E+03 -0.18262933246E+03  0.52488309684E+03  0.59493277865E+03  0.17337937653E+03 0.  0.
        -24    2    5    5    0    0  0.12549293300E+02 -0.87175693524E+02  0.15900784609E+03  0.20109570211E+03  0.86016858731E+02 0.  0.
          4    1    4    4  501    0 -0.16906043468E+02  0.83840254901E+02  0.14112854945E+02  0.86684343006E+02  0.00000000000E+00 0. -1.
         -3    1    4    4    0  501 -0.58265373954E+02  0.10542569992E+03  0.12074457847E+03  0.17055405370E+03  0.00000000000E+00 0.  1.
          5    1    3    3  502    0 -0.47420851821E+02 -0.66366223643E+01  0.91789506710E+02  0.10363486617E+03  0.47000000000E+01 0. -1.
         13    1    6    6    0    0  0.40978024941E+02 -0.12394031718E+02  0.62177535777E+02  0.75490770996E+02  0.00000000000E+00 0. -1.
        -14    1    6    6    0    0 -0.28428731641E+02 -0.74781661807E+02  0.96830310309E+02  0.12560493111E+03  0.00000000000E+00 0.  1.
         -5    1    5    5    0  503  0.11004297594E+03 -0.95453638933E+02  0.36587525076E+03  0.39383707654E+03  0.47000000000E+01 0.  1.
<mgrwt>
<rscale>  2 0.28063497E+03</rscale>
<asrwt>0</asrwt>
<pdfrwt beam="1">  1       21 0.13133354E+00 0.28082143E+03</pdfrwt>
<pdfrwt beam="2">  1       21 0.15713539E-01 0.28082143E+03</pdfrwt>
<totfact> 0.14416705E+04</totfact>
</mgrwt>
</event>
<event>
12    1  0.1473662E-001  0.2128529E+03  0.7546771E-02  0.1139418E+00
         21   -1    0    0  504  503  0.00000000000E+00  0.00000000000E+00  0.13289385180E+03  0.13289385180E+03  0.00000000000E+00 0.  1.
         21   -1    0    0  502  504 -0.00000000000E+00 -0.00000000000E+00 -0.74276852005E+03  0.74276852005E+03  0.00000000000E+00 0. -1.
          6    2    1    2  502    0  0.61420858395E+02 -0.10758649119E+03 -0.62743187173E+03  0.66255347012E+03  0.17308660310E+03 0.  0.
         24    2    3    3    0    0 -0.21528437481E+02 -0.46415743788E+02 -0.41567117827E+03  0.42699641266E+03  0.83219667682E+02 0.  0.
         -6    2    1    2    0  503 -0.61420858395E+02  0.10758649119E+03  0.17557203487E+02  0.21310890173E+03  0.17251021323E+03 0.  0.
        -24    2    5    5    0    0 -0.51833935109E+02  0.51729774129E+02 -0.54322952837E+02  0.12145341192E+03  0.80232298370E+02 0.  0.
          2    1    4    4  501    0 -0.42847213326E+02 -0.58729434382E+02 -0.32595164801E+03  0.33396033746E+03  0.00000000000E+00 0. -1.
         -1    1    4    4    0  501  0.21318775846E+02  0.12313690594E+02 -0.89719530259E+02  0.93036075205E+02  0.00000000000E+00 0.  1.
          5    1    3    3  502    0  0.82949295875E+02 -0.61170747402E+02 -0.21176069346E+03  0.23555705746E+03  0.47000000000E+01 0. -1.
         11    1    6    6    0    0 -0.23291175942E+02 -0.16993030780E+02 -0.33463405911E+02  0.44170595502E+02  0.00000000000E+00 0. -1.
        -12    1    6    6    0    0 -0.28542759167E+02  0.68722804910E+02 -0.20859546926E+02  0.77282816418E+02  0.00000000000E+00 0.  1.
         -5    1    5    5    0  503 -0.95869232862E+01  0.55856717061E+02  0.71880156324E+02  0.91655489809E+02  0.47000000000E+01 0.  1.
<mgrwt>
<rscale>  2 0.21273567E+03</rscale>
<asrwt>0</asrwt>
<pdfrwt beam="1">  1       21 0.20445208E-01 0.21285288E+03</pdfrwt>
<pdfrwt beam="2">  1       21 0.11427208E+00 0.21285288E+03</pdfrwt>
<totfact> 0.13011472E+04</totfact>
</mgrwt>
</event>
<event>
12    1  0.1473662E-001  0.1900616E+03  0.7546771E-02  0.1158804E+00
         21   -1    0    0  504  503  0.00000000000E+00  0.00000000000E+00  0.52888005234E+02  0.52888005234E+02  0.00000000000E+00 0.  1.
         21   -1    0    0  502  504 -0.00000000000E+00 -0.00000000000E+00 -0.70379288265E+03  0.70379288265E+03  0.00000000000E+00 0. -1.
          6    2    1    2  502    0 -0.66316038886E+02 -0.29948885816E+02 -0.25269495988E+03  0.31619325161E+03  0.17558096947E+03 0.  0.
         24    2    3    3    0    0 -0.43472075654E+02 -0.44452779735E+02 -0.26596375001E+03  0.28569144205E+03  0.83767611599E+02 0.  0.
         -6    2    1    2    0  503  0.66316038886E+02  0.29948885816E+02 -0.39820991753E+03  0.44048763627E+03  0.17367632686E+03 0.  0.
        -24    2    5    5    0    0  0.45432913875E+02  0.67724234731E+02 -0.18987945103E+03  0.22768078683E+03  0.95569938445E+02 0.  0.
          2    1    4    4  501    0 -0.15227464120E+02 -0.62845020689E+02 -0.21561325438E+03  0.22510097236E+03  0.00000000000E+00 0. -1.
         -1    1    4    4    0  501 -0.28244611534E+02  0.18392240955E+02 -0.50350495627E+02  0.60590469696E+02  0.00000000000E+00 0.  1.
          5    1    3    3  502    0 -0.22843963232E+02  0.14503893918E+02  0.13268790131E+02  0.30501809561E+02  0.47000000000E+01 0. -1.
         13    1    6    6    0    0  0.41917132350E+02  0.54385071935E+02 -0.19941874100E+03  0.21090902374E+03  0.00000000000E+00 0. -1.
        -14    1    6    6    0    0  0.35157815249E+01  0.13339162795E+02  0.95392899715E+01  0.16771763085E+02  0.00000000000E+00 0.  1.
         -5    1    5    5    0  503  0.20883125010E+02 -0.37775348914E+02 -0.20833046650E+03  0.21280684944E+03  0.47000000000E+01 0.  1.
<mgrwt>
<rscale>  2 0.18962058E+03</rscale>
<asrwt>0</asrwt>
<pdfrwt beam="1">  1       21 0.81366160E-02 0.19006165E+03</pdfrwt>
<pdfrwt beam="2">  1       21 0.10827583E+00 0.19006165E+03</pdfrwt>
<totfact> 0.79151460E+04</totfact>
</mgrwt>
</event>
<event>
12    1  0.1473662E-001  0.2196072E+03  0.7546771E-02  0.1134307E+00
         21   -1    0    0  504  503  0.00000000000E+00  0.00000000000E+00  0.21123073778E+03  0.21123073778E+03  0.00000000000E+00 0.  1.
         21   -1    0    0  502  504 -0.00000000000E+00 -0.00000000000E+00 -0.24566275857E+03  0.24566275857E+03  0.00000000000E+00 0.  1.
          6    2    1    2  502    0  0.10981110603E+03 -0.79358575727E+02 -0.79152513867E+02  0.23277911407E+03  0.17194398200E+03 0.  0.
         24    2    3    3    0    0  0.30247829261E+02 -0.35602430606E+02  0.24315604570E+02  0.95037846549E+02  0.79110551831E+02 0.  0.
         -6    2    1    2    0  503 -0.10981110603E+03  0.79358575727E+02  0.44720493080E+02  0.22411438228E+03  0.17283249491E+03 0.  0.
        -24    2    5    5    0    0 -0.18651303262E+02  0.81210529804E+01  0.69033934905E+02  0.10580069862E+03  0.77551795891E+02 0.  0.
          4    1    4    4  501    0 -0.16639382126E+02 -0.39616699229E+02  0.21574064292E+01  0.43023322720E+02  0.00000000000E+00 0. -1.
         -3    1    4    4    0  501  0.46887211388E+02  0.40142686237E+01  0.22158198141E+02  0.52014523829E+02  0.00000000000E+00 0.  1.
          5    1    3    3  502    0  0.79563276765E+02 -0.43756145121E+02 -0.10346811844E+03  0.13774126752E+03  0.47000000000E+01 0. -1.
         13    1    6    6    0    0  0.21167466177E+02  0.28078250669E+02  0.24810664077E+02  0.43035088438E+02  0.00000000000E+00 0. -1.
        -14    1    6    6    0    0 -0.39818769438E+02 -0.19957197689E+02  0.44223270829E+02  0.62765610185E+02  0.00000000000E+00 0.  1.
         -5    1    5    5    0  503 -0.91159802765E+02  0.71237522746E+02 -0.24313441825E+02  0.11831368366E+03  0.47000000000E+01 0.  1.
<mgrwt>
<rscale>  2 0.21943237E+03</rscale>
<asrwt>0</asrwt>
<pdfrwt beam="1">  1       21 0.32497037E-01 0.21960723E+03</pdfrwt>
<pdfrwt beam="2">  1       21 0.37794271E-01 0.21960723E+03</pdfrwt>
<totfact> 0.60779189E+04</totfact>
</mgrwt>
</event>
<event>
12    1  0.1473662E-001  0.2030781E+03  0.7546771E-02  0.1147845E+00
         21   -1    0    0  504  503  0.00000000000E+00  0.00000000000E+00  0.15457782074E+03  0.15457782074E+03  0.00000000000E+00 0. -1.
         21   -1    0    0  502  504 -0.00000000000E+00 -0.00000000000E+00 -0.11009429271E+04  0.11009429271E+04  0.00000000000E+00 0. -1.
          6    2    1    2  502    0  0.11019331441E+01  0.10270745435E+03 -0.10219041424E+04  0.10418871384E+04  0.17518760648E+03 0.  0.
         24    2    3    3    0    0  0.22116877636E+02  0.12562577031E+03 -0.59269152712E+03  0.61152399381E+03  0.80045975839E+02 0.  0.
         -6    2    1    2    0  503 -0.11019331441E+01 -0.10270745435E+03  0.75539036048E+02  0.21363360943E+03  0.17141510340E+03 0.  0.
        -24    2    5    5    0    0 -0.39670803563E+02 -0.24977093735E+02 -0.90402687939E+01  0.92368133985E+02  0.79072864177E+02 0.  0.
          2    1    4    4  501    0  0.89187315393E+01  0.12627343040E+03 -0.57827258653E+03  0.59196596805E+03  0.00000000000E+00 0. -1.
         -1    1    4    4    0  501  0.13198146097E+02 -0.64766009197E+00 -0.14418940586E+02  0.19558025760E+02  0.00000000000E+00 0.  1.
          5    1    3    3  502    0 -0.21014944492E+02 -0.22918315957E+02 -0.42921261531E+03  0.43036314461E+03  0.47000000000E+01 0. -1.
         13    1    6    6    0    0 -0.21939699762E+02 -0.33425417609E+02  0.29111189097E+02  0.49457762774E+02  0.00000000000E+00 0. -1.
        -14    1    6    6    0    0 -0.17731103801E+02  0.84483238735E+01 -0.38151457891E+02  0.42910371211E+02  0.00000000000E+00 0.  1.
         -5    1    5    5    0  503  0.38568870419E+02 -0.77730360619E+02  0.84579304842E+02  0.12126547545E+03  0.47000000000E+01 0.  1.
<mgrwt>
<rscale>  2 0.20226192E+03</rscale>
<asrwt>0</asrwt>
<pdfrwt beam="1">  1       21 0.23781203E-01 0.20307814E+03</pdfrwt>
<pdfrwt beam="2">  1       21 0.16937584E+00 0.20307814E+03</pdfrwt>
<totfact> 0.35571092E+03</totfact>
</mgrwt>
</event>
<event>
12    1  0.1473662E-001  0.2210706E+03  0.7546771E-02  0.1133215E+00
         21   -1    0    0  504  503  0.00000000000E+00  0.00000000000E+00  0.18849871389E+03  0.18849871389E+03  0.00000000000E+00 0.  1.
         21   -1    0    0  502  504 -0.00000000000E+00 -0.00000000000E+00 -0.26291257652E+03  0.26291257652E+03  0.00000000000E+00 0. -1.
          6    2    1    2  502    0 -0.13764866747E+03  0.13772336951E+01 -0.66628798034E+02  0.23089306506E+03  0.17298311576E+03 0.  0.
         24    2    3    3    0    0 -0.15755638250E+03  0.74456391818E+01 -0.12838148301E+02  0.17302539998E+03  0.69953697386E+02 0.  0.
         -6    2    1    2    0  503  0.13764866747E+03 -0.13772336951E+01 -0.77850645954E+01  0.22051822535E+03  0.17210063351E+03 0.  0.
        -24    2    5    5    0    0  0.34995029057E+01  0.22977466953E+02 -0.19243273419E+01  0.83969376815E+02  0.80665622782E+02 0.  0.
          2    1    4    4  501    0 -0.69504941740E+02  0.11548092817E+02 -0.39704743704E+02  0.80874977877E+02  0.00000000000E+00 0. -1.
         -1    1    4    4    0  501 -0.88051440762E+02 -0.41024536353E+01  0.26866595403E+02  0.92150422108E+02  0.00000000000E+00 0.  1.
          5    1    3    3  502    0  0.19907715035E+02 -0.60684054867E+01 -0.53790649733E+02  0.57867665080E+02  0.47000000000E+01 0. -1.
         13    1    6    6    0    0  0.56036893507E+00  0.34827610117E+02 -0.34594539462E+02  0.49092347677E+02  0.00000000000E+00 0. -1.
        -14    1    6    6    0    0  0.29391339706E+01 -0.11850143164E+02  0.32670212120E+02  0.34877029138E+02  0.00000000000E+00 0.  1.
         -5    1    5    5    0  503  0.13414916456E+03 -0.24354700648E+02 -0.58607372534E+01  0.13654884854E+03  0.47000000000E+01 0.  1.
<mgrwt>
<rscale>  2 0.22089794E+03</rscale>
<asrwt>0</asrwt>
<pdfrwt beam="1">  1       21 0.28999802E-01 0.22107060E+03</pdfrwt>
<pdfrwt beam="2">  1       21 0.40448088E-01 0.22107060E+03</pdfrwt>
<totfact> 0.66205709E+04</totfact>
</mgrwt>
</event>
<event>
12    1  0.1473662E-001  0.3944929E+03  0.7546771E-02  0.1045719E+00
         21   -1    0    0  504  503  0.00000000000E+00  0.00000000000E+00  0.12962617556E+04  0.12962617556E+04  0.00000000000E+00 0.  1.
         21   -1    0    0  502  504 -0.00000000000E+00 -0.00000000000E+00 -0.12144423735E+03  0.12144423735E+03  0.00000000000E+00 0. -1.
          6    2    1    2  502    0 -0.34782865746E+03  0.68150006260E+02  0.51028197149E+03  0.64499017258E+03  0.17319189934E+03 0.  0.
         24    2    3    3    0    0 -0.29633468574E+03  0.70219406354E+02  0.50194533973E+03  0.59257356291E+03  0.80307486456E+02 0.  0.
         -6    2    1    2    0  503  0.34782865746E+03 -0.68150006260E+02  0.66453554674E+03  0.77271582034E+03  0.17278034557E+03 0.  0.
        -24    2    5    5    0    0  0.29495120422E+03 -0.10159225449E+03  0.48229758217E+03  0.57997979683E+03  0.80301979561E+02 0.  0.
          2    1    4    4  501    0 -0.48688130744E+02  0.28906888661E+02  0.14935238624E+03  0.15972563214E+03  0.00000000000E+00 0. -1.
         -1    1    4    4    0  501 -0.24764655500E+03  0.41312517693E+02  0.35259295350E+03  0.43284793077E+03  0.00000000000E+00 0.  1.
          5    1    3    3  502    0 -0.51493971722E+02 -0.20694000947E+01  0.83366317591E+01  0.52416609672E+02  0.47000000000E+01 0. -1.
         11    1    6    6    0    0  0.92274904707E+02 -0.81681809264E+01  0.19759782707E+03  0.21823445760E+03  0.00000000000E+00 0. -1.
        -12    1    6    6    0    0  0.20267629951E+03 -0.93424073559E+02  0.28469975509E+03  0.36174533923E+03  0.00000000000E+00 0.  1.
         -5    1    5    5    0  503  0.52877453243E+02  0.33442248226E+02  0.18223796457E+03  0.19273602351E+03  0.47000000000E+01 0.  1.
<mgrwt>
<rscale>  2 0.39444775E+03</rscale>
<asrwt>0</asrwt>
<pdfrwt beam="1">  1       21 0.19942488E+00 0.39449288E+03</pdfrwt>
<pdfrwt beam="2">  1       21 0.18683730E-01 0.39449288E+03</pdfrwt>
<totfact> 0.30982521E+03</totfact>
</mgrwt>
</event>
<event>
12    1  0.1473662E-001  0.1830351E+03  0.7546771E-02  0.1165055E+00
         21   -1    0    0  504  503  0.00000000000E+00  0.00000000000E+00  0.11778963486E+03  0.11778963486E+03  0.00000000000E+00 0.  1.
         21   -1    0    0  502  504 -0.00000000000E+00 -0.00000000000E+00 -0.37816504659E+03  0.37816504659E+03  0.00000000000E+00 0.  1.
          6    2    1    2  502    0  0.29933704069E+02  0.47334020044E+02 -0.25450524594E+03  0.31348806684E+03  0.17425645396E+03 0.  0.
         24    2    3    3    0    0 -0.35061870357E+00 -0.20487347977E+02 -0.21112817987E+03  0.22734552202E+03  0.81798677794E+02 0.  0.
         -6    2    1    2    0  503 -0.29933704069E+02 -0.47334020044E+02 -0.58701657897E+01  0.18246661461E+03  0.17355999109E+03 0.  0.
        -24    2    5    5    0    0 -0.67897814772E+02 -0.25166041461E+02 -0.51785485695E+02  0.11872495180E+03  0.78552114912E+02 0.  0.
          2    1    4    4  501    0 -0.22814062153E+02 -0.31522321247E+02 -0.45643063566E+02  0.59978558006E+02  0.00000000000E+00 0. -1.
         -1    1    4    4    0  501  0.22463443450E+02  0.11034973270E+02 -0.16548511630E+03  0.16736696402E+03  0.00000000000E+00 0.  1.
          5    1    3    3  502    0  0.30284322772E+02  0.67821368021E+02 -0.43377066072E+02  0.86142544814E+02  0.47000000000E+01 0. -1.
         11    1    6    6    0    0  0.31758050502E+01 -0.44597944251E+01 -0.43942450023E+02  0.44282213337E+02  0.00000000000E+00 0. -1.
        -12    1    6    6    0    0 -0.71073619823E+02 -0.20706247036E+02 -0.78430356721E+01  0.74442738461E+02  0.00000000000E+00 0.  1.
         -5    1    5    5    0  503  0.37964110704E+02 -0.22167978583E+02  0.45915319905E+02  0.63741662812E+02  0.47000000000E+01 0.  1.
<mgrwt>
<rscale>  2 0.18286914E+03</rscale>
<asrwt>0</asrwt>
<pdfrwt beam="1">  1       21 0.18121482E-01 0.18303510E+03</pdfrwt>
<pdfrwt beam="2">  1       21 0.58179238E-01 0.18303510E+03</pdfrwt>
<totfact> 0.77059167E+04</totfact>
</mgrwt>
</event>
<event>
12    1  0.1473662E-001  0.1928993E+03  0.7546771E-02  0.1159558E+00
         21   -1    0    0  504  503  0.00000000000E+00  0.00000000000E+00  0.72163349569E+02  0.72163349569E+02  0.00000000000E+00 0.  1.
         21   -1    0    0  502  504 -0.00000000000E+00 -0.00000000000E+00 -0.49846265717E+03  0.49846265717E+03  0.00000000000E+00 0.  1.
          6    2    1    2  502    0 -0.45795881310E+02  0.26418446874E+01 -0.26763612765E+03  0.32085785715E+03  0.17092812989E+03 0.  0.
         24    2    3    3    0    0  0.36742137967E+02  0.68963373882E+01 -0.18335978951E+03  0.20272565789E+03  0.77970095442E+02 0.  0.
         -6    2    1    2    0  503  0.45795881310E+02 -0.26418446874E+01 -0.15866317996E+03  0.24976814959E+03  0.18736563662E+03 0.  0.
        -24    2    5    5    0    0 -0.24549884047E+02 -0.50293527510E+02 -0.11360949042E+03  0.15348141883E+03  0.86702329243E+02 0.  0.
          4    1    4    4  501    0  0.48546668485E+02  0.31802353961E+02 -0.11023364805E+03  0.12457779056E+03  0.00000000000E+00 0. -1.
         -3    1    4    4    0  501 -0.11804530519E+02 -0.24906016573E+02 -0.73126141464E+02  0.78147867327E+02  0.00000000000E+00 0.  1.
          5    1    3    3  502    0 -0.82538019277E+02 -0.42544927008E+01 -0.84276338133E+02  0.11813219927E+03  0.47000000000E+01 0. -1.
         11    1    6    6    0    0 -0.25283843117E+02 -0.28132691028E+02 -0.12352930438E+03  0.12919059590E+03  0.00000000000E+00 0. -1.
        -12    1    6    6    0    0  0.73395907028E+00 -0.22160836482E+02  0.99198139644E+01  0.24290822929E+02  0.00000000000E+00 0.  1.
         -5    1    5    5    0  503  0.70345765357E+02  0.47651682822E+02 -0.45053689537E+02  0.96286730760E+02  0.47000000000E+01 0.  1.
<mgrwt>
<rscale>  2 0.18878905E+03</rscale>
<asrwt>0</asrwt>
<pdfrwt beam="1">  1       21 0.11102054E-01 0.19289926E+03</pdfrwt>
<pdfrwt beam="2">  1       21 0.76686558E-01 0.19289926E+03</pdfrwt>
<totfact> 0.10198148E+05</totfact>
</mgrwt>
</event>
<event>
12    1  0.1473662E-001  0.2008744E+03  0.7546771E-02  0.1149050E+00
         21   -1    0    0  504  503  0.00000000000E+00  0.00000000000E+00  0.73030209506E+03  0.73030209506E+03  0.00000000000E+00 0. -1.
         21   -1    0    0  502  504 -0.00000000000E+00 -0.00000000000E+00 -0.73262084375E+02  0.73262084375E+02  0.00000000000E+00 0.  1.
          6    2    1    2  502    0  0.97490313128E+02  0.25794407326E+02  0.12910927633E+03  0.23878806435E+03  0.17372628425E+03 0.  0.
         24    2    3    3    0    0  0.16796993984E+02 -0.38445545112E+02  0.92964987054E+02  0.12939572965E+03  0.79627677903E+02 0.  0.
         -6    2    1    2    0  503 -0.97490313128E+02 -0.25794407326E+02  0.52793073435E+03  0.56477611508E+03  0.17346898078E+03 0.  0.
        -24    2    5    5    0    0 -0.28533118485E+01  0.19088116229E+02  0.33516552302E+03  0.34534248131E+03  0.80950626962E+02 0.  0.
          4    1    4    4  501    0 -0.23238137460E+02 -0.43432465384E+02  0.44992616334E+02  0.66713758750E+02  0.00000000000E+00 0. -1.
         -3    1    4    4    0  501  0.40035131445E+02  0.49869202726E+01  0.47972370719E+02  0.62681970901E+02  0.00000000000E+00 0.  1.
          5    1    3    3  502    0  0.80693319143E+02  0.64239952437E+02  0.36144289279E+02  0.10939233470E+03  0.47000000000E+01 0. -1.
         13    1    6    6    0    0  0.16026232496E+02 -0.12994022145E+01  0.30043259948E+03  0.30086255234E+03  0.00000000000E+00 0. -1.
        -14    1    6    6    0    0 -0.18879544345E+02  0.20387518444E+02  0.34732923546E+02  0.44479928968E+02  0.00000000000E+00 0.  1.
         -5    1    5    5    0  503 -0.94637001279E+02 -0.44882523555E+02  0.19276521132E+03  0.21943363377E+03  0.47000000000E+01 0.  1.
<mgrwt>
<rscale>  2 0.20081878E+03</rscale>
<asrwt>0</asrwt>
<pdfrwt beam="1">  1       21 0.11235416E+00 0.20087442E+03</pdfrwt>
<pdfrwt beam="2">  1       21 0.11271090E-01 0.20087442E+03</pdfrwt>
<totfact> 0.40533238E+04</totfact>
</mgrwt>
</event>
<event>
12    1  0.1473662E-001  0.2085692E+03  0.7546771E-02  0.1142987E+00
         21   -1    0    0  504  503  0.00000000000E+00  0.00000000000E+00  0.36287973600E+03  0.36287973600E+03  0.00000000000E+00 0. -1.
         21   -1    0    0  502  504 -0.00000000000E+00 -0.00000000000E+00 -0.40673193049E+03  0.40673193049E+03  0.00000000000E+00 0. -1.
          6    2    1    2  502    0 -0.14635255867E+02  0.11514481815E+03 -0.34556381913E+03  0.40362786233E+03  0.17328755957E+03 0.  0.
         24    2    3    3    0    0  0.53950750929E+02  0.53037523876E+02 -0.23465218401E+03  0.25911199077E+03  0.79710186510E+02 0.  0.
         -6    2    1    2    0  503  0.14635255867E+02 -0.11514481815E+03  0.30171162464E+03  0.36598380417E+03  0.17158589864E+03 0.  0.
        -24    2    5    5    0    0  0.70967130861E+02 -0.88062521705E+02  0.20806125219E+03  0.25329301848E+03  0.89869500678E+02 0.  0.
          2    1    4    4  501    0  0.14505139999E+02 -0.12786734063E+02 -0.10112119155E+02  0.21820967169E+02  0.00000000000E+00 0. -1.
         -1    1    4    4    0  501  0.39445610930E+02  0.65824257939E+02 -0.22454006486E+03  0.23729102360E+03  0.00000000000E+00 0.  1.
          5    1    3    3  502    0 -0.68586006795E+02  0.62107294270E+02 -0.11091163511E+03  0.14451587156E+03  0.47000000000E+01 0. -1.
         11    1    6    6    0    0  0.35886700211E+02 -0.48476055352E+02  0.18678366074E+03  0.19628020561E+03  0.00000000000E+00 0. -1.
        -12    1    6    6    0    0  0.35080430650E+02 -0.39586466353E+02  0.21277591455E+02  0.57012812867E+02  0.00000000000E+00 0.  1.
         -5    1    5    5    0  503 -0.56331874994E+02 -0.27082296441E+02  0.93650372442E+02  0.11269078569E+03  0.47000000000E+01 0.  1.
<mgrwt>
<rscale>  2 0.20821536E+03</rscale>
<asrwt>0</asrwt>
<pdfrwt beam="1">  1       21 0.55827652E-01 0.20856917E+03</pdfrwt>
<pdfrwt beam="2">  1       21 0.62574142E-01 0.20856917E+03</pdfrwt>
<totfact> 0.70708957E+03</totfact>
</mgrwt>
</event>
<event>
12    1  0.1473662E-001  0.1991374E+03  0.7546771E-02  0.1150500E+00
         21   -1    0    0  504  503  0.00000000000E+00  0.00000000000E+00  0.39575407623E+03  0.39575407623E+03  0.00000000000E+00 0.  1.
         21   -1    0    0  502  504 -0.00000000000E+00 -0.00000000000E+00 -0.10146883999E+03  0.10146883999E+03  0.00000000000E+00 0. -1.
          6    2    1    2  502    0  0.91637052227E+02 -0.36023886109E+02  0.17566848573E+03  0.26543499312E+03  0.17291977615E+03 0.  0.
         24    2    3    3    0    0 -0.32446311628E-01 -0.63579802353E+02  0.53997405948E+02  0.11055256307E+03  0.72551754168E+02 0.  0.
         -6    2    1    2    0  503 -0.91637052227E+02  0.36023886109E+02  0.11861675052E+03  0.23178792310E+03  0.17309141538E+03 0.  0.
        -24    2    5    5    0    0 -0.11645283953E+03  0.28734788038E+02  0.38888278772E+02  0.14783750048E+03  0.77179507933E+02 0.  0.
          4    1    4    4  501    0  0.31387489889E+01 -0.70276083607E+01 -0.17629579223E+02  0.19236452065E+02  0.00000000000E+00 0. -1.
         -3    1    4    4    0  501 -0.31711953005E+01 -0.56552193993E+02  0.71626985170E+02  0.91316111008E+02  0.00000000000E+00 0.  1.
          5    1    3    3  502    0  0.91669498539E+02  0.27555916245E+02  0.12167107978E+03  0.15488243005E+03  0.47000000000E+01 0. -1.
         13    1    6    6    0    0 -0.39013705742E+02  0.47592953887E+02  0.27199188759E+02  0.67282645344E+02  0.00000000000E+00 0. -1.
        -14    1    6    6    0    0 -0.77439133789E+02 -0.18858165848E+02  0.11689090013E+02  0.80554855139E+02  0.00000000000E+00 0.  1.
         -5    1    5    5    0  503  0.24815787304E+02  0.72890980705E+01  0.79728471747E+02  0.83950422616E+02  0.47000000000E+01 0.  1.
<mgrwt>
<rscale>  2 0.19910011E+03</rscale>
<asrwt>0</asrwt>
<pdfrwt beam="1">  1       21 0.60885242E-01 0.19913741E+03</pdfrwt>
<pdfrwt beam="2">  1       21 0.15610591E-01 0.19913741E+03</pdfrwt>
<totfact> 0.91336162E+04</totfact>
</mgrwt>
</event>
<event>
12    1  0.1473662E-001  0.2016371E+03  0.7546771E-02  0.1148946E+00
         21   -1    0    0  504  503  0.00000000000E+00  0.00000000000E+00  0.21904991181E+03  0.21904991181E+03  0.00000000000E+00 0.  1.
         21   -1    0    0  502  504 -0.00000000000E+00 -0.00000000000E+00 -0.22758640286E+03  0.22758640286E+03  0.00000000000E+00 0.  1.
          6    2    1    2  502    0  0.57184884179E+02 -0.86758784838E+02 -0.10300409357E+03  0.22396695020E+03  0.16957049792E+03 0.  0.
         24    2    3    3    0    0 -0.76268357980E+01 -0.79702916912E+02 -0.13758746811E+02  0.11334522432E+03  0.79038681503E+02 0.  0.
         -6    2    1    2    0  503 -0.57184884179E+02  0.86758784838E+02  0.94467602525E+02  0.22266936447E+03  0.17280138953E+03 0.  0.
        -24    2    5    5    0    0  0.26375152047E+02  0.82027397324E+02  0.54918276199E+02  0.12998223001E+03  0.80344386865E+02 0.  0.
          4    1    4    4  501    0 -0.17602609211E+02 -0.80326987991E+01  0.24718005380E+02  0.31390378956E+02  0.00000000000E+00 0. -1.
         -3    1    4    4    0  501  0.99757734127E+01 -0.71670218112E+02 -0.38476752191E+02  0.81954845364E+02  0.00000000000E+00 0.  1.
          5    1    3    3  502    0  0.64811719977E+02 -0.70558679263E+01 -0.89245346755E+02  0.11062172588E+03  0.47000000000E+01 0. -1.
         11    1    6    6    0    0 -0.16306353151E+02  0.11215062072E+02 -0.12406515797E+02  0.23358005150E+02  0.00000000000E+00 0. -1.
        -12    1    6    6    0    0  0.42681505198E+02  0.70812335252E+02  0.67324791997E+02  0.10662422486E+03  0.00000000000E+00 0.  1.
         -5    1    5    5    0  503 -0.83560036226E+02  0.47313875137E+01  0.39549326325E+02  0.92687134461E+02  0.47000000000E+01 0.  1.
<mgrwt>
<rscale>  2 0.20094305E+03</rscale>
<asrwt>0</asrwt>
<pdfrwt beam="1">  1       21 0.33699986E-01 0.20163709E+03</pdfrwt>
<pdfrwt beam="2">  1       21 0.35013293E-01 0.20163709E+03</pdfrwt>
<totfact> 0.66426407E+04</totfact>
</mgrwt>
</event>
<event>
12    1  0.1473662E-001  0.3167665E+03  0.7546771E-02  0.1077217E+00
         21   -1    0    0  504  503  0.00000000000E+00  0.00000000000E+00  0.65306452369E+03  0.65306452369E+03  0.00000000000E+00 0. -1.
         21   -1    0    0  502  504 -0.00000000000E+00 -0.00000000000E+00 -0.16542760146E+03  0.16542760146E+03  0.00000000000E+00 0.  1.
          6    2    1    2  502    0 -0.25650097448E+03  0.67617187163E+02  0.35457795775E+03  0.47546454747E+03  0.17313628698E+03 0.  0.
         24    2    3    3    0    0 -0.13860314260E+03 -0.26492086311E+02  0.14963703871E+03  0.22094672017E+03  0.80706555030E+02 0.  0.
         -6    2    1    2    0  503  0.25650097448E+03 -0.67617187163E+02  0.13305896448E+03  0.34302757767E+03  0.17204184695E+03 0.  0.
        -24    2    5    5    0    0  0.10435289168E+03 -0.78375493790E+02  0.11064116669E+03  0.18878935957E+03  0.79797935399E+02 0.  0.
          4    1    4    4  501    0 -0.17049471479E+02 -0.32347553323E+02  0.58180805801E+02  0.68717209251E+02  0.00000000000E+00 0. -1.
         -3    1    4    4    0  501 -0.12155367112E+03  0.58554670117E+01  0.91456232910E+02  0.15222951092E+03  0.00000000000E+00 0.  1.
          5    1    3    3  502    0 -0.11789783189E+03  0.94109273474E+02  0.20494091904E+03  0.25451782730E+03  0.47000000000E+01 0. -1.
         13    1    6    6    0    0  0.11234157481E+03 -0.51814060730E+02  0.10001815278E+03  0.15908789145E+03  0.00000000000E+00 0. -1.
        -14    1    6    6    0    0 -0.79886831328E+01 -0.26561433060E+02  0.10623013915E+02  0.29701468129E+02  0.00000000000E+00 0.  1.
         -5    1    5    5    0  503  0.15214808281E+03  0.10758306627E+02  0.22417797792E+02  0.15423821810E+03  0.47000000000E+01 0.  1.
<mgrwt>
<rscale>  2 0.31661717E+03</rscale>
<asrwt>0</asrwt>
<pdfrwt beam="1">  1       21 0.10047146E+00 0.31676649E+03</pdfrwt>
<pdfrwt beam="2">  1       21 0.25450401E-01 0.31676649E+03</pdfrwt>
<totfact> 0.11101590E+04</totfact>
</mgrwt>
</event>
<event>
12    1  0.1473662E-001  0.2280175E+03  0.7546771E-02  0.1128547E+00
         21   -1    0    0  504  503  0.00000000000E+00  0.00000000000E+00  0.12835176730E+04  0.12835176730E+04  0.00000000000E+00 0.  1.
         21   -1    0    0  502  504 -0.00000000000E+00 -0.00000000000E+00 -0.49834878432E+02  0.49834878432E+02  0.00000000000E+00 0.  1.
          6    2    1    2  502    0  0.75184505966E+02  0.12333175201E+03  0.31773853115E+03  0.38945325590E+03  0.17277914620E+03 0.  0.
         24    2    3    3    0    0 -0.73461864996E+01  0.26717242275E+02  0.19410401545E+03  0.21210258022E+03  0.80891026894E+02 0.  0.
         -6    2    1    2    0  503 -0.75184505966E+02 -0.12333175201E+03  0.91594426341E+03  0.94389929553E+03  0.17643286381E+03 0.  0.
        -24    2    5    5    0    0  0.10237271766E+02 -0.10560435864E+03  0.66413373263E+03  0.67736266765E+03  0.80557348620E+02 0.  0.
          4    1    4    4  501    0 -0.16270822194E+02  0.24189083120E+02  0.19933365917E+03  0.20145411158E+03  0.00000000000E+00 0. -1.
         -3    1    4    4    0  501  0.89246356940E+01  0.25281591551E+01 -0.52296437151E+01  0.10648468640E+02  0.00000000000E+00 0.  1.
          5    1    3    3  502    0  0.82530692466E+02  0.96614509735E+02  0.12363451570E+03  0.17735067567E+03  0.47000000000E+01 0. -1.
         11    1    6    6    0    0  0.27977416986E+02 -0.55071310137E+02  0.51899368804E+03  0.52265670692E+03  0.00000000000E+00 0. -1.
        -12    1    6    6    0    0 -0.17740145220E+02 -0.50533048503E+02  0.14514004459E+03  0.15470596074E+03  0.00000000000E+00 0.  1.
         -5    1    5    5    0  503 -0.85421777732E+02 -0.17727393370E+02  0.25181053078E+03  0.26653662788E+03  0.47000000000E+01 0.  1.
<mgrwt>
<rscale>  2 0.22731042E+03</rscale>
<asrwt>0</asrwt>
<pdfrwt beam="1">  1       21 0.19746423E+00 0.22801751E+03</pdfrwt>
<pdfrwt beam="2">  1       21 0.76669053E-02 0.22801751E+03</pdfrwt>
<totfact> 0.17553876E+04</totfact>
</mgrwt>
</event>
<event>
12    1  0.1473662E-001  0.2871742E+03  0.7546771E-02  0.1091842E+00
         21   -1    0    0  504  503  0.00000000000E+00  0.00000000000E+00  0.60111022594E+03  0.60111022594E+03  0.00000000000E+00 0. -1.
         21   -1    0    0  502  504 -0.00000000000E+00 -0.00000000000E+00 -0.14282454846E+03  0.14282454846E+03  0.00000000000E+00 0.  1.
          6    2    1    2  502    0  0.21976642091E+03 -0.61910245846E+02  0.30317296144E+03  0.41754702041E+03  0.17407329319E+03 0.  0.
         24    2    3    3    0    0  0.16251337402E+03  0.55205797066E+01  0.26468672749E+03  0.32096489051E+03  0.80736136212E+02 0.  0.
         -6    2    1    2    0  503 -0.21976642091E+03  0.61910245846E+02  0.15511271604E+03  0.32638775399E+03  0.17418051836E+03 0.  0.
        -24    2    5    5    0    0 -0.22913334928E+03  0.33945921297E+02  0.16450277400E+03  0.29508270675E+03  0.79738471547E+02 0.  0.
          4    1    4    4  501    0  0.39233104177E+02 -0.12943520304E+01  0.14036137831E+03  0.14574713833E+03  0.00000000000E+00 0. -1.
         -3    1    4    4    0  501  0.12328026984E+03  0.68149317370E+01  0.12432534918E+03  0.17521775217E+03  0.00000000000E+00 0.  1.
          5    1    3    3  502    0  0.57253046891E+02 -0.67430825552E+02  0.38486233951E+02  0.96582129904E+02  0.47000000000E+01 0. -1.
         11    1    6    6    0    0 -0.93957332737E+02 -0.89762776044E+01  0.10526031954E+03  0.14137994484E+03  0.00000000000E+00 0. -1.
        -12    1    6    6    0    0 -0.13517601654E+03  0.42922198902E+02  0.59242454457E+02  0.15370276190E+03  0.00000000000E+00 0.  1.
         -5    1    5    5    0  503  0.93669283673E+01  0.27964324549E+02 -0.93900579554E+01  0.31305047243E+02  0.47000000000E+01 0.  1.
<mgrwt>
<rscale>  2 0.28715793E+03</rscale>
<asrwt>0</asrwt>
<pdfrwt beam="1">  1       21 0.92478495E-01 0.28717418E+03</pdfrwt>
<pdfrwt beam="2">  1       21 0.21973008E-01 0.28717418E+03</pdfrwt>
<totfact> 0.18155421E+04</totfact>
</mgrwt>
</event>
<event>
12    1  0.1473662E-001  0.2104184E+03  0.7546771E-02  0.1141763E+00
         21   -1    0    0  504  503  0.00000000000E+00  0.00000000000E+00  0.27626040422E+03  0.27626040422E+03  0.00000000000E+00 0. -1.
         21   -1    0    0  502  504 -0.00000000000E+00 -0.00000000000E+00 -0.25249558591E+03  0.25249558591E+03  0.00000000000E+00 0.  1.
          6    2    1    2  502    0 -0.10849822370E+03 -0.34793703318E+02 -0.14958739213E+03  0.25817101500E+03  0.17689945947E+03 0.  0.
         24    2    3    3    0    0 -0.50408596665E+02  0.21878916709E+02 -0.30884996353E+02  0.11430114534E+03  0.95347549591E+02 0.  0.
         -6    2    1    2    0  503  0.10849822370E+03  0.34793703318E+02  0.17335221044E+03  0.27058497514E+03  0.17373190142E+03 0.  0.
        -24    2    5    5    0    0  0.22006452853E+02  0.26542008938E+02  0.16114298801E+03  0.18272103489E+03  0.78937645012E+02 0.  0.
          4    1    4    4  501    0 -0.53939710897E+02  0.29300714661E+02  0.18598351037E+02  0.64139870226E+02  0.00000000000E+00 0. -1.
         -3    1    4    4    0  501  0.35311142321E+01 -0.74217979519E+01 -0.49483347389E+02  0.50161275118E+02  0.00000000000E+00 0.  1.
          5    1    3    3  502    0 -0.58089627037E+02 -0.56672620027E+02 -0.11870239578E+03  0.14386986965E+03  0.47000000000E+01 0. -1.
         11    1    6    6    0    0  0.33075667567E+02  0.46617142010E+02  0.79465026548E+02  0.97886915155E+02  0.00000000000E+00 0. -1.
        -12    1    6    6    0    0 -0.11069214715E+02 -0.20075133073E+02  0.81677961462E+02  0.84834119733E+02  0.00000000000E+00 0.  1.
         -5    1    5    5    0  503  0.86491770849E+02  0.82516943804E+01  0.12209222429E+02  0.87863940255E+02  0.47000000000E+01 0.  1.
<mgrwt>
<rscale>  2 0.20975122E+03</rscale>
<asrwt>0</asrwt>
<pdfrwt beam="1">  1       21 0.42501600E-01 0.21041836E+03</pdfrwt>
<pdfrwt beam="2">  1       21 0.38845475E-01 0.21041836E+03</pdfrwt>
<totfact> 0.33713247E+04</totfact>
</mgrwt>
</event>
<event>
12    1  0.1473662E-001  0.1889633E+03  0.7546771E-02  0.1159475E+00
         21   -1    0    0  504  503  0.00000000000E+00  0.00000000000E+00  0.97644695701E+02  0.97644695701E+02  0.00000000000E+00 0.  1.
         21   -1    0    0  502  504 -0.00000000000E+00 -0.00000000000E+00 -0.44332961650E+03  0.44332961650E+03  0.00000000000E+00 0.  1.
          6    2    1    2  502    0 -0.14758924893E+02 -0.74034935445E+02 -0.28663195858E+03  0.34331472981E+03  0.17322853833E+03 0.  0.
         24    2    3    3    0    0 -0.35826257894E+02  0.21775201104E+02 -0.14524603547E+03  0.17116513196E+03  0.80270862967E+02 0.  0.
         -6    2    1    2    0  503  0.14758924893E+02  0.74034935445E+02 -0.59052962215E+02  0.19765958239E+03  0.17286717628E+03 0.  0.
        -24    2    5    5    0    0  0.12301266934E+02  0.11157519168E+02 -0.95039066834E+02  0.12501868973E+03  0.79507466038E+02 0.  0.
          4    1    4    4  501    0 -0.48274370973E+02  0.26284658467E+01 -0.13946545071E+03  0.14760736996E+03  0.00000000000E+00 0. -1.
         -3    1    4    4    0  501  0.12448113079E+02  0.19146735257E+02 -0.57805847628E+01  0.23557762000E+02  0.00000000000E+00 0.  1.
          5    1    3    3  502    0  0.21067333001E+02 -0.95810136548E+02 -0.14138592311E+03  0.17214959784E+03  0.47000000000E+01 0. -1.
         13    1    6    6    0    0  0.39656827594E+02  0.28373925660E+02 -0.53540935832E+02  0.72418060191E+02  0.00000000000E+00 0. -1.
        -14    1    6    6    0    0 -0.27355560659E+02 -0.17216406493E+02 -0.41498131003E+02  0.52600629542E+02  0.00000000000E+00 0.  1.
         -5    1    5    5    0  503  0.24576579584E+01  0.62877416277E+02  0.35986104619E+02  0.72640892657E+02  0.47000000000E+01 0.  1.
<mgrwt>
<rscale>  2 0.18888043E+03</rscale>
<asrwt>0</asrwt>
<pdfrwt beam="1">  1       21 0.15022261E-01 0.18896329E+03</pdfrwt>
<pdfrwt beam="2">  1       21 0.68204556E-01 0.18896329E+03</pdfrwt>
<totfact> 0.76874633E+04</totfact>
</mgrwt>
</event>
<event>
12    1  0.1473662E-001  0.3098631E+03  0.7546771E-02  0.1080580E+00
         21   -1    0    0  504  503  0.00000000000E+00  0.00000000000E+00  0.11208867211E+04  0.11208867211E+04  0.00000000000E+00 0.  1.
         21   -1    0    0  502  504 -0.00000000000E+00 -0.00000000000E+00 -0.24155244251E+03  0.24155244251E+03  0.00000000000E+00 0. -1.
          6    2    1    2  502    0 -0.21366368347E+02  0.25602244603E+03 -0.10862065963E+03  0.32703097016E+03  0.17072431922E+03 0.  0.
         24    2    3    3    0    0  0.30633795717E+02  0.23160486373E+03 -0.68735506231E+02  0.25693709846E+03  0.81932047475E+02 0.  0.
         -6    2    1    2    0  503  0.21366368347E+02 -0.25602244603E+03  0.98795493823E+03  0.10354081935E+04  0.17323727242E+03 0.  0.
        -24    2    5    5    0    0 -0.34606254645E+02 -0.22843591069E+03  0.73860228680E+03  0.77832302036E+03  0.82902519861E+02 0.  0.
          4    1    4    4  501    0  0.35235547929E+02  0.22940738199E+03 -0.79247183036E+02  0.24525375995E+03  0.00000000000E+00 0. -1.
         -3    1    4    4    0  501 -0.46017522124E+01  0.21974817360E+01  0.10511676805E+02  0.11683338506E+02  0.00000000000E+00 0.  1.
          5    1    3    3  502    0 -0.52000164064E+02  0.24417582307E+02 -0.39885153401E+02  0.70093871702E+02  0.47000000000E+01 0. -1.
         13    1    6    6    0    0 -0.32053687251E+01 -0.37465391181E+02  0.24957866559E+03  0.25239540456E+03  0.00000000000E+00 0. -1.
        -14    1    6    6    0    0 -0.31400885920E+02 -0.19097051951E+03  0.48902362122E+03  0.52592761580E+03  0.00000000000E+00 0.  1.
         -5    1    5    5    0  503  0.55972622993E+02 -0.27586535343E+02  0.24935265143E+03  0.25708517310E+03  0.47000000000E+01 0.  1.
<mgrwt>
<rscale>  2 0.30951308E+03</rscale>
<asrwt>0</asrwt>
<pdfrwt beam="1">  1       21 0.17244411E+00 0.30986314E+03</pdfrwt>
<pdfrwt beam="2">  1       21 0.37161915E-01 0.30986314E+03</pdfrwt>
<totfact> 0.13010171E+03</totfact>
</mgrwt>
</event>
<event>
12    1  0.1473662E-001  0.1854652E+03  0.7546771E-02  0.1162731E+00
         21   -1    0    0  504  503  0.00000000000E+00  0.00000000000E+00  0.10145441894E+04  0.10145441894E+04  0.00000000000E+00 0. -1.
         21   -1    0    0  502  504 -0.00000000000E+00 -0.00000000000E+00 -0.85998315042E+02  0.85998315042E+02  0.00000000000E+00 0. -1.
          6    2    1    2  502    0 -0.46322962311E+02  0.47310311794E+02  0.89267782794E+03  0.91164083570E+03  0.17271718613E+03 0.  0.
         24    2    3    3    0    0 -0.82542730384E+02  0.28627303471E+02  0.38383221899E+03  0.40114414605E+03  0.77179198821E+02 0.  0.
         -6    2    1    2    0  503  0.46322962311E+02 -0.47310311794E+02  0.35868046381E+02  0.18890166870E+03  0.17324330073E+03 0.  0.
        -24    2    5    5    0    0 -0.18205656760E+02 -0.75664405641E+02  0.87733089206E+01  0.11324380649E+03  0.81796335732E+02 0.  0.
          4    1    4    4  501    0 -0.61908298460E+02  0.97193995893E+01  0.35670393442E+03  0.36216681374E+03  0.00000000000E+00 0. -1.
         -3    1    4    4    0  501 -0.20634431924E+02  0.18907903882E+02  0.27128284578E+02  0.38977332312E+02  0.00000000000E+00 0.  1.
          5    1    3    3  502    0  0.36219768073E+02  0.18683008322E+02  0.50884560894E+03  0.51049668964E+03  0.47000000000E+01 0. -1.
         13    1    6    6    0    0 -0.44544044388E+01  0.14594435728E+02 -0.12233959040E+02  0.19557837992E+02  0.00000000000E+00 0. -1.
        -14    1    6    6    0    0 -0.13751252321E+02 -0.90258841369E+02  0.21007267961E+02  0.93685968495E+02  0.00000000000E+00 0.  1.
         -5    1    5    5    0  503  0.64528619071E+02  0.28354093847E+02  0.27094737460E+02  0.75657862216E+02  0.47000000000E+01 0.  1.
<mgrwt>
<rscale>  2 0.18534220E+03</rscale>
<asrwt>0</asrwt>
<pdfrwt beam="1">  1       21 0.15608371E+00 0.18546515E+03</pdfrwt>
<pdfrwt beam="2">  1       21 0.13230511E-01 0.18546515E+03</pdfrwt>
<totfact> 0.13318353E+04</totfact>
</mgrwt>
</event>
<event>
12    1  0.1473662E-001  0.1756136E+03  0.7546771E-02  0.1172676E+00
         21   -1    0    0  504  503  0.00000000000E+00  0.00000000000E+00  0.39003476620E+02  0.39003476620E+02  0.00000000000E+00 0.  1.
         21   -1    0    0  502  504 -0.00000000000E+00 -0.00000000000E+00 -0.89627664502E+03  0.89627664502E+03  0.00000000000E+00 0.  1.
          6    2    1    2  502    0  0.83355528814E+01  0.14116130871E+02 -0.59891373598E+03  0.62412963835E+03  0.17484677784E+03 0.  0.
         24    2    3    3    0    0  0.27547941372E+01  0.77004584104E+02 -0.42266630135E+03  0.43685617351E+03  0.79115227180E+02 0.  0.
         -6    2    1    2    0  503 -0.83355528814E+01 -0.14116130871E+02 -0.25835943242E+03  0.31115048330E+03  0.17261599098E+03 0.  0.
        -24    2    5    5    0    0 -0.31647397499E+02  0.40937009902E+02 -0.16540889750E+03  0.20053320458E+03  0.10087648992E+03 0.  0.
          2    1    4    4  501    0 -0.10525537912E+02  0.63216346440E+02 -0.14500395152E+03  0.15853466297E+03  0.00000000000E+00 0. -1.
         -1    1    4    4    0  501  0.13280332049E+02  0.13788237664E+02 -0.27766234983E+03  0.27832151054E+03  0.00000000000E+00 0.  1.
          5    1    3    3  502    0  0.55807587442E+01 -0.62888453234E+02 -0.17624743463E+03  0.18727346484E+03  0.47000000000E+01 0. -1.
         11    1    6    6    0    0  0.15479820621E+02  0.61975982317E+01 -0.13215147843E+03  0.13319928049E+03  0.00000000000E+00 0. -1.
        -12    1    6    6    0    0 -0.47127218120E+02  0.34739411670E+02 -0.33257419068E+02  0.67333924094E+02  0.00000000000E+00 0.  1.
         -5    1    5    5    0  503  0.23311844618E+02 -0.55053140772E+02 -0.92950534921E+02  0.11061727872E+03  0.47000000000E+01 0.  1.
<mgrwt>
<rscale>  2 0.17505573E+03</rscale>
<asrwt>0</asrwt>
<pdfrwt beam="1">  1       21 0.60005354E-02 0.17561362E+03</pdfrwt>
<pdfrwt beam="2">  1       21 0.13788870E+00 0.17561362E+03</pdfrwt>
<totfact> 0.73991549E+04</totfact>
</mgrwt>
</event>
<event>
12    1  0.1473662E-001  0.2070535E+03  0.7546771E-02  0.1144139E+00
         21   -1    0    0  504  503  0.00000000000E+00  0.00000000000E+00  0.64847932281E+03  0.64847932281E+03  0.00000000000E+00 0. -1.
         21   -1    0    0  502  504 -0.00000000000E+00 -0.00000000000E+00 -0.10335886748E+03  0.10335886748E+03  0.00000000000E+00 0.  1.
          6    2    1    2  502    0 -0.11010618021E+03 -0.21358822839E+02  0.45393574703E+02  0.21091482138E+03  0.17275680890E+03 0.  0.
         24    2    3    3    0    0 -0.10280112541E+03  0.54289250262E+01 -0.26726729916E+02  0.13349146832E+03  0.80672854223E+02 0.  0.
         -6    2    1    2    0  503  0.11010618021E+03  0.21358822839E+02  0.49972688062E+03  0.54092336891E+03  0.17404472295E+03 0.  0.
        -24    2    5    5    0    0  0.67771777325E+02  0.44178291219E+02  0.47302269192E+03  0.48571346492E+03  0.74982449368E+02 0.  0.
          2    1    4    4  501    0 -0.43580483428E+02  0.39916437451E+01  0.28726056508E+02  0.52348620594E+02  0.00000000000E+00 0. -1.
         -1    1    4    4    0  501 -0.59220641986E+02  0.14372812811E+01 -0.55452786423E+02  0.81142847724E+02  0.00000000000E+00 0.  1.
          5    1    3    3  502    0 -0.73050547951E+01 -0.26787747865E+02  0.72120304619E+02  0.77423353063E+02  0.47000000000E+01 0. -1.
         13    1    6    6    0    0  0.17568268434E+02  0.53665435712E+02  0.19397673867E+03  0.20202870635E+03  0.00000000000E+00 0. -1.
        -14    1    6    6    0    0  0.50203508890E+02 -0.94871444933E+01  0.27904595326E+03  0.28368475857E+03  0.00000000000E+00 0.  1.
         -5    1    5    5    0  503  0.42334402884E+02 -0.22819468379E+02  0.26704188697E+02  0.55209903990E+02  0.47000000000E+01 0.  1.
<mgrwt>
<rscale>  2 0.20678258E+03</rscale>
<asrwt>0</asrwt>
<pdfrwt beam="1">  1       21 0.99766047E-01 0.20705346E+03</pdfrwt>
<pdfrwt beam="2">  1       21 0.15901365E-01 0.20705346E+03</pdfrwt>
<totfact> 0.28872706E+04</totfact>
</mgrwt>
</event>
<event>
12    1  0.1473662E-001  0.1941079E+03  0.7546771E-02  0.1155447E+00
         21   -1    0    0  504  503  0.00000000000E+00  0.00000000000E+00  0.46944523855E+03  0.46944523855E+03  0.00000000000E+00 0.  1.
         21   -1    0    0  502  504 -0.00000000000E+00 -0.00000000000E+00 -0.83795586578E+02  0.83795586578E+02  0.00000000000E+00 0.  1.
          6    2    1    2  502    0  0.27982382378E+02 -0.76880267583E+02  0.12576756143E+03  0.22886980068E+03  0.17283031241E+03 0.  0.
         24    2    3    3    0    0  0.62370395745E+02 -0.10257330170E+03  0.92294931472E+02  0.17423305094E+03  0.86182673311E+02 0.  0.
         -6    2    1    2    0  503 -0.27982382378E+02  0.76880267583E+02  0.25988209054E+03  0.32437102445E+03  0.17602349631E+03 0.  0.
        -24    2    5    5    0    0  0.39447048385E+02  0.70670821580E+02  0.21062807185E+03  0.24050605137E+03  0.83237860643E+02 0.  0.
          4    1    4    4  501    0  0.19849551140E+02 -0.10256763389E+03  0.57232403277E+02  0.11912041046E+03  0.00000000000E+00 0. -1.
         -3    1    4    4    0  501  0.42520844605E+02 -0.56678067768E-02  0.35062528195E+02  0.55112640487E+02  0.00000000000E+00 0.  1.
          5    1    3    3  502    0 -0.34388013366E+02  0.25693034115E+02  0.33472629962E+02  0.54636749738E+02  0.47000000000E+01 0. -1.
         11    1    6    6    0    0 -0.74042432053E+01  0.59481932798E+02  0.15886929620E+03  0.16980099064E+03  0.00000000000E+00 0. -1.
        -12    1    6    6    0    0  0.46851291590E+02  0.11188888783E+02  0.51758775646E+02  0.70705060726E+02  0.00000000000E+00 0.  1.
         -5    1    5    5    0  503 -0.67429430763E+02  0.62094460021E+01  0.49254018686E+02  0.83864973079E+02  0.47000000000E+01 0.  1.
<mgrwt>
<rscale>  2 0.19338105E+03</rscale>
<asrwt>0</asrwt>
<pdfrwt beam="1">  1       21 0.72222343E-01 0.19410786E+03</pdfrwt>
<pdfrwt beam="2">  1       21 0.12891629E-01 0.19410786E+03</pdfrwt>
<totfact> 0.89180503E+04</totfact>
</mgrwt>
</event>
<event>
12    1  0.1473662E-001  0.1859266E+03  0.7546771E-02  0.1162361E+00
         21   -1    0    0  504  503  0.00000000000E+00  0.00000000000E+00  0.57050525511E+03  0.57050525511E+03  0.00000000000E+00 0.  1.
         21   -1    0    0  502  504 -0.00000000000E+00 -0.00000000000E+00 -0.76756867249E+02  0.76756867249E+02  0.00000000000E+00 0.  1.
          6    2    1    2  502    0 -0.67562352024E+02 -0.70235981100E+01  0.96860645757E+02  0.20898298888E+03  0.17227275642E+03 0.  0.
         24    2    3    3    0    0  0.69579995313E+01  0.35088357325E+02  0.11174085363E+02  0.87776651512E+02  0.79374264026E+02 0.  0.
         -6    2    1    2    0  503  0.67562352024E+02  0.70235981100E+01  0.39688774211E+03  0.43827913348E+03  0.17307430967E+03 0.  0.
        -24    2    5    5    0    0  0.10479451876E+03  0.35990813795E+02  0.32669469930E+03  0.35357678946E+03  0.77523478073E+02 0.  0.
          4    1    4    4  501    0  0.13743571045E+02  0.48317323110E+02  0.33912118680E+02  0.60609250539E+02  0.00000000000E+00 0. -1.
         -3    1    4    4    0  501 -0.67855715137E+01 -0.13228965785E+02 -0.22738033317E+02  0.27167400973E+02  0.00000000000E+00 0.  1.
          5    1    3    3  502    0 -0.74520351555E+02 -0.42111955435E+02  0.85686560394E+02  0.12120633737E+03  0.47000000000E+01 0. -1.
         11    1    6    6    0    0 -0.69140826225E+01  0.96202922989E+01  0.66794460472E+01  0.13600351537E+02  0.00000000000E+00 0. -1.
        -12    1    6    6    0    0  0.11170860138E+03  0.26370521496E+02  0.32001525325E+03  0.33997643792E+03  0.00000000000E+00 0.  1.
         -5    1    5    5    0  503 -0.37232166735E+02 -0.28967215685E+02  0.70193042808E+02  0.84702344023E+02  0.47000000000E+01 0.  1.
<mgrwt>
<rscale>  2 0.18573989E+03</rscale>
<asrwt>0</asrwt>
<pdfrwt beam="1">  1       21 0.87770037E-01 0.18592665E+03</pdfrwt>
<pdfrwt beam="2">  1       21 0.11808749E-01 0.18592665E+03</pdfrwt>
<totfact> 0.67433191E+04</totfact>
</mgrwt>
</event>
<event>
12    1  0.1473662E-001  0.2165526E+03  0.7546771E-02  0.1137713E+00
         21   -1    0    0  504  503  0.00000000000E+00  0.00000000000E+00  0.61036826674E+03  0.61036826674E+03  0.00000000000E+00 0.  1.
         21   -1    0    0  502  504 -0.00000000000E+00 -0.00000000000E+00 -0.82948976233E+02  0.82948976233E+02  0.00000000000E+00 0.  1.
          6    2    1    2  502    0  0.10761600881E+03 -0.49375615747E+02  0.15717836458E+03  0.26758187194E+03  0.18131702379E+03 0.  0.
         24    2    3    3    0    0  0.12278104789E+03  0.17036685501E+02  0.98946175477E+02  0.17783974128E+03  0.80443729178E+02 0.  0.
         -6    2    1    2    0  503 -0.10761600881E+03  0.49375615747E+02  0.37024092592E+03  0.42573537103E+03  0.17364649761E+03 0.  0.
        -24    2    5    5    0    0  0.10014089624E+02  0.43332407515E+02  0.14226646566E+03  0.16908813267E+03  0.79831508988E+02 0.  0.
          2    1    4    4  501    0  0.91428139643E+02 -0.88471982145E+01  0.10175997151E+03  0.13708562812E+03  0.00000000000E+00 0. -1.
         -1    1    4    4    0  501  0.31352908249E+02  0.25883883715E+02 -0.28137960321E+01  0.40754113166E+02  0.00000000000E+00 0.  1.
          5    1    3    3  502    0 -0.15165039080E+02 -0.66412301248E+02  0.58232189105E+02  0.89742130660E+02  0.47000000000E+01 0. -1.
         13    1    6    6    0    0  0.16582115759E+01  0.31608423393E+02  0.61891280003E+01  0.32251316259E+02  0.00000000000E+00 0. -1.
        -14    1    6    6    0    0  0.83558780481E+01  0.11723984122E+02  0.13607733766E+03  0.13683681641E+03  0.00000000000E+00 0.  1.
         -5    1    5    5    0  503 -0.11763009843E+03  0.60432082317E+01  0.22797446026E+03  0.25664723835E+03  0.47000000000E+01 0.  1.
<mgrwt>
<rscale>  2 0.21493950E+03</rscale>
<asrwt>0</asrwt>
<pdfrwt beam="1">  1       21 0.93902807E-01 0.21655258E+03</pdfrwt>
<pdfrwt beam="2">  1       21 0.12761381E-01 0.21655258E+03</pdfrwt>
<totfact> 0.49430433E+04</totfact>
</mgrwt>
</event>
<event>
12    1  0.1473662E-001  0.1849111E+03  0.7546771E-02  0.1163252E+00
         21   -1    0    0  504  503  0.00000000000E+00  0.00000000000E+00  0.41961269404E+03  0.41961269404E+03  0.00000000000E+00 0.  1.
         21   -1    0    0  502  504 -0.00000000000E+00 -0.00000000000E+00 -0.38086837978E+03  0.38086837978E+03  0.00000000000E+00 0.  1.
          6    2    1    2  502    0 -0.58215735106E+02 -0.24713537970E+02 -0.33561887542E+03  0.38294076663E+03  0.17321596471E+03 0.  0.
         24    2    3    3    0    0 -0.36696287557E+02  0.17895650748E+02 -0.32129071783E+03  0.33288064591E+03  0.76908564044E+02 0.  0.
         -6    2    1    2    0  503  0.58215735106E+02  0.24713537970E+02  0.37436318968E+03  0.41754030720E+03  0.17375925751E+03 0.  0.
        -24    2    5    5    0    0 -0.17807091741E+00  0.57862167154E+02  0.30315998046E+03  0.31955737397E+03  0.82842497621E+02 0.  0.
          2    1    4    4  501    0  0.76506630903E+01  0.24219098436E+02 -0.35786579059E+02  0.43883671399E+02  0.00000000000E+00 0. -1.
         -1    1    4    4    0  501 -0.44346950647E+02 -0.63234476879E+01 -0.28550413877E+03  0.28899697451E+03  0.00000000000E+00 0.  1.
          5    1    3    3  502    0 -0.21519447549E+02 -0.42609188717E+02 -0.14328157596E+02  0.50060120716E+02  0.47000000000E+01 0. -1.
         13    1    6    6    0    0 -0.21504644128E+01  0.37535551463E+02  0.37459179945E+02  0.53072895935E+02  0.00000000000E+00 0. -1.
        -14    1    6    6    0    0  0.19723934954E+01  0.20326615691E+02  0.26570080051E+03  0.26648447804E+03  0.00000000000E+00 0.  1.
         -5    1    5    5    0  503  0.58393806024E+02 -0.33148629184E+02  0.71203209225E+02  0.97982933221E+02  0.47000000000E+01 0.  1.
<mgrwt>
<rscale>  2 0.18478335E+03</rscale>
<asrwt>0</asrwt>
<pdfrwt beam="1">  1       21 0.64555799E-01 0.18491109E+03</pdfrwt>
<pdfrwt beam="2">  1       21 0.58595136E-01 0.18491109E+03</pdfrwt>
<totfact> 0.60664502E+03</totfact>
</mgrwt>
</event>
<event>
12    1  0.1473662E-001  0.1825588E+03  0.7546771E-02  0.1167156E+00
         21   -1    0    0  504  503  0.00000000000E+00  0.00000000000E+00  0.85557643027E+02  0.85557643027E+02  0.00000000000E+00 0.  1.
         21   -1    0    0  502  504 -0.00000000000E+00 -0.00000000000E+00 -0.38367930508E+03  0.38367930508E+03  0.00000000000E+00 0.  1.
          6    2    1    2  502    0 -0.24741185292E+02 -0.29714533722E+01 -0.18363105162E+03  0.25374725938E+03  0.17333883795E+03 0.  0.
         24    2    3    3    0    0  0.51585855648E+02  0.15700938366E+01 -0.12595243684E+03  0.15785484345E+03  0.79941038017E+02 0.  0.
         -6    2    1    2    0  503  0.24741185292E+02  0.29714533722E+01 -0.11449061043E+03  0.21548968872E+03  0.18085007681E+03 0.  0.
        -24    2    5    5    0    0 -0.24047196791E+02 -0.30038682071E+02 -0.69288285003E+01  0.92763969326E+02  0.84122263680E+02 0.  0.
          4    1    4    4  501    0  0.22713303099E+01  0.86653793017E+00 -0.10373254479E+03  0.10376102677E+03  0.00000000000E+00 0. -1.
         -3    1    4    4    0  501  0.49314525338E+02  0.70355590641E+00 -0.22219892049E+02  0.54093816679E+02  0.00000000000E+00 0.  1.
          5    1    3    3  502    0 -0.76327040940E+02 -0.45415472088E+01 -0.57678614780E+02  0.95892415929E+02  0.47000000000E+01 0. -1.
         11    1    6    6    0    0 -0.48222124335E+02 -0.12320804800E+02  0.18859184400E+02  0.53224471275E+02  0.00000000000E+00 0. -1.
        -12    1    6    6    0    0  0.24174927544E+02 -0.17717877271E+02 -0.25788012900E+02  0.39539498051E+02  0.00000000000E+00 0.  1.
         -5    1    5    5    0  503  0.48788382083E+02  0.33010135443E+02 -0.10756178193E+03  0.12272571939E+03  0.47000000000E+01 0.  1.
<mgrwt>
<rscale>  2 0.18067019E+03</rscale>
<asrwt>0</asrwt>
<pdfrwt beam="1">  1       21 0.13162714E-01 0.18255877E+03</pdfrwt>
<pdfrwt beam="2">  1       21 0.59027586E-01 0.18255877E+03</pdfrwt>
<totfact> 0.13385021E+05</totfact>
</mgrwt>
</event>
<event>
12    1  0.1473662E-001  0.1810451E+03  0.7546771E-02  0.1167423E+00
         21   -1    0    0  504  503  0.00000000000E+00  0.00000000000E+00  0.45345863956E+03  0.45345863956E+03  0.00000000000E+00 0.  1.
         21   -1    0    0  502  504 -0.00000000000E+00 -0.00000000000E+00 -0.72415936407E+02  0.72415936407E+02  0.00000000000E+00 0. -1.
          6    2    1    2  502    0  0.69239120063E+01  0.48109325302E+02  0.15852304094E+03  0.24063851379E+03  0.17439865846E+03 0.  0.
         24    2    3    3    0    0 -0.37923470379E+02  0.69482288521E+02  0.15440150719E+03  0.19056688206E+03  0.78803128709E+02 0.  0.
         -6    2    1    2    0  503 -0.69239120063E+01 -0.48109325302E+02  0.22251966221E+03  0.28523606218E+03  0.17170370804E+03 0.  0.
        -24    2    5    5    0    0  0.19853871188E+02 -0.93424835304E+02  0.14510707234E+03  0.19150589526E+03  0.80598197394E+02 0.  0.
          2    1    4    4  501    0 -0.39552381922E+02  0.79085658186E+02  0.92733837686E+02  0.12813468265E+03  0.00000000000E+00 0. -1.
         -1    1    4    4    0  501  0.16289115427E+01 -0.96033696651E+01  0.61667669500E+02  0.62432199412E+02  0.00000000000E+00 0.  1.
          5    1    3    3  502    0  0.44847382385E+02 -0.21372963219E+02  0.41215337577E+01  0.50071631730E+02  0.47000000000E+01 0. -1.
         11    1    6    6    0    0 -0.22131789731E+02 -0.73224862317E+02  0.10573995713E+03  0.13050913804E+03  0.00000000000E+00 0. -1.
        -12    1    6    6    0    0  0.41985660918E+02 -0.20199972987E+02  0.39367115216E+02  0.60996757224E+02  0.00000000000E+00 0.  1.
         -5    1    5    5    0  503 -0.26777783194E+02  0.45315510002E+02  0.77412589869E+02  0.93730166915E+02  0.47000000000E+01 0.  1.
<mgrwt>
<rscale>  2 0.18039298E+03</rscale>
<asrwt>0</asrwt>
<pdfrwt beam="1">  1       21 0.69762866E-01 0.18104513E+03</pdfrwt>
<pdfrwt beam="2">  1       21 0.11140914E-01 0.18104513E+03</pdfrwt>
<totfact> 0.12559569E+05</totfact>
</mgrwt>
</event>
<event>
12    1  0.1473662E-001  0.2221588E+03  0.7546771E-02  0.1132850E+00
         21   -1    0    0  504  503  0.00000000000E+00  0.00000000000E+00  0.10700049150E+03  0.10700049150E+03  0.00000000000E+00 0.  1.
         21   -1    0    0  502  504 -0.00000000000E+00 -0.00000000000E+00 -0.49475283955E+03  0.49475283955E+03  0.00000000000E+00 0.  1.
          6    2    1    2  502    0  0.28172334422E+02  0.13501464380E+03 -0.27799729057E+03  0.35396165067E+03  0.17024606343E+03 0.  0.
         24    2    3    3    0    0 -0.12160633511E+01  0.52836677399E+02 -0.44124397960E+02  0.10429083543E+03  0.78335321347E+02 0.  0.
         -6    2    1    2    0  503 -0.28172334422E+02 -0.13501464380E+03 -0.10975505748E+03  0.24779168038E+03  0.17416058612E+03 0.  0.
        -24    2    5    5    0    0 -0.21806589589E+02 -0.10016932103E+02 -0.93084396844E+02  0.12143919105E+03  0.74208529885E+02 0.  0.
          2    1    4    4  501    0 -0.24654012668E+02  0.63563878822E+02 -0.26916801720E+02  0.73298712447E+02  0.00000000000E+00 0. -1.
         -1    1    4    4    0  501  0.23437949317E+02 -0.10727201423E+02 -0.17207596240E+02  0.30992122982E+02  0.00000000000E+00 0.  1.
          5    1    3    3  502    0  0.29388397773E+02  0.82177966397E+02 -0.23387289261E+03  0.24967081524E+03  0.47000000000E+01 0. -1.
         11    1    6    6    0    0  0.18038199002E+02 -0.13305530393E+02 -0.26615655645E+01  0.22572055590E+02  0.00000000000E+00 0. -1.
        -12    1    6    6    0    0 -0.39844788591E+02  0.32885982903E+01 -0.90422831280E+02  0.98867135456E+02  0.00000000000E+00 0.  1.
         -5    1    5    5    0  503 -0.63657448331E+01 -0.12499771169E+03 -0.16670660637E+02  0.12635248934E+03  0.47000000000E+01 0.  1.
<mgrwt>
<rscale>  2 0.22139103E+03</rscale>
<asrwt>0</asrwt>
<pdfrwt beam="1">  1       21 0.16461614E-01 0.22215883E+03</pdfrwt>
<pdfrwt beam="2">  1       21 0.76115822E-01 0.22215883E+03</pdfrwt>
<totfact> 0.50195735E+04</totfact>
</mgrwt>
</event>
<event>
12    1  0.1473662E-001  0.2869210E+03  0.7546771E-02  0.1092195E+00
         21   -1    0    0  504  503  0.00000000000E+00  0.00000000000E+00  0.14890625974E+04  0.14890625974E+04  0.00000000000E+00 0.  1.
         21   -1    0    0  502  504 -0.00000000000E+00 -0.00000000000E+00 -0.56693075016E+02  0.56693075016E+02  0.00000000000E+00 0. -1.
          6    2    1    2  502    0  0.17897400648E+02  0.22608375826E+03  0.58300330355E+03  0.64978187892E+03  0.17575396303E+03 0.  0.
         24    2    3    3    0    0 -0.20729874262E+02  0.22388987005E+03  0.54679053205E+03  0.59658099235E+03  0.79828521782E+02 0.  0.
         -6    2    1    2    0  503 -0.17897400648E+02 -0.22608375826E+03  0.84936621881E+03  0.89597379348E+03  0.17295051962E+03 0.  0.
        -24    2    5    5    0    0  0.11956639696E+02 -0.15733618849E+03  0.36501252001E+03  0.40583290800E+03  0.81046727309E+02 0.  0.
          2    1    4    4  501    0 -0.15177177085E+01  0.14352116836E+03  0.24764007025E+03  0.28622759061E+03  0.00000000000E+00 0. -1.
         -1    1    4    4    0  501 -0.19212156554E+02  0.80368701683E+02  0.29915046180E+03  0.31035340173E+03  0.00000000000E+00 0.  1.
          5    1    3    3  502    0  0.38627274910E+02  0.21938882111E+01  0.36212771496E+02  0.53200886571E+02  0.47000000000E+01 0. -1.
         11    1    6    6    0    0 -0.10442464985E+02 -0.36234395892E+01  0.84180628720E+02  0.84903195706E+02  0.00000000000E+00 0. -1.
        -12    1    6    6    0    0  0.22399104681E+02 -0.15371274890E+03  0.28083189129E+03  0.32092971229E+03  0.00000000000E+00 0.  1.
         -5    1    5    5    0  503 -0.29854040343E+02 -0.68747569767E+02  0.48435369880E+03  0.49014088548E+03  0.47000000000E+01 0.  1.
<mgrwt>
<rscale>  2 0.28649284E+03</rscale>
<asrwt>0</asrwt>
<pdfrwt beam="1">  1       21 0.22908652E+00 0.28692096E+03</pdfrwt>
<pdfrwt beam="2">  1       21 0.87220127E-02 0.28692096E+03</pdfrwt>
<totfact> 0.85045921E+03</totfact>
</mgrwt>
</event>
<event>
12    1  0.1473662E-001  0.1909633E+03  0.7546771E-02  0.1158005E+00
         21   -1    0    0  504  503  0.00000000000E+00  0.00000000000E+00  0.23253751022E+02  0.23253751022E+02  0.00000000000E+00 0. -1.
         21   -1    0    0  502  504 -0.00000000000E+00 -0.00000000000E+00 -0.16721885651E+04  0.16721885651E+04  0.00000000000E+00 0.  1.
          6    2    1    2  502    0 -0.56986412934E+02 -0.56098692773E+02 -0.10541535541E+04  0.10713107386E+04  0.17341415294E+03 0.  0.
         24    2    3    3    0    0 -0.52367986098E+02  0.17285143737E+02 -0.82009190440E+03  0.82592642129E+03  0.81009502841E+02 0.  0.
         -6    2    1    2    0  503  0.56986412934E+02  0.56098692773E+02 -0.59478125997E+03  0.62413157751E+03  0.17140876361E+03 0.  0.
        -24    2    5    5    0    0  0.84380232454E+02  0.97894907793E+01 -0.51313947804E+03  0.52624166948E+03  0.80014455036E+02 0.  0.
          2    1    4    4  501    0 -0.10068832205E+02  0.43885048814E+01 -0.65268203291E+03  0.65277444530E+03  0.00000000000E+00 0. -1.
         -1    1    4    4    0  501 -0.42299153893E+02  0.12896638856E+02 -0.16740987149E+03  0.17315197598E+03  0.00000000000E+00 0.  1.
          5    1    3    3  502    0 -0.46184268360E+01 -0.73383836510E+02 -0.23406164970E+03  0.24538431732E+03  0.47000000000E+01 0. -1.
         13    1    6    6    0    0  0.84635768088E+02 -0.19913700467E+02 -0.38879024718E+03  0.39839380644E+03  0.00000000000E+00 0. -1.
        -14    1    6    6    0    0 -0.25553563420E+00  0.29703191247E+02 -0.12434923085E+03  0.12784786303E+03  0.00000000000E+00 0.  1.
         -5    1    5    5    0  503 -0.27393819520E+02  0.46309201994E+02 -0.81641781932E+02  0.97889908030E+02  0.47000000000E+01 0.  1.
<mgrwt>
<rscale>  2 0.19050686E+03</rscale>
<asrwt>0</asrwt>
<pdfrwt beam="1">  1       21 0.35774984E-02 0.19096330E+03</pdfrwt>
<pdfrwt beam="2">  1       21 0.25725990E+00 0.19096330E+03</pdfrwt>
<totfact> 0.28512905E+04</totfact>
</mgrwt>
</event>
<event>
12    1  0.1473662E-001  0.1946659E+03  0.7546771E-02  0.1154937E+00
         21   -1    0    0  504  503  0.00000000000E+00  0.00000000000E+00  0.80105194784E+03  0.80105194784E+03  0.00000000000E+00 0.  1.
         21   -1    0    0  502  504 -0.00000000000E+00 -0.00000000000E+00 -0.49040644446E+02  0.49040644446E+02  0.00000000000E+00 0. -1.
          6    2    1    2  502    0  0.54018177033E+02 -0.63245239178E+02  0.47289523073E+03  0.51139485241E+03  0.17600247752E+03 0.  0.
         24    2    3    3    0    0  0.61840450410E+02 -0.10871779275E+03  0.36310869523E+03  0.39221383686E+03  0.79623925462E+02 0.  0.
         -6    2    1    2    0  503 -0.54018177033E+02  0.63245239178E+02  0.27911607267E+03  0.33869773988E+03  0.17289434129E+03 0.  0.
        -24    2    5    5    0    0 -0.59446913802E+02 -0.23443066140E+02  0.17046252084E+03  0.19951434365E+03  0.81639386330E+02 0.  0.
          2    1    4    4  501    0 -0.15392282423E+02 -0.19141100317E+02  0.30249262697E+02  0.38965651198E+02  0.00000000000E+00 0. -1.
         -1    1    4    4    0  501  0.77232732833E+02 -0.89576692435E+02  0.33285943253E+03  0.35324818566E+03  0.00000000000E+00 0.  1.
          5    1    3    3  502    0 -0.78222733769E+01  0.45472553575E+02  0.10978653551E+03  0.11918101555E+03  0.47000000000E+01 0. -1.
         11    1    6    6    0    0 -0.33017445947E+02  0.19349269161E+01  0.94675944359E+01  0.34402485716E+02  0.00000000000E+00 0. -1.
        -12    1    6    6    0    0 -0.26429467855E+02 -0.25377993056E+02  0.16099492641E+03  0.16511185794E+03  0.00000000000E+00 0.  1.
         -5    1    5    5    0  503  0.54287367689E+01  0.86688305318E+02  0.10865355182E+03  0.13918339623E+03  0.47000000000E+01 0.  1.
<mgrwt>
<rscale>  2 0.19396065E+03</rscale>
<asrwt>0</asrwt>
<pdfrwt beam="1">  1       21 0.12323875E+00 0.19466586E+03</pdfrwt>
<pdfrwt beam="2">  1       21 0.75447151E-02 0.19466586E+03</pdfrwt>
<totfact> 0.65603365E+04</totfact>
</mgrwt>
</event>
<event>
12    1  0.1473662E-001  0.1884064E+03  0.7546771E-02  0.1160647E+00
         21   -1    0    0  504  503  0.00000000000E+00  0.00000000000E+00  0.27739293605E+03  0.27739293605E+03  0.00000000000E+00 0. -1.
         21   -1    0    0  502  504 -0.00000000000E+00 -0.00000000000E+00 -0.32040031470E+03  0.32040031470E+03  0.00000000000E+00 0. -1.
          6    2    1    2  502    0 -0.18365245823E+02 -0.71519357321E+02 -0.25437517436E+03  0.31464433187E+03  0.16982940124E+03 0.  0.
         24    2    3    3    0    0  0.34763481678E+02 -0.30535010649E+02 -0.22128205311E+03  0.23968018690E+03  0.79623855915E+02 0.  0.
         -6    2    1    2    0  503  0.18365245823E+02  0.71519357321E+02  0.21136779571E+03  0.28314891888E+03  0.17333396803E+03 0.  0.
        -24    2    5    5    0    0  0.58353007480E+02  0.72856118116E+02  0.20984131612E+03  0.24283480036E+03  0.78881397602E+02 0.  0.
          4    1    4    4  501    0  0.11556981495E+02 -0.20171325306E+02 -0.21097866730E+03  0.21225561063E+03  0.00000000000E+00 0. -1.
         -3    1    4    4    0  501  0.23206500183E+02 -0.10363685342E+02 -0.10303385804E+02  0.27424576271E+02  0.00000000000E+00 0.  1.
          5    1    3    3  502    0 -0.53128727500E+02 -0.40984346672E+02 -0.33093121247E+02  0.74964144975E+02  0.47000000000E+01 0. -1.
         13    1    6    6    0    0  0.30246183192E+01  0.23751065637E+02  0.13678542654E+03  0.13886509406E+03  0.00000000000E+00 0. -1.
        -14    1    6    6    0    0  0.55328389161E+02  0.49105052479E+02  0.73055889577E+02  0.10396970630E+03  0.00000000000E+00 0.  1.
         -5    1    5    5    0  503 -0.39987761657E+02 -0.13367607947E+01  0.15264795895E+01  0.40314118516E+02  0.47000000000E+01 0.  1.
<mgrwt>
<rscale>  2 0.18759640E+03</rscale>
<asrwt>0</asrwt>
<pdfrwt beam="1">  1       21 0.42675837E-01 0.18840638E+03</pdfrwt>
<pdfrwt beam="2">  1       21 0.49292356E-01 0.18840638E+03</pdfrwt>
<totfact> 0.20783932E+04</totfact>
</mgrwt>
</event>
<event>
12    1  0.1473662E-001  0.2594135E+03  0.7546771E-02  0.1107724E+00
         21   -1    0    0  504  503  0.00000000000E+00  0.00000000000E+00  0.17886884070E+03  0.17886884070E+03  0.00000000000E+00 0. -1.
         21   -1    0    0  502  504 -0.00000000000E+00 -0.00000000000E+00 -0.37509153299E+03  0.37509153299E+03  0.00000000000E+00 0.  1.
          6    2    1    2  502    0  0.55993666879E+02 -0.18279021552E+03 -0.83187786631E+02  0.27098997462E+03  0.17311211650E+03 0.  0.
         24    2    3    3    0    0  0.29783756519E+02 -0.11415621585E+03 -0.12015642144E+03  0.18861063697E+03  0.84957006734E+02 0.  0.
         -6    2    1    2    0  503 -0.55993666879E+02  0.18279021552E+03 -0.11303490566E+03  0.28297039907E+03  0.17535051534E+03 0.  0.
        -24    2    5    5    0    0 -0.29915778478E+02  0.77868421266E+02 -0.12961063294E+03  0.17349216421E+03  0.79637742552E+02 0.  0.
          2    1    4    4  501    0  0.16980483974E+02 -0.12243081450E+03 -0.84202381006E+02  0.14955829012E+03  0.00000000000E+00 0. -1.
         -1    1    4    4    0  501  0.12803272545E+02  0.82745986511E+01 -0.35954040437E+02  0.39052346849E+02  0.00000000000E+00 0.  1.
          5    1    3    3  502    0  0.26209910360E+02 -0.68633999672E+02  0.36968634812E+02  0.82379337652E+02  0.47000000000E+01 0. -1.
         13    1    6    6    0    0  0.41015484882E+01  0.79724624857E+02 -0.77699703833E+02  0.11140054975E+03  0.00000000000E+00 0. -1.
        -14    1    6    6    0    0 -0.34017326966E+02 -0.18562035913E+01 -0.51910929104E+02  0.62091614459E+02  0.00000000000E+00 0.  1.
         -5    1    5    5    0  503 -0.26077888401E+02  0.10492179426E+03  0.16575727279E+02  0.10947823486E+03  0.47000000000E+01 0.  1.
<mgrwt>
<rscale>  2 0.25903572E+03</rscale>
<asrwt>0</asrwt>
<pdfrwt beam="1">  1       21 0.27518283E-01 0.25941349E+03</pdfrwt>
<pdfrwt beam="2">  1       21 0.57706390E-01 0.25941349E+03</pdfrwt>
<totfact> 0.34373587E+04</totfact>
</mgrwt>
</event>
<event>
12    1  0.1473662E-001  0.1908282E+03  0.7546771E-02  0.1157739E+00
         21   -1    0    0  504  503  0.00000000000E+00  0.00000000000E+00  0.70804352100E+03  0.70804352100E+03  0.00000000000E+00 0.  1.
         21   -1    0    0  502  504 -0.00000000000E+00 -0.00000000000E+00 -0.60778464627E+02  0.60778464627E+02  0.00000000000E+00 0.  1.
          6    2    1    2  502    0 -0.82268097294E+02 -0.78258251273E+01  0.17258762722E+03  0.25722247509E+03  0.17189423857E+03 0.  0.
         24    2    3    3    0    0 -0.31928623592E+02 -0.69679261554E+01  0.18549869979E+03  0.20503450332E+03  0.81002413093E+02 0.  0.
         -6    2    1    2    0  503  0.82268097294E+02  0.78258251273E+01  0.47467742915E+03  0.51159951053E+03  0.17200614542E+03 0.  0.
        -24    2    5    5    0    0  0.44526104150E+02  0.28839174931E+02  0.11743319125E+03  0.15172237257E+03  0.80092771018E+02 0.  0.
          2    1    4    4  501    0 -0.66219523831E+01  0.16849222286E+02  0.16217292440E+03  0.16318028053E+03  0.00000000000E+00 0. -1.
         -1    1    4    4    0  501 -0.25306671209E+02 -0.23817148441E+02  0.23325775389E+02  0.41854222786E+02  0.00000000000E+00 0.  1.
          5    1    3    3  502    0 -0.50339473702E+02 -0.85789897189E+00 -0.12911072569E+02  0.52187971776E+02  0.47000000000E+01 0. -1.
         11    1    6    6    0    0  0.44741056892E+01 -0.26248827539E+02  0.22360590801E+02  0.34770887102E+02  0.00000000000E+00 0. -1.
        -12    1    6    6    0    0  0.40051998461E+02  0.55088002470E+02  0.95072600447E+02  0.11695148547E+03  0.00000000000E+00 0.  1.
         -5    1    5    5    0  503  0.37741993144E+02 -0.21013349804E+02  0.35724423790E+03  0.35987713797E+03  0.47000000000E+01 0.  1.
<mgrwt>
<rscale>  2 0.19080297E+03</rscale>
<asrwt>0</asrwt>
<pdfrwt beam="1">  1       21 0.10892977E+00 0.19082819E+03</pdfrwt>
<pdfrwt beam="2">  1       21 0.93505335E-02 0.19082819E+03</pdfrwt>
<totfact> 0.61137959E+04</totfact>
</mgrwt>
</event>
<event>
12    1  0.1473662E-001  0.2137682E+03  0.7546771E-02  0.1138986E+00
         21   -1    0    0  504  503  0.00000000000E+00  0.00000000000E+00  0.56291211401E+03  0.56291211401E+03  0.00000000000E+00 0. -1.
         21   -1    0    0  502  504 -0.00000000000E+00 -0.00000000000E+00 -0.77532143994E+03  0.77532143994E+03  0.00000000000E+00 0. -1.
          6    2    1    2  502    0  0.12078951876E+03  0.16984662291E+02 -0.73970067520E+03  0.76997008753E+03  0.17555130363E+03 0.  0.
         24    2    3    3    0    0  0.33075881084E+02  0.32728559104E+02 -0.57595449144E+03  0.58348562379E+03  0.81035328515E+02 0.  0.
         -6    2    1    2    0  503 -0.12078951876E+03 -0.16984662291E+02  0.52729134928E+03  0.56826346642E+03  0.17322994443E+03 0.  0.
        -24    2    5    5    0    0 -0.59163873098E+02  0.50015274208E+02  0.37330787092E+03  0.38932293635E+03  0.78814280073E+02 0.  0.
          4    1    4    4  501    0  0.19381232216E+02  0.51363085486E+02 -0.52071371323E+03  0.52359962744E+03  0.00000000000E+00 0. -1.
         -3    1    4    4    0  501  0.13694648868E+02 -0.18634526382E+02 -0.55240778217E+02  0.59885996353E+02  0.00000000000E+00 0.  1.
          5    1    3    3  502    0  0.87713637674E+02 -0.15743896813E+02 -0.16374618376E+03  0.18648446374E+03  0.47000000000E+01 0. -1.
         11    1    6    6    0    0 -0.17759994667E+02  0.28106620745E+02  0.30312817220E+03  0.30494604166E+03  0.00000000000E+00 0. -1.
        -12    1    6    6    0    0 -0.41403878431E+02  0.21908653463E+02  0.70179698715E+02  0.84376894689E+02  0.00000000000E+00 0.  1.
         -5    1    5    5    0  503 -0.61625645660E+02 -0.66999936499E+02  0.15398347836E+03  0.17894053007E+03  0.47000000000E+01 0.  1.
<mgrwt>
<rscale>  2 0.21329106E+03</rscale>
<asrwt>0</asrwt>
<pdfrwt beam="1">  1       21 0.86601864E-01 0.21376821E+03</pdfrwt>
<pdfrwt beam="2">  1       21 0.11928022E+00 0.21376821E+03</pdfrwt>
<totfact> 0.60186912E+02</totfact>
</mgrwt>
</event>
<event>
12    1  0.1473662E-001  0.1992352E+03  0.7546771E-02  0.1151356E+00
         21   -1    0    0  504  503  0.00000000000E+00  0.00000000000E+00  0.26705133452E+03  0.26705133452E+03  0.00000000000E+00 0. -1.
         21   -1    0    0  502  504 -0.00000000000E+00 -0.00000000000E+00 -0.42670329504E+03  0.42670329504E+03  0.00000000000E+00 0. -1.
          6    2    1    2  502    0  0.77364535976E+01  0.10264573934E+03 -0.36120779266E+03  0.41034782084E+03  0.16528237677E+03 0.  0.
         24    2    3    3    0    0  0.19886539658E+02  0.11798113524E+03 -0.36224999730E+03  0.39019899583E+03  0.81946159585E+02 0.  0.
         -6    2    1    2    0  503 -0.77364535976E+01 -0.10264573934E+03  0.20155583215E+03  0.28340680872E+03  0.17058330879E+03 0.  0.
        -24    2    5    5    0    0  0.35242466866E+02 -0.12110392200E+03  0.16608813949E+03  0.22451759635E+03  0.83154612606E+02 0.  0.
          4    1    4    4  501    0  0.32477875893E+02  0.10249840687E+03 -0.20312155769E+03  0.22982406974E+03  0.00000000000E+00 0. -1.
         -3    1    4    4    0  501 -0.12591336235E+02  0.15482728376E+02 -0.15912843961E+03  0.16037492610E+03  0.00000000000E+00 0.  1.
          5    1    3    3  502    0 -0.12150086060E+02 -0.15335395903E+02  0.10422046410E+01  0.20148825010E+02  0.47000000000E+01 0. -1.
         11    1    6    6    0    0 -0.83200726529E+00 -0.90831396532E+02  0.14883292103E+03  0.17436247651E+03  0.00000000000E+00 0. -1.
        -12    1    6    6    0    0  0.36074474131E+02 -0.30272525465E+02  0.17255218454E+02  0.50155119836E+02  0.00000000000E+00 0.  1.
         -5    1    5    5    0  503 -0.42978920464E+02  0.18458182655E+02  0.35467692660E+02  0.58889212372E+02  0.47000000000E+01 0.  1.
<mgrwt>
<rscale>  2 0.19809563E+03</rscale>
<asrwt>0</asrwt>
<pdfrwt beam="1">  1       21 0.41084820E-01 0.19923520E+03</pdfrwt>
<pdfrwt beam="2">  1       21 0.65646661E-01 0.19923520E+03</pdfrwt>
<totfact> 0.12117379E+04</totfact>
</mgrwt>
</event>
<event>
12    1  0.1473662E-001  0.1815537E+03  0.7546771E-02  0.1167158E+00
         21   -1    0    0  504  503  0.00000000000E+00  0.00000000000E+00  0.31518979695E+03  0.31518979695E+03  0.00000000000E+00 0. -1.
         21   -1    0    0  502  504 -0.00000000000E+00 -0.00000000000E+00 -0.11709141874E+03  0.11709141874E+03  0.00000000000E+00 0.  1.
          6    2    1    2  502    0  0.23230383601E+02  0.34302618546E+02  0.22064744915E+02  0.17939868573E+03  0.17314940113E+03 0.  0.
         24    2    3    3    0    0 -0.39159555530E+02  0.38968174263E+02 -0.24454906247E+02  0.10129337311E+03  0.81303847402E+02 0.  0.
         -6    2    1    2    0  503 -0.23230383601E+02 -0.34302618546E+02  0.17603363329E+03  0.25288252995E+03  0.17676372237E+03 0.  0.
        -24    2    5    5    0    0 -0.84443311864E+02 -0.21413982010E+02  0.10745225852E+03  0.15993827514E+03  0.80280959440E+02 0.  0.
          4    1    4    4  501    0 -0.55966198531E+02  0.57478892218E+01  0.86893599041E+00  0.56267296526E+02  0.00000000000E+00 0. -1.
         -3    1    4    4    0  501  0.16806643001E+02  0.33220285042E+02 -0.25323842237E+02  0.45026076588E+02  0.00000000000E+00 0.  1.
          5    1    3    3  502    0  0.62389939131E+02 -0.46655557174E+01  0.46519651162E+02  0.78105312618E+02  0.47000000000E+01 0. -1.
         11    1    6    6    0    0 -0.50496886675E+00  0.22217812254E+02  0.10853932785E+02  0.24732448965E+02  0.00000000000E+00 0. -1.
        -12    1    6    6    0    0 -0.83938342997E+02 -0.43631794265E+02  0.96598325739E+02  0.13520582617E+03  0.00000000000E+00 0.  1.
         -5    1    5    5    0  503  0.61212928263E+02 -0.12888636536E+02  0.68581374766E+02  0.92944254815E+02  0.47000000000E+01 0.  1.
<mgrwt>
<rscale>  2 0.18066794E+03</rscale>
<asrwt>0</asrwt>
<pdfrwt beam="1">  1       21 0.48490737E-01 0.18155367E+03</pdfrwt>
<pdfrwt beam="2">  1       21 0.18014065E-01 0.18155367E+03</pdfrwt>
<totfact> 0.11431532E+05</totfact>
</mgrwt>
</event>
<event>
12    1  0.1473662E-001  0.2330577E+03  0.7546771E-02  0.1126963E+00
         21   -1    0    0  504  503  0.00000000000E+00  0.00000000000E+00  0.45247825698E+03  0.45247825698E+03  0.00000000000E+00 0.  1.
         21   -1    0    0  502  504 -0.00000000000E+00 -0.00000000000E+00 -0.11437741308E+03  0.11437741308E+03  0.00000000000E+00 0. -1.
          6    2    1    2  502    0  0.14896272617E+02  0.15655808004E+03  0.13359564547E+03  0.25679397866E+03  0.15284966348E+03 0.  0.
         24    2    3    3    0    0  0.10495793787E+02  0.10131883295E+03  0.15045915990E+03  0.19868023888E+03  0.80375437330E+02 0.  0.
         -6    2    1    2    0  503 -0.14896272617E+02 -0.15655808004E+03  0.20450519843E+03  0.31006169139E+03  0.17199867709E+03 0.  0.
        -24    2    5    5    0    0 -0.48491636261E+02 -0.16818318297E+03  0.19279959863E+03  0.27234031094E+03  0.79752980559E+02 0.  0.
          2    1    4    4  501    0  0.13718487014E+02  0.96758409466E+02  0.75448452942E+02  0.12346196070E+03  0.00000000000E+00 0. -1.
         -1    1    4    4    0  501 -0.32226932268E+01  0.45604234809E+01  0.75010706957E+02  0.75218278178E+02  0.00000000000E+00 0.  1.
          5    1    3    3  502    0  0.44004788301E+01  0.55239247090E+02 -0.16863514428E+02  0.58113739786E+02  0.47000000000E+01 0. -1.
         11    1    6    6    0    0 -0.16079063388E+02 -0.53019245402E+02  0.13895808232E+02  0.57119787717E+02  0.00000000000E+00 0. -1.
        -12    1    6    6    0    0 -0.32412572873E+02 -0.11516393757E+03  0.17890379040E+03  0.21522052322E+03  0.00000000000E+00 0.  1.
         -5    1    5    5    0  503  0.33595363644E+02  0.11625102937E+02  0.11705599802E+02  0.37721380455E+02  0.47000000000E+01 0.  1.
<mgrwt>
<rscale>  2 0.22954109E+03</rscale>
<asrwt>0</asrwt>
<pdfrwt beam="1">  1       21 0.69612039E-01 0.23305767E+03</pdfrwt>
<pdfrwt beam="2">  1       21 0.17596525E-01 0.23305767E+03</pdfrwt>
<totfact> 0.53904946E+04</totfact>
</mgrwt>
</event>
<event>
12    1  0.1473662E-001  0.2123350E+03  0.7546771E-02  0.1142637E+00
         21   -1    0    0  504  503  0.00000000000E+00  0.00000000000E+00  0.49611502489E+02  0.49611502489E+02  0.00000000000E+00 0.  1.
         21   -1    0    0  502  504 -0.00000000000E+00 -0.00000000000E+00 -0.85662386391E+03  0.85662386391E+03  0.00000000000E+00 0. -1.
          6    2    1    2  502    0  0.56563498819E+02 -0.79401686673E+02 -0.34518191336E+03  0.39793083114E+03  0.17232044517E+03 0.  0.
         24    2    3    3    0    0  0.36310873515E+02 -0.87266902289E+01 -0.69814342838E+02  0.11287905892E+03  0.80454986294E+02 0.  0.
         -6    2    1    2    0  503 -0.56563498819E+02  0.79401686673E+02 -0.46183044807E+03  0.50830453526E+03  0.18863213023E+03 0.  0.
        -24    2    5    5    0    0 -0.37473693525E+02  0.12174798738E+03 -0.41981796997E+03  0.44549714584E+03  0.77419176552E+02 0.  0.
          2    1    4    4  501    0 -0.97285790112E+00  0.24933315140E+02 -0.55181560441E+02  0.60560888939E+02  0.00000000000E+00 0. -1.
         -1    1    4    4    0  501  0.37283731416E+02 -0.33660005369E+02 -0.14632782397E+02  0.52318169983E+02  0.00000000000E+00 0.  1.
          5    1    3    3  502    0  0.20252625304E+02 -0.70674996444E+02 -0.27536757052E+03  0.28505177222E+03  0.47000000000E+01 0. -1.
         13    1    6    6    0    0  0.91622078576E+01 -0.66205749553E+01 -0.19716810002E+02  0.22727310932E+02  0.00000000000E+00 0. -1.
        -14    1    6    6    0    0 -0.46635901382E+02  0.12836856234E+03 -0.40010115997E+03  0.42276983490E+03  0.00000000000E+00 0.  1.
         -5    1    5    5    0  503 -0.19089805295E+02 -0.42346300712E+02 -0.42012478096E+02  0.62807389422E+02  0.47000000000E+01 0.  1.
<mgrwt>
<rscale>  2 0.20865302E+03</rscale>
<asrwt>0</asrwt>
<pdfrwt beam="1">  1       21 0.76325400E-02 0.21233497E+03</pdfrwt>
<pdfrwt beam="2">  1       21 0.13178827E+00 0.21233497E+03</pdfrwt>
<totfact> 0.53816429E+04</totfact>
</mgrwt>
</event>
<event>
12    1  0.1473662E-001  0.2338813E+03  0.7546771E-02  0.1123938E+00
         21   -1    0    0  504  503  0.00000000000E+00  0.00000000000E+00  0.87538860736E+02  0.87538860736E+02  0.00000000000E+00 0. -1.
         21   -1    0    0  502  504 -0.00000000000E+00 -0.00000000000E+00 -0.69559116608E+03  0.69559116608E+03  0.00000000000E+00 0.  1.
          6    2    1    2  502    0  0.15144029794E+03 -0.41911772840E+02 -0.42888680513E+03  0.48851036888E+03  0.17322738914E+03 0.  0.
         24    2    3    3    0    0  0.55372488537E+02 -0.83788717663E+02 -0.24962947798E+03  0.28081351804E+03  0.80341109927E+02 0.  0.
         -6    2    1    2    0  503 -0.15144029794E+03  0.41911772840E+02 -0.17916550021E+03  0.29461965793E+03  0.17323309681E+03 0.  0.
        -24    2    5    5    0    0 -0.22966229922E+02 -0.22423895875E+02 -0.42094746682E+02  0.95986463584E+02  0.80069686337E+02 0.  0.
          4    1    4    4  501    0  0.64601849409E+02 -0.47238245324E+02 -0.21580134602E+03  0.23016314152E+03  0.00000000000E+00 0. -1.
         -3    1    4    4    0  501 -0.92293608720E+01 -0.36550472339E+02 -0.33828131958E+02  0.50650376525E+02  0.00000000000E+00 0.  1.
          5    1    3    3  502    0  0.96067809408E+02  0.41876944823E+02 -0.17925732715E+03  0.20769685084E+03  0.47000000000E+01 0. -1.
         13    1    6    6    0    0  0.22243516395E+02 -0.15823541944E+02  0.77436595223E+01  0.28374685268E+02  0.00000000000E+00 0. -1.
        -14    1    6    6    0    0 -0.45209746317E+02 -0.66003539314E+01 -0.49838406204E+02  0.67611778316E+02  0.00000000000E+00 0.  1.
         -5    1    5    5    0  503 -0.12847406802E+03  0.64335668715E+02 -0.13707075353E+03  0.19863319434E+03  0.47000000000E+01 0.  1.
<mgrwt>
<rscale>  2 0.23388025E+03</rscale>
<asrwt>0</asrwt>
<pdfrwt beam="1">  1       21 0.13467517E-01 0.23388131E+03</pdfrwt>
<pdfrwt beam="2">  1       21 0.10701403E+00 0.23388131E+03</pdfrwt>
<totfact> 0.32560249E+04</totfact>
</mgrwt>
</event>
<event>
12    1  0.1473662E-001  0.1850773E+03  0.7546771E-02  0.1163050E+00
         21   -1    0    0  504  503  0.00000000000E+00  0.00000000000E+00  0.80088335185E+03  0.80088335185E+03  0.00000000000E+00 0. -1.
         21   -1    0    0  502  504 -0.00000000000E+00 -0.00000000000E+00 -0.89505494803E+02  0.89505494803E+02  0.00000000000E+00 0. -1.
          6    2    1    2  502    0  0.29734948577E+02  0.59853989363E+02  0.33600841564E+02  0.18779700169E+03  0.17225571132E+03 0.  0.
         24    2    3    3    0    0  0.55694824733E+02  0.40279060177E+02 -0.35085432964E+02  0.11165905234E+03  0.80699691278E+02 0.  0.
         -6    2    1    2    0  503 -0.29734948577E+02 -0.59853989363E+02  0.67777701549E+03  0.70259184497E+03  0.17258896455E+03 0.  0.
        -24    2    5    5    0    0  0.18155095076E+02 -0.88864454860E+02  0.36052013636E+03  0.38039767875E+03  0.80629563219E+02 0.  0.
          4    1    4    4  501    0  0.43017362074E+02  0.37168138300E+02 -0.60542505554E+02  0.83050339694E+02  0.00000000000E+00 0. -1.
         -3    1    4    4    0  501  0.12677462659E+02  0.31109218771E+01  0.25457072590E+02  0.28608712646E+02  0.00000000000E+00 0.  1.
          5    1    3    3  502    0 -0.25959876156E+02  0.19574929185E+02  0.68686274529E+02  0.76137949350E+02  0.47000000000E+01 0. -1.
         13    1    6    6    0    0 -0.22993855338E+01 -0.97114862592E+02  0.31786968933E+03  0.33238189347E+03  0.00000000000E+00 0. -1.
        -14    1    6    6    0    0  0.20454480610E+02  0.82504077321E+01  0.42650447030E+02  0.48015785286E+02  0.00000000000E+00 0.  1.
         -5    1    5    5    0  503 -0.47890043653E+02  0.29010465497E+02  0.31725687913E+03  0.32219416621E+03  0.47000000000E+01 0.  1.
<mgrwt>
<rscale>  2 0.18499960E+03</rscale>
<asrwt>0</asrwt>
<pdfrwt beam="1">  1       21 0.12321282E+00 0.18507733E+03</pdfrwt>
<pdfrwt beam="2">  1       21 0.13770077E-01 0.18507733E+03</pdfrwt>
<totfact> 0.22763213E+04</totfact>
</mgrwt>
</event>
<event>
12    1  0.1473662E-001  0.1988558E+03  0.7546771E-02  0.1150747E+00
         21   -1    0    0  504  503  0.00000000000E+00  0.00000000000E+00  0.14519897309E+03  0.14519897309E+03  0.00000000000E+00 0.  1.
         21   -1    0    0  502  504 -0.00000000000E+00 -0.00000000000E+00 -0.59567324271E+03  0.59567324271E+03  0.00000000000E+00 0.  1.
          6    2    1    2  502    0  0.93999875586E+01  0.97233930347E+02 -0.49831133488E+03  0.53652380988E+03  0.17320743380E+03 0.  0.
         24    2    3    3    0    0  0.72592353579E+02  0.49431694491E+02 -0.27449736794E+03  0.29905147324E+03  0.79811254962E+02 0.  0.
         -6    2    1    2    0  503 -0.93999875586E+01 -0.97233930347E+02  0.47837065259E+02  0.20434840592E+03  0.17299447741E+03 0.  0.
        -24    2    5    5    0    0  0.76084080076E+01 -0.32636450835E+02  0.90059370630E+02  0.12518444348E+03  0.80233589319E+02 0.  0.
          2    1    4    4  501    0  0.44546736608E+02  0.47419668826E+02 -0.82803810739E+02  0.10530673201E+03  0.00000000000E+00 0. -1.
         -1    1    4    4    0  501  0.28045616971E+02  0.20120256646E+01 -0.19169355720E+03  0.19374474123E+03  0.00000000000E+00 0.  1.
          5    1    3    3  502    0 -0.63192366020E+02  0.47802235855E+02 -0.22381396694E+03  0.23747233665E+03  0.47000000000E+01 0. -1.
         13    1    6    6    0    0  0.25678692749E+02 -0.13645781012E+01 -0.24920632548E+01  0.25835396532E+02  0.00000000000E+00 0. -1.
        -14    1    6    6    0    0 -0.18070284741E+02 -0.31271872734E+02  0.92551433885E+02  0.99349046946E+02  0.00000000000E+00 0.  1.
         -5    1    5    5    0  503 -0.17008395566E+02 -0.64597479511E+02 -0.42222305370E+02  0.79163962443E+02  0.47000000000E+01 0.  1.
<mgrwt>
<rscale>  2 0.19880938E+03</rscale>
<asrwt>0</asrwt>
<pdfrwt beam="1">  1       21 0.22338304E-01 0.19885576E+03</pdfrwt>
<pdfrwt beam="2">  1       21 0.91642036E-01 0.19885576E+03</pdfrwt>
<totfact> 0.18822065E+04</totfact>
</mgrwt>
</event>
<event>
12    1  0.1473662E-001  0.3475181E+03  0.7546771E-02  0.1063669E+00
         21   -1    0    0  504  503  0.00000000000E+00  0.00000000000E+00  0.11419193970E+04  0.11419193970E+04  0.00000000000E+00 0. -1.
         21   -1    0    0  502  504 -0.00000000000E+00 -0.00000000000E+00 -0.14527367823E+03  0.14527367823E+03  0.00000000000E+00 0.  1.
          6    2    1    2  502    0  0.29516916585E+03  0.60877688220E+02  0.83451034874E+03  0.90397806459E+03  0.17302569090E+03 0.  0.
         24    2    3    3    0    0  0.11408585158E+03  0.89701388340E+02  0.38166219069E+03  0.41539284516E+03  0.76310336164E+02 0.  0.
         -6    2    1    2    0  503 -0.29516916585E+03 -0.60877688220E+02  0.16213537000E+03  0.38321501062E+03  0.17243821146E+03 0.  0.
        -24    2    5    5    0    0 -0.20960768234E+03 -0.10838676595E+03  0.13030530215E+03  0.28019499729E+03  0.76463672486E+02 0.  0.
          2    1    4    4  501    0  0.56472238384E+02  0.33276173741E+02  0.81507546450E+02  0.10459396529E+03  0.00000000000E+00 0. -1.
         -1    1    4    4    0  501  0.57613613196E+02  0.56425214599E+02  0.30015464424E+03  0.31079887986E+03  0.00000000000E+00 0.  1.
          5    1    3    3  502    0  0.18108331427E+03 -0.28823700120E+02  0.45284815805E+03  0.48858521943E+03  0.47000000000E+01 0. -1.
         13    1    6    6    0    0 -0.37338086850E+02 -0.14590070086E+02  0.59321718938E+02  0.71596572631E+02  0.00000000000E+00 0. -1.
        -14    1    6    6    0    0 -0.17226959549E+03 -0.93796695868E+02  0.70983583208E+02  0.20859842466E+03  0.00000000000E+00 0.  1.
         -5    1    5    5    0  503 -0.85561483509E+02  0.47509077735E+02  0.31830067853E+02  0.10302001333E+03  0.47000000000E+01 0.  1.
<mgrwt>
<rscale>  2 0.34744503E+03</rscale>
<asrwt>0</asrwt>
<pdfrwt beam="1">  1       21 0.17567990E+00 0.34751808E+03</pdfrwt>
<pdfrwt beam="2">  1       21 0.22349797E-01 0.34751808E+03</pdfrwt>
<totfact> 0.32796741E+03</totfact>
</mgrwt>
</event>
<event>
12    1  0.1473662E-001  0.1877258E+03  0.7546771E-02  0.1162097E+00
         21   -1    0    0  504  503  0.00000000000E+00  0.00000000000E+00  0.34190554698E+03  0.34190554698E+03  0.00000000000E+00 0. -1.
         21   -1    0    0  502  504 -0.00000000000E+00 -0.00000000000E+00 -0.16213947795E+03  0.16213947795E+03  0.00000000000E+00 0. -1.
          6    2    1    2  502    0  0.42931641294E+02 -0.38055528344E+02 -0.67851200068E+02  0.19331157256E+03  0.17168060367E+03 0.  0.
         24    2    3    3    0    0  0.26942328531E+02 -0.42520424712E+02  0.22510556081E+02  0.10131738581E+03  0.84997717310E+02 0.  0.
         -6    2    1    2    0  503 -0.42931641294E+02  0.38055528344E+02  0.24761726910E+03  0.31073345237E+03  0.17874455908E+03 0.  0.
        -24    2    5    5    0    0 -0.31460528431E+02  0.23467898377E+02  0.26816493896E+03  0.28264996762E+03  0.80237538629E+02 0.  0.
          2    1    4    4  501    0  0.32432815923E+02 -0.41170195072E+02 -0.21715584256E+02  0.56731288638E+02  0.00000000000E+00 0. -1.
         -1    1    4    4    0  501 -0.54904873914E+01 -0.13502296402E+01  0.44226140337E+02  0.44586097172E+02  0.00000000000E+00 0.  1.
          5    1    3    3  502    0  0.15989312763E+02  0.44648963687E+01 -0.90361756149E+02  0.91994186755E+02  0.47000000000E+01 0. -1.
         11    1    6    6    0    0 -0.31948981705E+02  0.51721875753E+02  0.17253253243E+03  0.18292994455E+03  0.00000000000E+00 0. -1.
        -12    1    6    6    0    0  0.48845327354E+00 -0.28253977376E+02  0.95632406529E+02  0.99720023078E+02  0.00000000000E+00 0.  1.
         -5    1    5    5    0  503 -0.11471112863E+02  0.14587629966E+02 -0.20547669866E+02  0.28083484742E+02  0.47000000000E+01 0.  1.
<mgrwt>
<rscale>  2 0.18602451E+03</rscale>
<asrwt>0</asrwt>
<pdfrwt beam="1">  1       21 0.52600853E-01 0.18772577E+03</pdfrwt>
<pdfrwt beam="2">  1       21 0.24944535E-01 0.18772577E+03</pdfrwt>
<totfact> 0.52243618E+04</totfact>
</mgrwt>
</event>
<event>
12    1  0.1473662E-001  0.1759920E+03  0.7546771E-02  0.1172156E+00
         21   -1    0    0  504  503  0.00000000000E+00  0.00000000000E+00  0.19791609124E+03  0.19791609124E+03  0.00000000000E+00 0. -1.
         21   -1    0    0  502  504 -0.00000000000E+00 -0.00000000000E+00 -0.32051858453E+03  0.32051858453E+03  0.00000000000E+00 0. -1.
          6    2    1    2  502    0 -0.14112172555E+02 -0.20778144102E+02 -0.24742465841E+03  0.30267149589E+03  0.17251141454E+03 0.  0.
         24    2    3    3    0    0 -0.24449525454E+02 -0.22943194959E+02 -0.40992161585E+02  0.95915567181E+02  0.79970427199E+02 0.  0.
         -6    2    1    2    0  503  0.14112172555E+02  0.20778144102E+02  0.12482216511E+03  0.21576317988E+03  0.17419039067E+03 0.  0.
        -24    2    5    5    0    0  0.42193015852E+02  0.62938011834E+02  0.41610980103E+02  0.11823277684E+03  0.80660225223E+02 0.  0.
          4    1    4    4  501    0 -0.12680490234E+01  0.22493694577E+02  0.92166144633E+01  0.24341738357E+02  0.00000000000E+00 0. -1.
         -3    1    4    4    0  501 -0.23181476431E+02 -0.45436889537E+02 -0.50208776048E+02  0.71573828824E+02  0.00000000000E+00 0.  1.
          5    1    3    3  502    0  0.10337352899E+02  0.21650508573E+01 -0.20643249682E+03  0.20675592871E+03  0.47000000000E+01 0. -1.
         11    1    6    6    0    0 -0.21728573335E+02  0.47195798614E+01  0.17997032806E+02  0.28605917623E+02  0.00000000000E+00 0. -1.
        -12    1    6    6    0    0  0.63921589187E+02  0.58218431973E+02  0.23613947297E+02  0.89626859214E+02  0.00000000000E+00 0.  1.
         -5    1    5    5    0  503 -0.28080843297E+02 -0.42159867732E+02  0.83211185009E+02  0.97530403045E+02  0.47000000000E+01 0.  1.
<mgrwt>
<rscale>  2 0.17557509E+03</rscale>
<asrwt>0</asrwt>
<pdfrwt beam="1">  1       21 0.30448629E-01 0.17599198E+03</pdfrwt>
<pdfrwt beam="2">  1       21 0.49310552E-01 0.17599198E+03</pdfrwt>
<totfact> 0.40944635E+04</totfact>
</mgrwt>
</event>
<event>
12    1  0.1473662E-001  0.2199950E+03  0.7546771E-02  0.1133984E+00
         21   -1    0    0  504  503  0.00000000000E+00  0.00000000000E+00  0.13915624991E+04  0.13915624991E+04  0.00000000000E+00 0. -1.
         21   -1    0    0  502  504 -0.00000000000E+00 -0.00000000000E+00 -0.34349839280E+03  0.34349839280E+03  0.00000000000E+00 0. -1.
          6    2    1    2  502    0  0.46118474373E+02  0.12888504168E+03 -0.29857992622E+03  0.37056539981E+03  0.17155312749E+03 0.  0.
         24    2    3    3    0    0  0.14074393708E+02  0.38429131012E+02 -0.24477486618E+03  0.26044651239E+03  0.79011164003E+02 0.  0.
         -6    2    1    2    0  503 -0.46118474373E+02 -0.12888504168E+03  0.13466440325E+04  0.13644954921E+04  0.17221942391E+03 0.  0.
        -24    2    5    5    0    0 -0.52263454952E+02 -0.15468533112E+03  0.97450098510E+03  0.99137895070E+03  0.80752916571E+02 0.  0.
          4    1    4    4  501    0 -0.12601468920E+02  0.45497243341E+02 -0.76285739146E+02  0.89712374663E+02  0.00000000000E+00 0. -1.
         -3    1    4    4    0  501  0.26675862628E+02 -0.70681123288E+01 -0.16848912703E+03  0.17073413773E+03  0.00000000000E+00 0.  1.
          5    1    3    3  502    0  0.32044080665E+02  0.90455910670E+02 -0.53805060042E+02  0.11011888742E+03  0.47000000000E+01 0. -1.
         11    1    6    6    0    0 -0.67204977602E+02 -0.86273515763E+02  0.67494665663E+03  0.68374894357E+03  0.00000000000E+00 0. -1.
        -12    1    6    6    0    0  0.14941522650E+02 -0.68411815353E+02  0.29955432847E+03  0.30763000713E+03  0.00000000000E+00 0.  1.
         -5    1    5    5    0  503  0.61449805783E+01  0.25800289434E+02  0.37214304740E+03  0.37311654138E+03  0.47000000000E+01 0.  1.
<mgrwt>
<rscale>  2 0.21986458E+03</rscale>
<asrwt>0</asrwt>
<pdfrwt beam="1">  1       21 0.21408654E+00 0.21999499E+03</pdfrwt>
<pdfrwt beam="2">  1       21 0.52845907E-01 0.21999499E+03</pdfrwt>
<totfact> 0.35912268E+02</totfact>
</mgrwt>
</event>
<event>
12    1  0.1473662E-001  0.1797989E+03  0.7546771E-02  0.1169060E+00
         21   -1    0    0  504  503  0.00000000000E+00  0.00000000000E+00  0.85986573766E+03  0.85986573766E+03  0.00000000000E+00 0. -1.
         21   -1    0    0  502  504 -0.00000000000E+00 -0.00000000000E+00 -0.38216273172E+02  0.38216273172E+02  0.00000000000E+00 0. -1.
          6    2    1    2  502    0 -0.69331211859E+01 -0.36289307046E+02  0.49554047960E+03  0.52569147960E+03  0.17154061569E+03 0.  0.
         24    2    3    3    0    0 -0.13884486372E+02  0.14162080384E+01  0.10571985385E+03  0.13396167782E+03  0.81081804489E+02 0.  0.
         -6    2    1    2    0  503  0.69331211859E+01  0.36289307046E+02  0.32610898489E+03  0.37239053123E+03  0.17596208611E+03 0.  0.
        -24    2    5    5    0    0  0.27420779660E+02 -0.24865093244E+02  0.27944998961E+03  0.29264871871E+03  0.78618088545E+02 0.  0.
          2    1    4    4  501    0  0.17391002351E+02 -0.29135381979E+02  0.24946830517E+02  0.42114864343E+02  0.00000000000E+00 0. -1.
         -1    1    4    4    0  501 -0.31275488723E+02  0.30551590017E+02  0.80773023329E+02  0.91846813473E+02  0.00000000000E+00 0.  1.
          5    1    3    3  502    0  0.69513651863E+01 -0.37705515085E+02  0.38982062575E+03  0.39172980178E+03  0.47000000000E+01 0. -1.
         11    1    6    6    0    0  0.15919484684E+02  0.19703400889E+01  0.52200341143E+01  0.16868935616E+02  0.00000000000E+00 0. -1.
        -12    1    6    6    0    0  0.11501294976E+02 -0.26835433333E+02  0.27422995550E+03  0.27577978309E+03  0.00000000000E+00 0.  1.
         -5    1    5    5    0  503 -0.20487658474E+02  0.61154400290E+02  0.46658995282E+02  0.79741812528E+02  0.47000000000E+01 0.  1.
<mgrwt>
<rscale>  2 0.17870780E+03</rscale>
<asrwt>0</asrwt>
<pdfrwt beam="1">  1       21 0.13228702E+00 0.17979888E+03</pdfrwt>
<pdfrwt beam="2">  1       21 0.58794273E-02 0.17979888E+03</pdfrwt>
<totfact> 0.84948345E+04</totfact>
</mgrwt>
</event>
<event>
12    1  0.1473662E-001  0.2303489E+03  0.7546771E-02  0.1126549E+00
         21   -1    0    0  504  503  0.00000000000E+00  0.00000000000E+00  0.58586697155E+02  0.58586697155E+02  0.00000000000E+00 0.  1.
         21   -1    0    0  502  504 -0.00000000000E+00 -0.00000000000E+00 -0.15391523109E+04  0.15391523109E+04  0.00000000000E+00 0. -1.
          6    2    1    2  502    0  0.15104391653E+03 -0.18313990154E+02 -0.12533529830E+04  0.12741865716E+04  0.17177908053E+03 0.  0.
         24    2    3    3    0    0  0.13825930900E+03 -0.24624259015E+02 -0.12476230188E+04  0.12581183368E+04  0.81096002426E+02 0.  0.
         -6    2    1    2    0  503 -0.15104391653E+03  0.18313990154E+02 -0.22721263079E+03  0.32355243642E+03  0.17294777410E+03 0.  0.
        -24    2    5    5    0    0 -0.72363457014E+01  0.27930258307E+02 -0.10315010336E+03  0.13332443965E+03  0.79391424964E+02 0.  0.
          4    1    4    4  501    0  0.14780243967E+03 -0.25233234533E+02 -0.12117928501E+04  0.12210340654E+04  0.00000000000E+00 0. -1.
         -3    1    4    4    0  501 -0.95431306672E+01  0.60897551864E+00 -0.35830168665E+02  0.37084271338E+02  0.00000000000E+00 0.  1.
          5    1    3    3  502    0  0.12784607526E+02  0.63102688603E+01 -0.57299641542E+01  0.16068234872E+02  0.47000000000E+01 0. -1.
         11    1    6    6    0    0  0.11892431823E+02 -0.67978800448E+00 -0.97767276217E+02  0.98490265231E+02  0.00000000000E+00 0. -1.
        -12    1    6    6    0    0 -0.19128777524E+02  0.28610046312E+02 -0.53828271382E+01  0.34834174420E+02  0.00000000000E+00 0.  1.
         -5    1    5    5    0  503 -0.14380757082E+03 -0.96162681532E+01 -0.12406252743E+03  0.19022799676E+03  0.47000000000E+01 0.  1.
<mgrwt>
<rscale>  2 0.23012951E+03</rscale>
<asrwt>0</asrwt>
<pdfrwt beam="1">  1       21 0.90133368E-02 0.23034886E+03</pdfrwt>
<pdfrwt beam="2">  1       21 0.23679269E+00 0.23034886E+03</pdfrwt>
<totfact> 0.74990616E+03</totfact>
</mgrwt>
</event>
<event>
12    1  0.1473662E-001  0.2839040E+03  0.7546771E-02  0.1094501E+00
         21   -1    0    0  504  503  0.00000000000E+00  0.00000000000E+00  0.46665328598E+02  0.46665328598E+02  0.00000000000E+00 0. -1.
         21   -1    0    0  502  504 -0.00000000000E+00 -0.00000000000E+00 -0.16861853765E+04  0.16861853765E+04  0.00000000000E+00 0.  1.
          6    2    1    2  502    0 -0.16660059077E+03 -0.13888033872E+03 -0.80139930224E+03  0.84795078508E+03  0.17244183646E+03 0.  0.
         24    2    3    3    0    0 -0.97786857788E+02 -0.49733012088E+01 -0.32933161577E+03  0.35243447339E+03  0.78509500115E+02 0.  0.
         -6    2    1    2    0  503  0.16660059077E+03  0.13888033872E+03 -0.83812074571E+03  0.88489992006E+03  0.18318836974E+03 0.  0.
        -24    2    5    5    0    0  0.17565404587E+02  0.77026978645E+02 -0.23641749624E+03  0.26191820660E+03  0.80412782238E+02 0.  0.
          4    1    4    4  501    0 -0.80445165948E+02 -0.30752621670E+02 -0.17545194745E+03  0.19544956979E+03  0.00000000000E+00 0. -1.
         -3    1    4    4    0  501 -0.17341691840E+02  0.25779320461E+02 -0.15387966831E+03  0.15698490360E+03  0.00000000000E+00 0.  1.
          5    1    3    3  502    0 -0.68813732984E+02 -0.13390703751E+03 -0.47206768647E+03  0.49551631169E+03  0.47000000000E+01 0. -1.
         11    1    6    6    0    0  0.38234916536E+02  0.72160933997E+02 -0.22120128107E+03  0.23579464791E+03  0.00000000000E+00 0. -1.
        -12    1    6    6    0    0 -0.20669511949E+02  0.48660446483E+01 -0.15216215167E+02  0.26123558692E+02  0.00000000000E+00 0.  1.
         -5    1    5    5    0  503  0.14903518619E+03  0.61853360079E+02 -0.60170324947E+03  0.62298171345E+03  0.47000000000E+01 0.  1.
<mgrwt>
<rscale>  2 0.28218533E+03</rscale>
<asrwt>0</asrwt>
<pdfrwt beam="1">  1       21 0.71792826E-02 0.28390401E+03</pdfrwt>
<pdfrwt beam="2">  1       21 0.25941309E+00 0.28390401E+03</pdfrwt>
<totfact> 0.78589440E+03</totfact>
</mgrwt>
</event>
<event>
12    1  0.1473662E-001  0.1805697E+03  0.7546771E-02  0.1167432E+00
         21   -1    0    0  504  503  0.00000000000E+00  0.00000000000E+00  0.20516013959E+03  0.20516013959E+03  0.00000000000E+00 0. -1.
         21   -1    0    0  502  504 -0.00000000000E+00 -0.00000000000E+00 -0.17530851338E+03  0.17530851338E+03  0.00000000000E+00 0. -1.
          6    2    1    2  502    0  0.37720919070E+02 -0.32014773831E+02 -0.44397954013E+02  0.18522923026E+03  0.17288977975E+03 0.  0.
         24    2    3    3    0    0 -0.12275740604E+02  0.29387328663E+02 -0.57318303856E+02  0.10486188857E+03  0.81831038271E+02 0.  0.
         -6    2    1    2    0  503 -0.37720919070E+02  0.32014773831E+02  0.74249580228E+02  0.19523942271E+03  0.17365949020E+03 0.  0.
        -24    2    5    5    0    0 -0.86395567974E+02  0.28495371375E+02  0.20959921588E+02  0.12282750824E+03  0.79819158805E+02 0.  0.
          4    1    4    4  501    0  0.10473996868E+02  0.52703137738E+02 -0.26079344399E+02  0.59728197211E+02  0.00000000000E+00 0. -1.
         -3    1    4    4    0  501 -0.22749737472E+02 -0.23315809075E+02 -0.31238959457E+02  0.45133691360E+02  0.00000000000E+00 0.  1.
          5    1    3    3  502    0  0.49996659674E+02 -0.61402102494E+02  0.12920349843E+02  0.80367341684E+02  0.47000000000E+01 0. -1.
         13    1    6    6    0    0 -0.38527312508E+02  0.43076814456E+02  0.38904675131E+02  0.69667348879E+02  0.00000000000E+00 0. -1.
        -14    1    6    6    0    0 -0.47868255465E+02 -0.14581443081E+02 -0.17944753543E+02  0.53160159362E+02  0.00000000000E+00 0.  1.
         -5    1    5    5    0  503  0.48674648903E+02  0.35194024564E+01  0.53289658640E+02  0.72411914472E+02  0.47000000000E+01 0.  1.
<mgrwt>
<rscale>  2 0.18038443E+03</rscale>
<asrwt>0</asrwt>
<pdfrwt beam="1">  1       21 0.31563098E-01 0.18056974E+03</pdfrwt>
<pdfrwt beam="2">  1       21 0.26970541E-01 0.18056974E+03</pdfrwt>
<totfact> 0.12689590E+05</totfact>
</mgrwt>
</event>
<event>
12    1  0.1473662E-001  0.2022824E+03  0.7546771E-02  0.1148049E+00
         21   -1    0    0  504  503  0.00000000000E+00  0.00000000000E+00  0.93837294037E+03  0.93837294037E+03  0.00000000000E+00 0.  1.
         21   -1    0    0  502  504 -0.00000000000E+00 -0.00000000000E+00 -0.19569052344E+03  0.19569052344E+03  0.00000000000E+00 0. -1.
          6    2    1    2  502    0 -0.31404006579E+02  0.98968922394E+02 -0.12913094471E+03  0.23909045075E+03  0.17236120077E+03 0.  0.
         24    2    3    3    0    0 -0.81745471217E+02  0.33172879756E+02 -0.70169186307E+02  0.13729673168E+03  0.78383134712E+02 0.  0.
         -6    2    1    2    0  503  0.31404006579E+02 -0.98968922394E+02  0.87181336164E+03  0.89497301305E+03  0.17360039554E+03 0.  0.
        -24    2    5    5    0    0  0.55459673590E+02 -0.73776212352E+02  0.34800079903E+03  0.36998250028E+03  0.85227868005E+02 0.  0.
          2    1    4    4  501    0 -0.92221340343E+02  0.16681173425E+02 -0.41245363546E+02  0.10239246640E+03  0.00000000000E+00 0. -1.
         -1    1    4    4    0  501  0.10475869126E+02  0.16491706330E+02 -0.28923822761E+02  0.34904265280E+02  0.00000000000E+00 0.  1.
          5    1    3    3  502    0  0.50341464638E+02  0.65796042638E+02 -0.58961758403E+02  0.10179371907E+03  0.47000000000E+01 0. -1.
         13    1    6    6    0    0 -0.22054831562E+01 -0.29669166593E+02  0.24811381337E+02  0.38739233938E+02  0.00000000000E+00 0. -1.
        -14    1    6    6    0    0  0.57665156747E+02 -0.44107045759E+02  0.32318941770E+03  0.33124326634E+03  0.00000000000E+00 0.  1.
         -5    1    5    5    0  503 -0.24055667012E+02 -0.25192710042E+02  0.52381256260E+03  0.52499051277E+03  0.47000000000E+01 0.  1.
<mgrwt>
<rscale>  2 0.20201622E+03</rscale>
<asrwt>0</asrwt>
<pdfrwt beam="1">  1       21 0.14436506E+00 0.20228237E+03</pdfrwt>
<pdfrwt beam="2">  1       21 0.30106235E-01 0.20228237E+03</pdfrwt>
<totfact> 0.34675250E+03</totfact>
</mgrwt>
</event>
<event>
12    1  0.1473662E-001  0.2533249E+03  0.7546771E-02  0.1111451E+00
         21   -1    0    0  504  503  0.00000000000E+00  0.00000000000E+00  0.76223955504E+03  0.76223955504E+03  0.00000000000E+00 0.  1.
         21   -1    0    0  502  504 -0.00000000000E+00 -0.00000000000E+00 -0.84289464837E+02  0.84289464837E+02  0.00000000000E+00 0.  1.
          6    2    1    2  502    0 -0.12124413161E+03 -0.13932295790E+03  0.30265575785E+03  0.39373838347E+03  0.17122611018E+03 0.  0.
         24    2    3    3    0    0 -0.13524924100E+03 -0.13459011696E+03  0.19098405469E+03  0.28099441618E+03  0.77949316890E+02 0.  0.
         -6    2    1    2    0  503  0.12124413161E+03  0.13932295790E+03  0.37529433235E+03  0.45279063641E+03  0.17338540447E+03 0.  0.
        -24    2    5    5    0    0  0.56339594597E+02  0.11137739334E+03  0.34550041521E+03  0.37595756410E+03  0.79965488959E+02 0.  0.
          4    1    4    4  501    0 -0.54905569255E+02 -0.55151046656E+02  0.28058071265E+02  0.82725539258E+02  0.00000000000E+00 0. -1.
         -3    1    4    4    0  501 -0.80343671745E+02 -0.79439070301E+02  0.16292598343E+03  0.19826887692E+03  0.00000000000E+00 0.  1.
          5    1    3    3  502    0  0.14005109393E+02 -0.47328409383E+01  0.11167170317E+03  0.11274396729E+03  0.47000000000E+01 0. -1.
         11    1    6    6    0    0 -0.20502462529E+02  0.27209556917E+02  0.87912145940E+02  0.94282852954E+02  0.00000000000E+00 0. -1.
        -12    1    6    6    0    0  0.76842057126E+02  0.84167836425E+02  0.25758826927E+03  0.28167471114E+03  0.00000000000E+00 0.  1.
         -5    1    5    5    0  503  0.64904537010E+02  0.27945564553E+02  0.29793917139E+02  0.76833072314E+02  0.47000000000E+01 0.  1.
<mgrwt>
<rscale>  2 0.25295589E+03</rscale>
<asrwt>0</asrwt>
<pdfrwt beam="1">  1       21 0.11726762E+00 0.25332494E+03</pdfrwt>
<pdfrwt beam="2">  1       21 0.12967610E-01 0.25332494E+03</pdfrwt>
<totfact> 0.27621817E+04</totfact>
</mgrwt>
</event>
<event>
12    1  0.1473662E-001  0.1823677E+03  0.7546771E-02  0.1166744E+00
         21   -1    0    0  504  503  0.00000000000E+00  0.00000000000E+00  0.17449046105E+03  0.17449046105E+03  0.00000000000E+00 0.  1.
         21   -1    0    0  502  504 -0.00000000000E+00 -0.00000000000E+00 -0.37396783448E+03  0.37396783448E+03  0.00000000000E+00 0.  1.
          6    2    1    2  502    0 -0.51235529158E+02  0.22335157830E+02 -0.29377419667E+03  0.34315394720E+03  0.16830749871E+03 0.  0.
         24    2    3    3    0    0 -0.95015637117E+02  0.40900412949E+02 -0.21830169524E+03  0.25382559211E+03  0.77916532188E+02 0.  0.
         -6    2    1    2    0  503  0.51235529158E+02 -0.22335157830E+02  0.94296823241E+02  0.20530434833E+03  0.17359160650E+03 0.  0.
        -24    2    5    5    0    0  0.31144177984E+02 -0.46713653872E+02 -0.78750129876E+01  0.98256940237E+02  0.80251387494E+02 0.  0.
          2    1    4    4  501    0 -0.33955006322E+02  0.51044316065E+02 -0.69568673235E+02  0.92726829734E+02  0.00000000000E+00 0. -1.
         -1    1    4    4    0  501 -0.61060630795E+02 -0.10143903117E+02 -0.14873302201E+03  0.16109876238E+03  0.00000000000E+00 0.  1.
          5    1    3    3  502    0  0.43780107959E+02 -0.18565255118E+02 -0.75472501432E+02  0.89328355089E+02  0.47000000000E+01 0. -1.
         13    1    6    6    0    0 -0.24737003394E+00 -0.62563440085E+02 -0.81307296984E+01  0.63090046701E+02  0.00000000000E+00 0. -1.
        -14    1    6    6    0    0  0.31391548018E+02  0.15849786213E+02  0.25571671075E+00  0.35166893537E+02  0.00000000000E+00 0.  1.
         -5    1    5    5    0  503  0.20091351173E+02  0.24378496042E+02  0.10217183623E+03  0.10704740809E+03  0.47000000000E+01 0.  1.
<mgrwt>
<rscale>  2 0.18109893E+03</rscale>
<asrwt>0</asrwt>
<pdfrwt beam="1">  1       21 0.26844686E-01 0.18236772E+03</pdfrwt>
<pdfrwt beam="2">  1       21 0.57533513E-01 0.18236772E+03</pdfrwt>
<totfact> 0.37658085E+04</totfact>
</mgrwt>
</event>
<event>
12    1  0.1473662E-001  0.2738509E+03  0.7546771E-02  0.1099104E+00
         21   -1    0    0  504  503  0.00000000000E+00  0.00000000000E+00  0.11473795211E+03  0.11473795211E+03  0.00000000000E+00 0. -1.
         21   -1    0    0  502  504 -0.00000000000E+00 -0.00000000000E+00 -0.68490273739E+03  0.68490273739E+03  0.00000000000E+00 0.  1.
          6    2    1    2  502    0 -0.99248335498E+02 -0.18726301638E+03 -0.19940900536E+03  0.33871319169E+03  0.17333495148E+03 0.  0.
         24    2    3    3    0    0 -0.68201942046E+02 -0.82855955002E+02 -0.18573280551E+03  0.22883215850E+03  0.79692330530E+02 0.  0.
         -6    2    1    2    0  503  0.99248335498E+02  0.18726301638E+03 -0.37075577991E+03  0.46092749781E+03  0.17342618168E+03 0.  0.
        -24    2    5    5    0    0 -0.18296282701E+02  0.98372854918E+02 -0.15811932746E+03  0.20217172688E+03  0.76548761524E+02 0.  0.
          4    1    4    4  501    0  0.16873992457E+02 -0.26179763755E+02 -0.50049134761E+02  0.58949364220E+02  0.00000000000E+00 0. -1.
         -3    1    4    4    0  501 -0.85075934503E+02 -0.56676191247E+02 -0.13568367075E+03  0.16988279428E+03  0.00000000000E+00 0.  1.
          5    1    3    3  502    0 -0.31046393451E+02 -0.10440706138E+03 -0.13676199854E+02  0.10988103319E+03  0.47000000000E+01 0. -1.
         13    1    6    6    0    0 -0.49473073903E+01  0.81643398572E+02 -0.16099090058E+03  0.18057738078E+03  0.00000000000E+00 0. -1.
        -14    1    6    6    0    0 -0.13348975311E+02  0.16729456346E+02  0.28715731213E+01  0.21594346104E+02  0.00000000000E+00 0.  1.
         -5    1    5    5    0  503  0.11754461820E+03  0.88890161460E+02 -0.21263645246E+03  0.25875577092E+03  0.47000000000E+01 0.  1.
<mgrwt>
<rscale>  2 0.27383645E+03</rscale>
<asrwt>0</asrwt>
<pdfrwt beam="1">  1       21 0.17651993E-01 0.27385089E+03</pdfrwt>
<pdfrwt beam="2">  1       21 0.10536965E+00 0.27385089E+03</pdfrwt>
<totfact> 0.20182999E+04</totfact>
</mgrwt>
</event>
<event>
12    1  0.1473662E-001  0.1979385E+03  0.7546771E-02  0.1151731E+00
         21   -1    0    0  504  503  0.00000000000E+00  0.00000000000E+00  0.11731631689E+04  0.11731631689E+04  0.00000000000E+00 0. -1.
         21   -1    0    0  502  504 -0.00000000000E+00 -0.00000000000E+00 -0.43071418836E+02  0.43071418836E+02  0.00000000000E+00 0. -1.
          6    2    1    2  502    0 -0.96432116450E+02 -0.63901854938E+01  0.27526839916E+03  0.33904623073E+03  0.17274162048E+03 0.  0.
         24    2    3    3    0    0 -0.68201693216E+02  0.57921373561E+02  0.12689584054E+03  0.17482248222E+03  0.80336725545E+02 0.  0.
         -6    2    1    2    0  503  0.96432116450E+02  0.63901854938E+01  0.85482335087E+03  0.87718835696E+03  0.17145397299E+03 0.  0.
        -24    2    5    5    0    0  0.13622190239E+03  0.14958583528E+01  0.70567048434E+03  0.72267023797E+03  0.75649164591E+02 0.  0.
          4    1    4    4  501    0 -0.82672302155E+02  0.56325382542E+02  0.87792139562E+02  0.13309664921E+03  0.00000000000E+00 0. -1.
         -3    1    4    4    0  501  0.14470608939E+02  0.15959910189E+01  0.39103700979E+02  0.41725833013E+02  0.00000000000E+00 0.  1.
          5    1    3    3  502    0 -0.28230423234E+02 -0.64311559055E+02  0.14837255862E+03  0.16422374851E+03  0.47000000000E+01 0. -1.
         13    1    6    6    0    0  0.11116271483E+03  0.22839528188E+02  0.41830823925E+03  0.43342885949E+03  0.00000000000E+00 0. -1.
        -14    1    6    6    0    0  0.25059187556E+02 -0.21343669835E+02  0.28736224509E+03  0.28924137849E+03  0.00000000000E+00 0.  1.
         -5    1    5    5    0  503 -0.39789785937E+02  0.48943271410E+01  0.14915286653E+03  0.15451811899E+03  0.47000000000E+01 0.  1.
<mgrwt>
<rscale>  2 0.19765723E+03</rscale>
<asrwt>0</asrwt>
<pdfrwt beam="1">  1       21 0.18048662E+00 0.19793851E+03</pdfrwt>
<pdfrwt beam="2">  1       21 0.66263730E-02 0.19793851E+03</pdfrwt>
<totfact> 0.29918021E+04</totfact>
</mgrwt>
</event>
<event>
12    1  0.1473662E-001  0.1848090E+03  0.7546771E-02  0.1165657E+00
         21   -1    0    0  504  503  0.00000000000E+00  0.00000000000E+00  0.41101140335E+02  0.41101140335E+02  0.00000000000E+00 0. -1.
         21   -1    0    0  502  504 -0.00000000000E+00 -0.00000000000E+00 -0.79960340613E+03  0.79960340613E+03  0.00000000000E+00 0. -1.
          6    2    1    2  502    0 -0.17147122911E+02 -0.64993995903E+02 -0.42306312687E+03  0.45772440638E+03  0.16127919751E+03 0.  0.
         24    2    3    3    0    0  0.18188075471E+02 -0.88611584779E+02 -0.37892436336E+03  0.39626964909E+03  0.72547519576E+02 0.  0.
         -6    2    1    2    0  503  0.17147122911E+02  0.64993995903E+02 -0.33543913893E+03  0.38298014009E+03  0.17215146950E+03 0.  0.
        -24    2    5    5    0    0 -0.19739117959E+02  0.17429616965E+02 -0.60575695368E+02  0.10156413572E+03  0.77152021816E+02 0.  0.
          2    1    4    4  501    0 -0.32428146869E+01 -0.87771759109E+02 -0.34601455148E+03  0.35698804935E+03  0.00000000000E+00 0. -1.
         -1    1    4    4    0  501  0.21430890158E+02 -0.83982567049E+00 -0.32909811882E+02  0.39281599742E+02  0.00000000000E+00 0.  1.
          5    1    3    3  502    0 -0.35335198382E+02  0.23617588876E+02 -0.44138763512E+02  0.61454757289E+02  0.47000000000E+01 0. -1.
         13    1    6    6    0    0 -0.32870878524E+02  0.36564852920E+02 -0.16696298775E+02  0.51925422644E+02  0.00000000000E+00 0. -1.
        -14    1    6    6    0    0  0.13131760565E+02 -0.19135235955E+02 -0.43879396594E+02  0.49638713078E+02  0.00000000000E+00 0.  1.
         -5    1    5    5    0  503  0.36886240870E+02  0.47564378938E+02 -0.27486344356E+03  0.28141600437E+03  0.47000000000E+01 0.  1.
<mgrwt>
<rscale>  2 0.18223502E+03</rscale>
<asrwt>0</asrwt>
<pdfrwt beam="1">  1       21 0.63232528E-02 0.18480901E+03</pdfrwt>
<pdfrwt beam="2">  1       21 0.12301590E+00 0.18480901E+03</pdfrwt>
<totfact> 0.89787422E+04</totfact>
</mgrwt>
</event>
<event>
12    1  0.1473662E-001  0.2635465E+03  0.7546771E-02  0.1105132E+00
         21   -1    0    0  504  503  0.00000000000E+00  0.00000000000E+00  0.14145530836E+04  0.14145530836E+04  0.00000000000E+00 0.  1.
         21   -1    0    0  502  504 -0.00000000000E+00 -0.00000000000E+00 -0.55181778711E+02  0.55181778711E+02  0.00000000000E+00 0. -1.
          6    2    1    2  502    0  0.11060090863E+03 -0.16476965055E+03  0.43399677438E+03  0.50774988187E+03  0.17342186606E+03 0.  0.
         24    2    3    3    0    0  0.99005056893E+02 -0.10420579171E+03  0.16959760006E+03  0.23621451003E+03  0.79831701015E+02 0.  0.
         -6    2    1    2    0  503 -0.11060090863E+03  0.16476965055E+03  0.92537453049E+03  0.96198498042E+03  0.17238179184E+03 0.  0.
        -24    2    5    5    0    0 -0.13544618029E+03  0.15243667693E+03  0.89152149068E+03  0.91796784664E+03  0.79194639345E+02 0.  0.
          4    1    4    4  501    0  0.70958800442E+02 -0.26246897006E+02  0.49865530508E+02  0.90612483110E+02  0.00000000000E+00 0. -1.
         -3    1    4    4    0  501  0.28046256451E+02 -0.77958894702E+02  0.11973206955E+03  0.14560202692E+03  0.00000000000E+00 0.  1.
          5    1    3    3  502    0  0.11595851736E+02 -0.60563858839E+02  0.26439917432E+03  0.27153537184E+03  0.47000000000E+01 0. -1.
         13    1    6    6    0    0 -0.19738721819E+02  0.59876783362E+02  0.16825098686E+03  0.17967537646E+03  0.00000000000E+00 0. -1.
        -14    1    6    6    0    0 -0.11570745847E+03  0.92559893564E+02  0.72327050382E+03  0.73829247019E+03  0.00000000000E+00 0.  1.
         -5    1    5    5    0  503  0.24845271659E+02  0.12332973620E+02  0.33853039806E+02  0.44017133780E+02  0.47000000000E+01 0.  1.
<mgrwt>
<rscale>  2 0.26337550E+03</rscale>
<asrwt>0</asrwt>
<pdfrwt beam="1">  1       21 0.21762352E+00 0.26354647E+03</pdfrwt>
<pdfrwt beam="2">  1       21 0.84895055E-02 0.26354647E+03</pdfrwt>
<totfact> 0.10667276E+04</totfact>
</mgrwt>
</event>
<event>
12    1  0.1473662E-001  0.1899267E+03  0.7546771E-02  0.1159011E+00
         21   -1    0    0  504  503  0.00000000000E+00  0.00000000000E+00  0.34919607092E+03  0.34919607092E+03  0.00000000000E+00 0.  1.
         21   -1    0    0  502  504 -0.00000000000E+00 -0.00000000000E+00 -0.10706891257E+03  0.10706891257E+03  0.00000000000E+00 0.  1.
          6    2    1    2  502    0 -0.55674239187E+02 -0.50862967593E+02  0.71490284227E+02  0.20094343503E+03  0.17199052579E+03 0.  0.
         24    2    3    3    0    0 -0.51141119250E+02  0.24152626445E+02  0.77479100421E+02  0.12540639481E+03  0.80777406590E+02 0.  0.
         -6    2    1    2    0  503  0.55674239187E+02  0.50862967593E+02  0.17063687413E+03  0.25532154846E+03  0.17431433652E+03 0.  0.
        -24    2    5    5    0    0  0.73743571600E+02 -0.24794837060E+02  0.93085407732E+02  0.14538100035E+03  0.80111446332E+02 0.  0.
          4    1    4    4  501    0 -0.68759178337E+02  0.65118790266E+01  0.72212724642E+02  0.99924505374E+02  0.00000000000E+00 0. -1.
         -3    1    4    4    0  501  0.17618059087E+02  0.17640747419E+02  0.52663757792E+01  0.25481889438E+02  0.00000000000E+00 0.  1.
          5    1    3    3  502    0 -0.45331199366E+01 -0.75015594038E+02 -0.59888161941E+01  0.75537040216E+02  0.47000000000E+01 0. -1.
         13    1    6    6    0    0  0.55357393536E+02  0.23114168365E+02  0.56018926983E+02  0.82078169927E+02  0.00000000000E+00 0. -1.
        -14    1    6    6    0    0  0.18386178063E+02 -0.47909005425E+02  0.37066480749E+02  0.63302830424E+02  0.00000000000E+00 0.  1.
         -5    1    5    5    0  503 -0.18069332413E+02  0.75657804653E+02  0.77551466396E+02  0.10994054811E+03  0.47000000000E+01 0.  1.
<mgrwt>
<rscale>  2 0.18939181E+03</rscale>
<asrwt>0</asrwt>
<pdfrwt beam="1">  1       21 0.53722472E-01 0.18992670E+03</pdfrwt>
<pdfrwt beam="2">  1       21 0.16472141E-01 0.18992670E+03</pdfrwt>
<totfact> 0.10847362E+05</totfact>
</mgrwt>
</event>
<event>
12    1  0.1473662E-001  0.2937099E+03  0.7546771E-02  0.1088428E+00
         21   -1    0    0  504  503  0.00000000000E+00  0.00000000000E+00  0.20280158943E+03  0.20280158943E+03  0.00000000000E+00 0.  1.
         21   -1    0    0  502  504 -0.00000000000E+00 -0.00000000000E+00 -0.43856259695E+03  0.43856259695E+03  0.00000000000E+00 0. -1.
          6    2    1    2  502    0 -0.48357293585E+01 -0.23783686965E+03 -0.17350417579E+03  0.34112933372E+03  0.17226654483E+03 0.  0.
         24    2    3    3    0    0  0.63618930843E+02 -0.14231715060E+03 -0.94716739832E+02  0.19956801381E+03  0.80960432404E+02 0.  0.
         -6    2    1    2    0  503  0.48357293585E+01  0.23783686965E+03 -0.62256831728E+02  0.30023485266E+03  0.17226518166E+03 0.  0.
        -24    2    5    5    0    0 -0.50049266105E+01  0.25497672596E+03 -0.40340780118E+02  0.27035147095E+03  0.80152100628E+02 0.  0.
          2    1    4    4  501    0  0.48180944745E+02 -0.14766906626E+03 -0.96909821720E+02  0.18308214034E+03  0.00000000000E+00 0. -1.
         -1    1    4    4    0  501  0.15437986098E+02  0.53519156548E+01  0.21930818876E+01  0.16485873471E+02  0.00000000000E+00 0.  1.
          5    1    3    3  502    0 -0.68454660201E+02 -0.95519719047E+02 -0.78787435954E+02  0.14156131991E+03  0.47000000000E+01 0. -1.
         13    1    6    6    0    0  0.95176971317E+01  0.50078869969E+02  0.22243680923E+02  0.55617093749E+02  0.00000000000E+00 0. -1.
        -14    1    6    6    0    0 -0.14522623742E+02  0.20489785599E+03 -0.62584461041E+02  0.21473437720E+03  0.00000000000E+00 0.  1.
         -5    1    5    5    0  503  0.98406559690E+01 -0.17139856307E+02 -0.21916051610E+02  0.29883381707E+02  0.47000000000E+01 0.  1.
<mgrwt>
<rscale>  2 0.29370973E+03</rscale>
<asrwt>0</asrwt>
<pdfrwt beam="1">  1       21 0.31200245E-01 0.29370993E+03</pdfrwt>
<pdfrwt beam="2">  1       21 0.67471169E-01 0.29370993E+03</pdfrwt>
<totfact> 0.18837384E+04</totfact>
</mgrwt>
</event>
<event>
12    1  0.1473662E-001  0.1995399E+03  0.7546771E-02  0.1150387E+00
         21   -1    0    0  504  503  0.00000000000E+00  0.00000000000E+00  0.93384281261E+02  0.93384281261E+02  0.00000000000E+00 0. -1.
         21   -1    0    0  502  504 -0.00000000000E+00 -0.00000000000E+00 -0.58943179928E+03  0.58943179928E+03  0.00000000000E+00 0.  1.
          6    2    1    2  502    0  0.97867691875E+02 -0.96718406895E+01 -0.42847636440E+03  0.47214564377E+03  0.17221464648E+03 0.  0.
         24    2    3    3    0    0  0.10980513568E+03  0.37556598946E+02 -0.36731473646E+03  0.39381389537E+03  0.81863316663E+02 0.  0.
         -6    2    1    2    0  503 -0.97867691875E+02  0.96718406895E+01 -0.67571153617E+02  0.21067043677E+03  0.17362183766E+03 0.  0.
        -24    2    5    5    0    0 -0.11403372967E+03  0.51498120688E+02 -0.29297634806E+02  0.15152882098E+03  0.80292491837E+02 0.  0.
          2    1    4    4  501    0  0.47160681303E+02  0.39667470347E+00 -0.52024855513E+02  0.70220173761E+02  0.00000000000E+00 0. -1.
         -1    1    4    4    0  501  0.62644454381E+02  0.37159924242E+02 -0.31528988095E+03  0.32359372161E+03  0.00000000000E+00 0.  1.
          5    1    3    3  502    0 -0.11937443809E+02 -0.47228439635E+02 -0.61161627935E+02  0.78331748396E+02  0.47000000000E+01 0. -1.
         13    1    6    6    0    0 -0.58727599216E+02 -0.73200237713E+01  0.12689833025E+02  0.60527229574E+02  0.00000000000E+00 0. -1.
        -14    1    6    6    0    0 -0.55306130453E+02  0.58818144459E+02 -0.41987467831E+02  0.91001591405E+02  0.00000000000E+00 0.  1.
         -5    1    5    5    0  503  0.16166037794E+02 -0.41826279998E+02 -0.38273518812E+02  0.59141615794E+02  0.47000000000E+01 0.  1.
<mgrwt>
<rscale>  2 0.19923340E+03</rscale>
<asrwt>0</asrwt>
<pdfrwt beam="1">  1       21 0.14366813E-01 0.19953990E+03</pdfrwt>
<pdfrwt beam="2">  1       21 0.90681814E-01 0.19953990E+03</pdfrwt>
<totfact> 0.43643765E+04</totfact>
</mgrwt>
</event>
<event>
12    1  0.1473662E-001  0.2063453E+03  0.7546771E-02  0.1145007E+00
         21   -1    0    0  504  503  0.00000000000E+00  0.00000000000E+00  0.57532363822E+03  0.57532363822E+03  0.00000000000E+00 0. -1.
         21   -1    0    0  502  504 -0.00000000000E+00 -0.00000000000E+00 -0.22619172008E+03  0.22619172008E+03  0.00000000000E+00 0. -1.
          6    2    1    2  502    0 -0.45754042427E+02 -0.97605769987E+02 -0.15477868019E+03  0.25794340994E+03  0.17594898169E+03 0.  0.
         24    2    3    3    0    0 -0.66532855364E+02 -0.26576825500E+02 -0.28826281668E+02  0.11178265353E+03  0.80817440060E+02 0.  0.
         -6    2    1    2    0  503  0.45754042427E+02  0.97605769987E+02  0.50391059833E+03  0.54357194836E+03  0.17298628039E+03 0.  0.
        -24    2    5    5    0    0 -0.18235632026E+02  0.10839938786E+03  0.30011228552E+03  0.32963966251E+03  0.80696701416E+02 0.  0.
          2    1    4    4  501    0  0.14212706120E+02  0.53985793326E+01 -0.19072040850E+02  0.24390334484E+02  0.00000000000E+00 0. -1.
         -1    1    4    4    0  501 -0.80745561484E+02 -0.31975404833E+02 -0.97542408178E+01  0.87392319041E+02  0.00000000000E+00 0.  1.
          5    1    3    3  502    0  0.20778812936E+02 -0.71028944487E+02 -0.12595239853E+03  0.14616075642E+03  0.47000000000E+01 0. -1.
         13    1    6    6    0    0 -0.38646304665E+02  0.16635239974E+02  0.83231796426E+02  0.93261996598E+02  0.00000000000E+00 0. -1.
        -14    1    6    6    0    0  0.20410672639E+02  0.91764147884E+02  0.21688048909E+03  0.23637766592E+03  0.00000000000E+00 0.  1.
         -5    1    5    5    0  503  0.63989674453E+02 -0.10793617872E+02  0.20379831281E+03  0.21393228584E+03  0.47000000000E+01 0.  1.
<mgrwt>
<rscale>  2 0.20571225E+03</rscale>
<asrwt>0</asrwt>
<pdfrwt beam="1">  1       21 0.88511328E-01 0.20634525E+03</pdfrwt>
<pdfrwt beam="2">  1       21 0.34798726E-01 0.20634525E+03</pdfrwt>
<totfact> 0.86067859E+03</totfact>
</mgrwt>
</event>
<event>
12    1  0.1473662E-001  0.2551207E+03  0.7546771E-02  0.1111291E+00
         21   -1    0    0  504  503  0.00000000000E+00  0.00000000000E+00  0.27657599154E+03  0.27657599154E+03  0.00000000000E+00 0.  1.
         21   -1    0    0  502  504 -0.00000000000E+00 -0.00000000000E+00 -0.48403852107E+03  0.48403852107E+03  0.00000000000E+00 0.  1.
          6    2    1    2  502    0 -0.17368444148E+03 -0.69487996931E+02 -0.38082236988E+03  0.45838001274E+03  0.17346957010E+03 0.  0.
         24    2    3    3    0    0 -0.15371276605E+03 -0.30050694879E+02 -0.37423466551E+03  0.41343942461E+03  0.79686349164E+02 0.  0.
         -6    2    1    2    0  503  0.17368444148E+03  0.69487996931E+02  0.17335984035E+03  0.30223449987E+03  0.16216408891E+03 0.  0.
        -24    2    5    5    0    0  0.60364565458E+02 -0.26029705289E+02  0.85031434241E+02  0.12963953162E+03  0.72488875203E+02 0.  0.
          4    1    4    4  501    0 -0.12084405188E+03 -0.47242126046E+02 -0.22564413462E+03  0.26028902942E+03  0.00000000000E+00 0. -1.
         -3    1    4    4    0  501 -0.32868714174E+02  0.17191431167E+02 -0.14859053089E+03  0.15315039520E+03  0.00000000000E+00 0.  1.
          5    1    3    3  502    0 -0.19971675430E+02 -0.39437302052E+02 -0.65877043670E+01  0.44940588130E+02  0.47000000000E+01 0. -1.
         13    1    6    6    0    0  0.91067170391E+01 -0.22392118251E+00 -0.13102277498E+02  0.15957822896E+02  0.00000000000E+00 0. -1.
        -14    1    6    6    0    0  0.51257848419E+02 -0.25805784106E+02  0.98133711740E+02  0.11368170872E+03  0.00000000000E+00 0.  1.
         -5    1    5    5    0  503  0.11331987602E+03  0.95517702219E+02  0.88328406112E+02  0.17259496825E+03  0.47000000000E+01 0.  1.
<mgrwt>
<rscale>  2 0.25321228E+03</rscale>
<asrwt>0</asrwt>
<pdfrwt beam="1">  1       21 0.42550153E-01 0.25512067E+03</pdfrwt>
<pdfrwt beam="2">  1       21 0.74467464E-01 0.25512067E+03</pdfrwt>
<totfact> 0.82472825E+03</totfact>
</mgrwt>
</event>
<event>
12    1  0.1473662E-001  0.2028230E+03  0.7546771E-02  0.1152738E+00
         21   -1    0    0  504  503  0.00000000000E+00  0.00000000000E+00  0.72642375005E+03  0.72642375005E+03  0.00000000000E+00 0.  1.
         21   -1    0    0  502  504 -0.00000000000E+00 -0.00000000000E+00 -0.90229035132E+02  0.90229035132E+02  0.00000000000E+00 0. -1.
          6    2    1    2  502    0 -0.90242075886E+01 -0.60592811956E+02  0.34825498482E+02  0.18200162712E+03  0.16780599437E+03 0.  0.
         24    2    3    3    0    0  0.36668886793E+02  0.10428723692E+02  0.40339622604E+02  0.97240710630E+02  0.79844255369E+02 0.  0.
         -6    2    1    2    0  503  0.90242075886E+01  0.60592811956E+02  0.60136921644E+03  0.63465115806E+03  0.19335002654E+03 0.  0.
        -24    2    5    5    0    0  0.32957869733E+02 -0.42392539022E+02  0.25742413855E+03  0.27479131131E+03  0.79747909819E+02 0.  0.
          2    1    4    4  501    0 -0.51498426521E+01 -0.12388536532E+01 -0.21242481302E+02  0.21892890389E+02  0.00000000000E+00 0. -1.
         -1    1    4    4    0  501  0.41818729445E+02  0.11667577346E+02  0.61582103906E+02  0.75347820241E+02  0.00000000000E+00 0.  1.
          5    1    3    3  502    0 -0.45693094382E+02 -0.71021535649E+02 -0.55141241215E+01  0.84760916494E+02  0.47000000000E+01 0. -1.
         13    1    6    6    0    0 -0.90786613071E+01  0.13010864694E+02  0.12538012985E+02  0.20221435677E+02  0.00000000000E+00 0. -1.
        -14    1    6    6    0    0  0.42036531040E+02 -0.55403403716E+02  0.24488612557E+03  0.25456987563E+03  0.00000000000E+00 0.  1.
         -5    1    5    5    0  503 -0.23933662145E+02  0.10298535098E+03  0.34394507788E+03  0.35985984675E+03  0.47000000000E+01 0.  1.
<mgrwt>
<rscale>  2 0.19648605E+03</rscale>
<asrwt>0</asrwt>
<pdfrwt beam="1">  1       21 0.11175750E+00 0.20282297E+03</pdfrwt>
<pdfrwt beam="2">  1       21 0.13881390E-01 0.20282297E+03</pdfrwt>
<totfact> 0.28209274E+04</totfact>
</mgrwt>
</event>
<event>
12    1  0.1473662E-001  0.1796566E+03  0.7546771E-02  0.1168175E+00
         21   -1    0    0  504  503  0.00000000000E+00  0.00000000000E+00  0.78765801097E+03  0.78765801097E+03  0.00000000000E+00 0. -1.
         21   -1    0    0  502  504 -0.00000000000E+00 -0.00000000000E+00 -0.60214523930E+02  0.60214523930E+02  0.00000000000E+00 0. -1.
          6    2    1    2  502    0 -0.64627258367E+01 -0.48227944227E+02  0.12398778478E+03  0.21828757456E+03  0.17294158842E+03 0.  0.
         24    2    3    3    0    0  0.19469813573E+02  0.32838396510E+02  0.48641656225E+02  0.10451861004E+03  0.84265622876E+02 0.  0.
         -6    2    1    2    0  503  0.64627258367E+01  0.48227944227E+02  0.60345570227E+03  0.62958496034E+03  0.17277365615E+03 0.  0.
        -24    2    5    5    0    0 -0.51088947689E+02  0.29907034006E+02  0.49636718512E+03  0.50654882182E+03  0.81895147392E+02 0.  0.
          4    1    4    4  501    0  0.34486494212E+02  0.46129728517E+02  0.66427230798E+01  0.57977546567E+02  0.00000000000E+00 0. -1.
         -3    1    4    4    0  501 -0.15016680640E+02 -0.13291332007E+02  0.41998933145E+02  0.46541063474E+02  0.00000000000E+00 0.  1.
          5    1    3    3  502    0 -0.25932539409E+02 -0.81066340737E+02  0.75346128553E+02  0.11376896452E+03  0.47000000000E+01 0. -1.
         11    1    6    6    0    0  0.22691671127E+02  0.75678060659E+01  0.12389165815E+03  0.12617973920E+03  0.00000000000E+00 0. -1.
        -12    1    6    6    0    0 -0.73780618816E+02  0.22339227940E+02  0.37247552698E+03  0.38036908262E+03  0.00000000000E+00 0.  1.
         -5    1    5    5    0  503  0.57551673526E+02  0.18320910221E+02  0.10708851714E+03  0.12303613852E+03  0.47000000000E+01 0.  1.
<mgrwt>
<rscale>  2 0.17961618E+03</rscale>
<asrwt>0</asrwt>
<pdfrwt beam="1">  1       21 0.12117815E+00 0.17965660E+03</pdfrwt>
<pdfrwt beam="2">  1       21 0.92637735E-02 0.17965660E+03</pdfrwt>
<totfact> 0.48187733E+04</totfact>
</mgrwt>
</event>
<event>
12    1  0.1473662E-001  0.2149964E+03  0.7546771E-02  0.1139934E+00
         21   -1    0    0  504  503  0.00000000000E+00  0.00000000000E+00  0.29409129884E+03  0.29409129884E+03  0.00000000000E+00 0. -1.
         21   -1    0    0  502  504 -0.00000000000E+00 -0.00000000000E+00 -0.23392038736E+03  0.23392038736E+03  0.00000000000E+00 0. -1.
          6    2    1    2  502    0 -0.18152927371E+02 -0.12593418485E+03 -0.12850399809E+03  0.25047304645E+03  0.17330470792E+03 0.  0.
         24    2    3    3    0    0  0.42499252690E+02 -0.64384873789E+02 -0.11966785379E+03  0.16348355235E+03  0.80342256670E+02 0.  0.
         -6    2    1    2    0  503  0.18152927371E+02  0.12593418485E+03  0.18867490957E+03  0.27753863976E+03  0.15887267660E+03 0.  0.
        -24    2    5    5    0    0 -0.78736374792E+00  0.13294934652E+03  0.20102870527E+03  0.25340042546E+03  0.78250153989E+02 0.  0.
          2    1    4    4  501    0 -0.64014696993E+01 -0.45534185651E+02 -0.95035771256E+02  0.10557527502E+03  0.00000000000E+00 0. -1.
         -1    1    4    4    0  501  0.48900722389E+02 -0.18850688138E+02 -0.24632082530E+02  0.57908277329E+02  0.00000000000E+00 0.  1.
          5    1    3    3  502    0 -0.60652180061E+02 -0.61549311062E+02 -0.88361443012E+01  0.86989494104E+02  0.47000000000E+01 0. -1.
         11    1    6    6    0    0  0.33904811818E+02  0.30110715026E+02  0.51213384372E+02  0.68403232107E+02  0.00000000000E+00 0. -1.
        -12    1    6    6    0    0 -0.34692175566E+02  0.10283863150E+03  0.14981532090E+03  0.18499719336E+03  0.00000000000E+00 0.  1.
         -5    1    5    5    0  503  0.18940291119E+02 -0.70151616722E+01 -0.12353795702E+02  0.24138214292E+02  0.47000000000E+01 0.  1.
<mgrwt>
<rscale>  2 0.21207386E+03</rscale>
<asrwt>0</asrwt>
<pdfrwt beam="1">  1       21 0.45244815E-01 0.21499644E+03</pdfrwt>
<pdfrwt beam="2">  1       21 0.35987752E-01 0.21499644E+03</pdfrwt>
<totfact> 0.34486684E+04</totfact>
</mgrwt>
</event>
<event>
12    1  0.1473662E-001  0.2154043E+03  0.7546771E-02  0.1137592E+00
         21   -1    0    0  504  503  0.00000000000E+00  0.00000000000E+00  0.26227010570E+03  0.26227010570E+03  0.00000000000E+00 0.  1.
         21   -1    0    0  502  504 -0.00000000000E+00 -0.00000000000E+00 -0.26266203108E+03  0.26266203108E+03  0.00000000000E+00 0.  1.
          6    2    1    2  502    0 -0.10265703219E+03  0.75204405768E+02  0.15064604555E+03  0.26185134871E+03  0.17227225219E+03 0.  0.
         24    2    3    3    0    0 -0.13645832136E+03  0.53325355451E+02  0.14449775675E+03  0.22084998961E+03  0.80191328705E+02 0.  0.
         -6    2    1    2    0  503  0.10265703219E+03 -0.75204405768E+02 -0.15103797094E+03  0.26308078807E+03  0.17379546451E+03 0.  0.
        -24    2    5    5    0    0  0.23031041239E+01  0.35668544739E+01 -0.93276665068E+02  0.12295841023E+03  0.80001297865E+02 0.  0.
          2    1    4    4  501    0 -0.81321899850E+02  0.41205528660E+02  0.13604740613E+03  0.16376826219E+03  0.00000000000E+00 0. -1.
         -1    1    4    4    0  501 -0.55136421514E+02  0.12119826791E+02  0.84503506229E+01  0.57081727413E+02  0.00000000000E+00 0.  1.
          5    1    3    3  502    0  0.33801289176E+02  0.21879050317E+02  0.61482887966E+01  0.41001359098E+02  0.47000000000E+01 0. -1.
         11    1    6    6    0    0 -0.31234777005E+02 -0.14443318171E+02 -0.18549330153E+02  0.39093457042E+02  0.00000000000E+00 0. -1.
        -12    1    6    6    0    0  0.33537881129E+02  0.18010172645E+02 -0.74727334915E+02  0.83864953186E+02  0.00000000000E+00 0.  1.
         -5    1    5    5    0  503  0.10035392806E+03 -0.78771260242E+02 -0.57761305867E+02  0.14012237785E+03  0.47000000000E+01 0.  1.
<mgrwt>
<rscale>  2 0.21509692E+03</rscale>
<asrwt>0</asrwt>
<pdfrwt beam="1">  1       21 0.40349247E-01 0.21540435E+03</pdfrwt>
<pdfrwt beam="2">  1       21 0.40409543E-01 0.21540435E+03</pdfrwt>
<totfact> 0.34511747E+04</totfact>
</mgrwt>
</event>
<event>
12    1  0.1473662E-001  0.2464318E+03  0.7546771E-02  0.1116612E+00
         21   -1    0    0  504  503  0.00000000000E+00  0.00000000000E+00  0.16253473953E+04  0.16253473953E+04  0.00000000000E+00 0.  1.
         21   -1    0    0  502  504 -0.00000000000E+00 -0.00000000000E+00 -0.45752202175E+02  0.45752202175E+02  0.00000000000E+00 0. -1.
          6    2    1    2  502    0 -0.15761511790E+02 -0.17496007283E+03  0.40413524626E+03  0.47008555769E+03  0.16369386653E+03 0.  0.
         24    2    3    3    0    0  0.12748300194E+02 -0.26456372648E+02  0.17509696052E+03  0.19559186981E+03  0.82065675793E+02 0.  0.
         -6    2    1    2    0  503  0.15761511790E+02  0.17496007283E+03  0.11754599468E+04  0.12010140397E+04  0.17282703706E+03 0.  0.
        -24    2    5    5    0    0  0.96144691400E-01  0.15869927107E+02  0.27114508352E+03  0.28266631683E+03  0.78286183472E+02 0.  0.
          2    1    4    4  501    0  0.44814845589E+02 -0.30347399600E+02  0.96994685066E+02  0.11107341707E+03  0.00000000000E+00 0. -1.
         -1    1    4    4    0  501 -0.32066545394E+02  0.38910269520E+01  0.78102275451E+02  0.84518452748E+02  0.00000000000E+00 0.  1.
          5    1    3    3  502    0 -0.28509811985E+02 -0.14850370018E+03  0.22903828574E+03  0.27449368787E+03  0.47000000000E+01 0. -1.
         11    1    6    6    0    0 -0.51932329836E+01 -0.30984027843E+02  0.13430356539E+03  0.13792906629E+03  0.00000000000E+00 0. -1.
        -12    1    6    6    0    0  0.52893776750E+01  0.46853954950E+02  0.13684151814E+03  0.14473725055E+03  0.00000000000E+00 0.  1.
         -5    1    5    5    0  503  0.15665367099E+02  0.15909014572E+03  0.90431486330E+03  0.91834772291E+03  0.47000000000E+01 0.  1.
<mgrwt>
<rscale>  2 0.24483715E+03</rscale>
<asrwt>0</asrwt>
<pdfrwt beam="1">  1       21 0.25005340E+00 0.24643181E+03</pdfrwt>
<pdfrwt beam="2">  1       21 0.70388016E-02 0.24643181E+03</pdfrwt>
<totfact> 0.95036817E+03</totfact>
</mgrwt>
</event>
<event>
12    1  0.1473662E-001  0.2021883E+03  0.7546771E-02  0.1148314E+00
         21   -1    0    0  504  503  0.00000000000E+00  0.00000000000E+00  0.47175581205E+02  0.47175581205E+02  0.00000000000E+00 0. -1.
         21   -1    0    0  502  504 -0.00000000000E+00 -0.00000000000E+00 -0.15731365919E+04  0.15731365919E+04  0.00000000000E+00 0.  1.
          6    2    1    2  502    0  0.30382602638E+02  0.96204218486E+02 -0.13071165027E+04  0.13223641508E+04  0.17295965281E+03 0.  0.
         24    2    3    3    0    0  0.24001986047E+02  0.10812028497E+03 -0.61809894411E+03  0.63319799452E+03  0.81408256398E+02 0.  0.
         -6    2    1    2    0  503 -0.30382602638E+02 -0.96204218486E+02 -0.21884450799E+03  0.29794802230E+03  0.17521915168E+03 0.  0.
        -24    2    5    5    0    0  0.46238119796E+02 -0.19602274606E+02 -0.11666561189E+03  0.14894731854E+03  0.77796052664E+02 0.  0.
          4    1    4    4  501    0  0.15163445416E+02  0.57685964333E+02 -0.13750367479E+03  0.14988282470E+03  0.00000000000E+00 0. -1.
         -3    1    4    4    0  501  0.88385406312E+01  0.50434320632E+02 -0.48059526931E+03  0.48331516983E+03  0.00000000000E+00 0.  1.
          5    1    3    3  502    0  0.63806165912E+01 -0.11916066479E+02 -0.68901755860E+03  0.68916615628E+03  0.47000000000E+01 0. -1.
         11    1    6    6    0    0  0.35433181597E+01 -0.37772578556E+02 -0.22860620248E+02  0.44293687501E+02  0.00000000000E+00 0. -1.
        -12    1    6    6    0    0  0.42694801636E+02  0.18170303949E+02 -0.93804991641E+02  0.10465363104E+03  0.00000000000E+00 0.  1.
         -5    1    5    5    0  503 -0.76620722434E+02 -0.76601943880E+02 -0.10217889610E+03  0.14900070376E+03  0.47000000000E+01 0.  1.
<mgrwt>
<rscale>  2 0.20169777E+03</rscale>
<asrwt>0</asrwt>
<pdfrwt beam="1">  1       21 0.72577825E-02 0.20218829E+03</pdfrwt>
<pdfrwt beam="2">  1       21 0.24202099E+00 0.20218829E+03</pdfrwt>
<totfact> 0.10439096E+04</totfact>
</mgrwt>
</event>
<event>
12    1  0.1473662E-001  0.1826887E+03  0.7546771E-02  0.1165242E+00
         21   -1    0    0  504  503  0.00000000000E+00  0.00000000000E+00  0.62536968558E+03  0.62536968558E+03  0.00000000000E+00 0.  1.
         21   -1    0    0  502  504 -0.00000000000E+00 -0.00000000000E+00 -0.53441622706E+02  0.53441622706E+02  0.00000000000E+00 0.  1.
          6    2    1    2  502    0 -0.58441272490E+02 -0.11304276192E+02  0.27189546703E+03  0.32757030068E+03  0.17271939066E+03 0.  0.
         24    2    3    3    0    0 -0.80514832261E+02 -0.59426299471E+02  0.17158682708E+03  0.21404988660E+03  0.79757077699E+02 0.  0.
         -6    2    1    2    0  503  0.58441272490E+02  0.11304276192E+02  0.30003259584E+03  0.35124100760E+03  0.17264853854E+03 0.  0.
        -24    2    5    5    0    0 -0.64424158165E+01 -0.34723418329E+02  0.22797857313E+03  0.24380584641E+03  0.78865964992E+02 0.  0.
          2    1    4    4  501    0  0.31348660532E+01 -0.15022528801E+02 -0.28067406884E+01  0.15600690691E+02  0.00000000000E+00 0. -1.
         -1    1    4    4    0  501 -0.83649698314E+02 -0.44403770670E+02  0.17439356777E+03  0.19844919591E+03  0.00000000000E+00 0.  1.
          5    1    3    3  502    0  0.22073559771E+02  0.48122023278E+02  0.10030863995E+03  0.11352041409E+03  0.47000000000E+01 0. -1.
         11    1    6    6    0    0 -0.68674605467E+01 -0.68756867102E+01 -0.37450360558E+01  0.10414527217E+02  0.00000000000E+00 0. -1.
        -12    1    6    6    0    0  0.42504473022E+00 -0.27847731619E+02  0.23172360919E+03  0.23339131919E+03  0.00000000000E+00 0.  1.
         -5    1    5    5    0  503  0.64883688307E+02  0.46027694521E+02  0.72054022711E+02  0.10743516119E+03  0.47000000000E+01 0.  1.
<mgrwt>
<rscale>  2 0.18267194E+03</rscale>
<asrwt>0</asrwt>
<pdfrwt beam="1">  1       21 0.96210716E-01 0.18268869E+03</pdfrwt>
<pdfrwt beam="2">  1       21 0.82217886E-02 0.18268869E+03</pdfrwt>
<totfact> 0.10330427E+05</totfact>
</mgrwt>
</event>
<event>
12    1  0.1473662E-001  0.2400066E+03  0.7546771E-02  0.1120157E+00
         21   -1    0    0  504  503  0.00000000000E+00  0.00000000000E+00  0.12785330238E+04  0.12785330238E+04  0.00000000000E+00 0. -1.
         21   -1    0    0  502  504 -0.00000000000E+00 -0.00000000000E+00 -0.44928717091E+02  0.44928717091E+02  0.00000000000E+00 0.  1.
          6    2    1    2  502    0 -0.50655612350E+02  0.15752079531E+03  0.66688760705E+03  0.70801800213E+03  0.17079701076E+03 0.  0.
         24    2    3    3    0    0 -0.78049948526E+02  0.97887837382E+02  0.29557357500E+03  0.33092021677E+03  0.80440216664E+02 0.  0.
         -6    2    1    2    0  503  0.50655612350E+02 -0.15752079531E+03  0.56671669961E+03  0.61544373872E+03  0.17385162031E+03 0.  0.
        -24    2    5    5    0    0  0.66653265242E+02 -0.12084347792E+03  0.25502040484E+03  0.30115434869E+03  0.81318699726E+02 0.  0.
          2    1    4    4  501    0 -0.94880634084E+02  0.86939211716E+02  0.25833913009E+03  0.28861716407E+03  0.00000000000E+00 0. -1.
         -1    1    4    4    0  501  0.16830685558E+02  0.10948625666E+02  0.37234444906E+02  0.42303052700E+02  0.00000000000E+00 0.  1.
          5    1    3    3  502    0  0.27394336176E+02  0.59632957933E+02  0.37131403205E+03  0.37709778536E+03  0.47000000000E+01 0. -1.
         13    1    6    6    0    0  0.20776021973E+02 -0.97663486973E+01  0.46336408140E+01  0.23419976155E+02  0.00000000000E+00 0. -1.
        -14    1    6    6    0    0  0.45877243269E+02 -0.11107712922E+03  0.25038676403E+03  0.27773437253E+03  0.00000000000E+00 0.  1.
         -5    1    5    5    0  503 -0.15997652892E+02 -0.36677317394E+02  0.31169629477E+03  0.31428939003E+03  0.47000000000E+01 0.  1.
<mgrwt>
<rscale>  2 0.23945388E+03</rscale>
<asrwt>0</asrwt>
<pdfrwt beam="1">  1       21 0.19669736E+00 0.24000662E+03</pdfrwt>
<pdfrwt beam="2">  1       21 0.69121113E-02 0.24000662E+03</pdfrwt>
<totfact> 0.21099612E+04</totfact>
</mgrwt>
</event>
<event>
12    1  0.1473662E-001  0.2761802E+03  0.7546771E-02  0.1097844E+00
         21   -1    0    0  504  503  0.00000000000E+00  0.00000000000E+00  0.10428931584E+04  0.10428931584E+04  0.00000000000E+00 0.  1.
         21   -1    0    0  502  504 -0.00000000000E+00 -0.00000000000E+00 -0.13248076055E+03  0.13248076055E+03  0.00000000000E+00 0. -1.
          6    2    1    2  502    0 -0.30084659762E+02  0.21253158957E+03  0.61400137628E+02  0.28257085543E+03  0.17320954974E+03 0.  0.
         24    2    3    3    0    0 -0.25718505170E+02  0.40401850568E+02  0.56659310411E+02  0.11025638768E+03  0.81562506885E+02 0.  0.
         -6    2    1    2    0  503  0.30084659762E+02 -0.21253158957E+03  0.84901226021E+03  0.89280306350E+03  0.17378356909E+03 0.  0.
        -24    2    5    5    0    0  0.42320104240E+02 -0.67747863104E+02  0.52917690961E+03  0.54147874745E+03  0.82403083077E+02 0.  0.
          2    1    4    4  501    0  0.26720099355E+02 -0.64207428132E-01  0.74463079975E+01  0.27738336917E+02  0.00000000000E+00 0. -1.
         -1    1    4    4    0  501 -0.52438604525E+02  0.40466057996E+02  0.49213002413E+02  0.82518050758E+02  0.00000000000E+00 0.  1.
          5    1    3    3  502    0 -0.43661545926E+01  0.17212973901E+03  0.47408272171E+01  0.17231446776E+03  0.47000000000E+01 0. -1.
         13    1    6    6    0    0 -0.34544061825E+01  0.73584057423E+01  0.41342888742E+01  0.91198356146E+01  0.00000000000E+00 0. -1.
        -14    1    6    6    0    0  0.45774510423E+02 -0.75106268847E+02  0.52504262073E+03  0.53235891183E+03  0.00000000000E+00 0.  1.
         -5    1    5    5    0  503 -0.12235444478E+02 -0.14478372647E+03  0.31983535060E+03  0.35132431605E+03  0.47000000000E+01 0.  1.
<mgrwt>
<rscale>  2 0.27608993E+03</rscale>
<asrwt>0</asrwt>
<pdfrwt beam="1">  1       21 0.16044510E+00 0.27618018E+03</pdfrwt>
<pdfrwt beam="2">  1       21 0.20381656E-01 0.27618018E+03</pdfrwt>
<totfact> 0.52395219E+03</totfact>
</mgrwt>
</event>
<event>
12    1  0.1473662E-001  0.1850671E+03  0.7546771E-02  0.1163381E+00
         21   -1    0    0  504  503  0.00000000000E+00  0.00000000000E+00  0.58289888378E+03  0.58289888378E+03  0.00000000000E+00 0. -1.
         21   -1    0    0  502  504 -0.00000000000E+00 -0.00000000000E+00 -0.58263251305E+02  0.58263251305E+02  0.00000000000E+00 0. -1.
          6    2    1    2  502    0 -0.39236967409E+02  0.50827576300E+02  0.27170603120E+03  0.32874611654E+03  0.17357090661E+03 0.  0.
         24    2    3    3    0    0  0.23392097891E+02  0.80934367537E+02  0.15599092956E+03  0.19368726475E+03  0.78000155945E+02 0.  0.
         -6    2    1    2    0  503  0.39236967409E+02 -0.50827576300E+02  0.25292960127E+03  0.31241601855E+03  0.17177719092E+03 0.  0.
        -24    2    5    5    0    0  0.48014276638E+02 -0.70724736210E+01  0.25064380647E+03  0.26748423664E+03  0.79812959371E+02 0.  0.
          4    1    4    4  501    0  0.13877338691E+02  0.78737477744E+02  0.16307753915E+03  0.18162173522E+03  0.00000000000E+00 0. -1.
         -3    1    4    4    0  501  0.95147592001E+01  0.21968897932E+01 -0.70866095834E+01  0.12065529528E+02  0.00000000000E+00 0.  1.
          5    1    3    3  502    0 -0.62629065299E+02 -0.30106791238E+02  0.11571510164E+03  0.13505885179E+03  0.47000000000E+01 0. -1.
         13    1    6    6    0    0 -0.29796462516E+01  0.20611695653E+02  0.17420453555E+02  0.27151288949E+02  0.00000000000E+00 0. -1.
        -14    1    6    6    0    0  0.50993922889E+02 -0.27684169274E+02  0.23322335291E+03  0.24033294769E+03  0.00000000000E+00 0.  1.
         -5    1    5    5    0  503 -0.87773092294E+01 -0.43755102679E+02  0.22857948012E+01  0.44931781910E+02  0.47000000000E+01 0.  1.
<mgrwt>
<rscale>  2 0.18464538E+03</rscale>
<asrwt>0</asrwt>
<pdfrwt beam="1">  1       21 0.89676747E-01 0.18506713E+03</pdfrwt>
<pdfrwt beam="2">  1       21 0.89635775E-02 0.18506713E+03</pdfrwt>
<totfact> 0.10453244E+05</totfact>
</mgrwt>
</event>
<event>
12    1  0.1473662E-001  0.1785124E+03  0.7546771E-02  0.1169627E+00
         21   -1    0    0  504  503  0.00000000000E+00  0.00000000000E+00  0.42612006692E+03  0.42612006692E+03  0.00000000000E+00 0.  1.
         21   -1    0    0  502  504 -0.00000000000E+00 -0.00000000000E+00 -0.86518900931E+02  0.86518900931E+02  0.00000000000E+00 0.  1.
          6    2    1    2  502    0 -0.20891223738E+02 -0.34930260172E+02  0.72233181697E+02  0.19115444500E+03  0.17223769332E+03 0.  0.
         24    2    3    3    0    0  0.32699440438E+02  0.11316212145E+02  0.81288876453E+02  0.11963667730E+03  0.80670583601E+02 0.  0.
         -6    2    1    2    0  503  0.20891223738E+02  0.34930260172E+02  0.26736798429E+03  0.32148452285E+03  0.17381050919E+03 0.  0.
        -24    2    5    5    0    0 -0.31839640687E+02 -0.71314226984E+01  0.22659378768E+03  0.24252659520E+03  0.80061132013E+02 0.  0.
          4    1    4    4  501    0  0.39864429659E+02  0.23215704645E+02  0.91449947514E+02  0.10242672793E+03  0.00000000000E+00 0. -1.
         -3    1    4    4    0  501 -0.71649892207E+01 -0.11899492500E+02 -0.10161071060E+02  0.17209949372E+02  0.00000000000E+00 0.  1.
          5    1    3    3  502    0 -0.53590664176E+02 -0.46246472317E+02 -0.90556947569E+01  0.71517767695E+02  0.47000000000E+01 0. -1.
         13    1    6    6    0    0 -0.34772306229E+02 -0.64942382680E+01  0.31369727635E+02  0.47279469361E+02  0.00000000000E+00 0. -1.
        -14    1    6    6    0    0  0.29326655418E+01 -0.63718443044E+00  0.19522406004E+03  0.19524712584E+03  0.00000000000E+00 0.  1.
         -5    1    5    5    0  503  0.52730864425E+02  0.42061682870E+02  0.40774196616E+02  0.78957927649E+02  0.47000000000E+01 0.  1.
<mgrwt>
<rscale>  2 0.17812836E+03</rscale>
<asrwt>0</asrwt>
<pdfrwt beam="1">  1       21 0.65556932E-01 0.17851235E+03</pdfrwt>
<pdfrwt beam="2">  1       21 0.13310600E-01 0.17851235E+03</pdfrwt>
<totfact> 0.10477771E+05</totfact>
</mgrwt>
</event>
<event>
12    1  0.1473662E-001  0.1819358E+03  0.7546771E-02  0.1166031E+00
         21   -1    0    0  504  503  0.00000000000E+00  0.00000000000E+00  0.88016830077E+02  0.88016830077E+02  0.00000000000E+00 0.  1.
         21   -1    0    0  502  504 -0.00000000000E+00 -0.00000000000E+00 -0.48537126856E+03  0.48537126856E+03  0.00000000000E+00 0.  1.
          6    2    1    2  502    0  0.46364743557E+02 -0.23920068402E+02 -0.33504269445E+03  0.38107741736E+03  0.17390955065E+03 0.  0.
         24    2    3    3    0    0  0.48900720587E+02 -0.77242649426E+02 -0.26436705044E+03  0.29238206528E+03  0.85085999856E+02 0.  0.
         -6    2    1    2    0  503 -0.46364743557E+02  0.23920068402E+02 -0.62311744040E+02  0.19231068128E+03  0.17429511057E+03 0.  0.
        -24    2    5    5    0    0 -0.70318623908E+02  0.41711973113E+01 -0.97678978299E+02  0.14501652146E+03  0.80786762161E+02 0.  0.
          4    1    4    4  501    0  0.48411081976E+02 -0.71239173503E+02 -0.11905221812E+03  0.14694244907E+03  0.00000000000E+00 0. -1.
         -3    1    4    4    0  501  0.48963861076E+00 -0.60034759232E+01 -0.14531483233E+03  0.14543961621E+03  0.00000000000E+00 0.  1.
          5    1    3    3  502    0 -0.25359770298E+01  0.53322581024E+02 -0.70675644001E+02  0.88695352085E+02  0.47000000000E+01 0. -1.
         13    1    6    6    0    0  0.64527712627E+01 -0.23734726598E+02 -0.30993313898E+02  0.39567170862E+02  0.00000000000E+00 0. -1.
        -14    1    6    6    0    0 -0.76771395171E+02  0.27905923909E+02 -0.66685664401E+02  0.10544935060E+03  0.00000000000E+00 0.  1.
         -5    1    5    5    0  503  0.23953880351E+02  0.19748871091E+02  0.35367234258E+02  0.47294159812E+02  0.47000000000E+01 0.  1.
<mgrwt>
<rscale>  2 0.18184342E+03</rscale>
<asrwt>0</asrwt>
<pdfrwt beam="1">  1       21 0.13541051E-01 0.18193583E+03</pdfrwt>
<pdfrwt beam="2">  1       21 0.74672502E-01 0.18193583E+03</pdfrwt>
<totfact> 0.76170181E+04</totfact>
</mgrwt>
</event>
<event>
12    1  0.1473662E-001  0.1810415E+03  0.7546771E-02  0.1166836E+00
         21   -1    0    0  504  503  0.00000000000E+00  0.00000000000E+00  0.63363181059E+02  0.63363181059E+02  0.00000000000E+00 0.  1.
         21   -1    0    0  502  504 -0.00000000000E+00 -0.00000000000E+00 -0.91575954847E+03  0.91575954847E+03  0.00000000000E+00 0.  1.
          6    2    1    2  502    0  0.39356407228E+02  0.30661272269E+02 -0.74942321833E+03  0.77098065683E+03  0.17403152768E+03 0.  0.
         24    2    3    3    0    0  0.37380702738E+02  0.89043904348E+02 -0.49785234296E+03  0.51267380351E+03  0.75175392107E+02 0.  0.
         -6    2    1    2    0  503 -0.39356407228E+02 -0.30661272269E+02 -0.10297314908E+03  0.20814207270E+03  0.17386952749E+03 0.  0.
        -24    2    5    5    0    0 -0.64592951343E+02 -0.36099549040E+02 -0.80809915518E+01  0.10968868488E+03  0.80565987621E+02 0.  0.
          4    1    4    4  501    0  0.46711632604E+02  0.85391567799E+02 -0.31846891870E+03  0.33301073354E+03  0.00000000000E+00 0. -1.
         -3    1    4    4    0  501 -0.93309298655E+01  0.36523365487E+01 -0.17938342426E+03  0.17966306998E+03  0.00000000000E+00 0.  1.
          5    1    3    3  502    0  0.19757044894E+01 -0.58382632078E+02 -0.25157087537E+03  0.25830685332E+03  0.47000000000E+01 0. -1.
         11    1    6    6    0    0 -0.57244280043E+01  0.35411015569E+01 -0.33601185703E+02  0.34268763574E+02  0.00000000000E+00 0. -1.
        -12    1    6    6    0    0 -0.58868523339E+02 -0.39640650597E+02  0.25520194151E+02  0.75419921303E+02  0.00000000000E+00 0.  1.
         -5    1    5    5    0  503  0.25236544115E+02  0.54382767706E+01 -0.94892157530E+02  0.98453387823E+02  0.47000000000E+01 0.  1.
<mgrwt>
<rscale>  2 0.18100252E+03</rscale>
<asrwt>0</asrwt>
<pdfrwt beam="1">  1       21 0.97481826E-02 0.18104147E+03</pdfrwt>
<pdfrwt beam="2">  1       21 0.14088607E+00 0.18104147E+03</pdfrwt>
<totfact> 0.30094099E+04</totfact>
</mgrwt>
</event>
<event>
12    1  0.1473662E-001  0.3757644E+03  0.7546771E-02  0.1052561E+00
         21   -1    0    0  504  503  0.00000000000E+00  0.00000000000E+00  0.51018562929E+03  0.51018562929E+03  0.00000000000E+00 0. -1.
         21   -1    0    0  502  504 -0.00000000000E+00 -0.00000000000E+00 -0.28519118026E+03  0.28519118026E+03  0.00000000000E+00 0. -1.
          6    2    1    2  502    0 -0.26439346129E+03  0.20278056271E+03  0.18255090184E+03  0.41776032920E+03  0.17370953313E+03 0.  0.
         24    2    3    3    0    0 -0.11642780904E+03  0.34924885311E+02  0.10580987108E+03  0.18115805008E+03  0.82748582811E+02 0.  0.
         -6    2    1    2    0  503  0.26439346129E+03 -0.20278056271E+03  0.42443547188E+02  0.37761648036E+03  0.17253664119E+03 0.  0.
        -24    2    5    5    0    0  0.14486398358E+03 -0.97115698981E+02 -0.42509361628E+02  0.19680872006E+03  0.80682053371E+02 0.  0.
          2    1    4    4  501    0 -0.72305904091E+02 -0.15824044310E+02  0.30122343861E+02  0.79911824810E+02  0.00000000000E+00 0. -1.
         -1    1    4    4    0  501 -0.44121904953E+02  0.50748929621E+02  0.75687527223E+02  0.10124622527E+03  0.00000000000E+00 0.  1.
          5    1    3    3  502    0 -0.14796565225E+03  0.16785567740E+03  0.76741030755E+02  0.23660227912E+03  0.47000000000E+01 0. -1.
         13    1    6    6    0    0  0.13964894277E+03 -0.61605984931E+02 -0.18784732947E+02  0.15378553504E+03  0.00000000000E+00 0. -1.
        -14    1    6    6    0    0  0.52150408100E+01 -0.35509714050E+02 -0.23724628681E+02  0.43023185012E+02  0.00000000000E+00 0.  1.
         -5    1    5    5    0  503  0.11952947771E+03 -0.10566486373E+03  0.84952908816E+02  0.18080776030E+03  0.47000000000E+01 0.  1.
<mgrwt>
<rscale>  2 0.37562910E+03</rscale>
<asrwt>0</asrwt>
<pdfrwt beam="1">  1       21 0.78490096E-01 0.37576437E+03</pdfrwt>
<pdfrwt beam="2">  1       21 0.43875566E-01 0.37576437E+03</pdfrwt>
<totfact> 0.64995496E+03</totfact>
</mgrwt>
</event>
<event>
12    1  0.1473662E-001  0.2598873E+03  0.7546771E-02  0.1107383E+00
         21   -1    0    0  504  503  0.00000000000E+00  0.00000000000E+00  0.42551857136E+02  0.42551857136E+02  0.00000000000E+00 0.  1.
         21   -1    0    0  502  504 -0.00000000000E+00 -0.00000000000E+00 -0.23871396131E+04  0.23871396131E+04  0.00000000000E+00 0.  1.
          6    2    1    2  502    0  0.14955469728E+03  0.12231861019E+03 -0.18802795528E+04  0.18981550469E+04  0.17381868534E+03 0.  0.
         24    2    3    3    0    0  0.17480446201E+03  0.13122972270E+03 -0.16928287613E+04  0.17087431999E+04  0.79726206346E+02 0.  0.
         -6    2    1    2    0  503 -0.14955469728E+03 -0.12231861019E+03 -0.46430820310E+03  0.53153642331E+03  0.17210581618E+03 0.  0.
        -24    2    5    5    0    0 -0.13835718188E+03 -0.27161538107E+02 -0.27044128394E+03  0.31523403067E+03  0.79709140640E+02 0.  0.
          4    1    4    4  501    0  0.62628891831E+02  0.10217114494E+02 -0.33820660907E+03  0.34410823579E+03  0.00000000000E+00 0. -1.
         -3    1    4    4    0  501  0.11217557018E+03  0.12101260821E+03 -0.13546221522E+04  0.13646349641E+04  0.00000000000E+00 0.  1.
          5    1    3    3  502    0 -0.25249764726E+02 -0.89111125149E+01 -0.18745079155E+03  0.18941184704E+03  0.47000000000E+01 0. -1.
         13    1    6    6    0    0 -0.12006058422E+03 -0.54976471029E+01 -0.15377175396E+03  0.19516792852E+03  0.00000000000E+00 0. -1.
        -14    1    6    6    0    0 -0.18296597661E+02 -0.21663891004E+02 -0.11666952998E+03  0.12006610215E+03  0.00000000000E+00 0.  1.
         -5    1    5    5    0  503 -0.11197515402E+02 -0.95157072081E+02 -0.19386691916E+03  0.21630239264E+03  0.47000000000E+01 0.  1.
<mgrwt>
<rscale>  2 0.25960116E+03</rscale>
<asrwt>0</asrwt>
<pdfrwt beam="1">  1       21 0.65464406E-02 0.25988725E+03</pdfrwt>
<pdfrwt beam="2">  1       21 0.36725219E+00 0.25988725E+03</pdfrwt>
<totfact> 0.21623143E+03</totfact>
</mgrwt>
</event>
<event>
12    1  0.1473662E-001  0.1857303E+03  0.7546771E-02  0.1163954E+00
         21   -1    0    0  504  503  0.00000000000E+00  0.00000000000E+00  0.34892843415E+03  0.34892843415E+03  0.00000000000E+00 0. -1.
         21   -1    0    0  502  504 -0.00000000000E+00 -0.00000000000E+00 -0.13246976004E+03  0.13246976004E+03  0.00000000000E+00 0. -1.
          6    2    1    2  502    0 -0.36354246699E+02 -0.26410866744E+02 -0.17770212292E+02  0.18657842361E+03  0.18021254833E+03 0.  0.
         24    2    3    3    0    0 -0.49058638292E+02  0.45781990355E+02 -0.35290034009E+02  0.11106521725E+03  0.81162524294E+02 0.  0.
         -6    2    1    2    0  503  0.36354246699E+02  0.26410866744E+02  0.23422888640E+03  0.29481977058E+03  0.17331001346E+03 0.  0.
        -24    2    5    5    0    0  0.70555698909E+01  0.79217209887E+02  0.18285901396E+03  0.21539763177E+03  0.81446751784E+02 0.  0.
          4    1    4    4  501    0 -0.71721980716E+02  0.37672854984E+02 -0.30217719598E+02  0.86466161579E+02  0.00000000000E+00 0. -1.
         -3    1    4    4    0  501  0.22663342424E+02  0.81091353709E+01 -0.50723144113E+01  0.24599055668E+02  0.00000000000E+00 0.  1.
          5    1    3    3  502    0  0.12704391593E+02 -0.72192857100E+02  0.17519821717E+02  0.75513206361E+02  0.47000000000E+01 0. -1.
         11    1    6    6    0    0 -0.39170187224E+00 -0.71131055237E+01  0.82499338550E+02  0.82806343729E+02  0.00000000000E+00 0. -1.
        -12    1    6    6    0    0  0.74472717632E+01  0.86330315410E+02  0.10035967541E+03  0.13259128804E+03  0.00000000000E+00 0.  1.
         -5    1    5    5    0  503  0.29298676808E+02 -0.52806343142E+02  0.51369872442E+02  0.79422138812E+02  0.47000000000E+01 0.  1.
<mgrwt>
<rscale>  2 0.18403476E+03</rscale>
<asrwt>0</asrwt>
<pdfrwt beam="1">  1       21 0.53681297E-01 0.18573026E+03</pdfrwt>
<pdfrwt beam="2">  1       21 0.20379963E-01 0.18573026E+03</pdfrwt>
<totfact> 0.73378479E+04</totfact>
</mgrwt>
</event>
<event>
12    1  0.1473662E-001  0.1811384E+03  0.7546771E-02  0.1166986E+00
         21   -1    0    0  504  503  0.00000000000E+00  0.00000000000E+00  0.12699626585E+03  0.12699626585E+03  0.00000000000E+00 0.  1.
         21   -1    0    0  502  504 -0.00000000000E+00 -0.00000000000E+00 -0.45665126153E+03  0.45665126153E+03  0.00000000000E+00 0.  1.
          6    2    1    2  502    0 -0.28630462758E+01 -0.53617549622E+02 -0.35762984250E+03  0.40036161353E+03  0.17177682812E+03 0.  0.
         24    2    3    3    0    0 -0.75412930643E+02 -0.26009146653E+02 -0.16421238912E+03  0.19189552298E+03  0.59115118044E+02 0.  0.
         -6    2    1    2    0  503  0.28630462758E+01  0.53617549622E+02  0.27974846822E+02  0.18328591385E+03  0.17299738582E+03 0.  0.
        -24    2    5    5    0    0  0.32141328941E+02 -0.12982197531E+02  0.54217689279E+02  0.10580352271E+03  0.83983481163E+02 0.  0.
          2    1    4    4  501    0 -0.62441237031E+02 -0.88379295877E+01 -0.65734108668E+02  0.91093304495E+02  0.00000000000E+00 0. -1.
         -1    1    4    4    0  501 -0.12971693612E+02 -0.17171217066E+02 -0.98478280454E+02  0.10080221849E+03  0.00000000000E+00 0.  1.
          5    1    3    3  502    0  0.72549884367E+02 -0.27608402969E+02 -0.19341745338E+03  0.20846609055E+03  0.47000000000E+01 0. -1.
         13    1    6    6    0    0  0.92401895165E+01 -0.47294827783E+02  0.38415699555E+02  0.61627492320E+02  0.00000000000E+00 0. -1.
        -14    1    6    6    0    0  0.22901139424E+02  0.34312630253E+02  0.15801989724E+02  0.44176030390E+02  0.00000000000E+00 0.  1.
         -5    1    5    5    0  503 -0.29278282665E+02  0.66599747153E+02 -0.26242842457E+02  0.77482391141E+02  0.47000000000E+01 0.  1.
<mgrwt>
<rscale>  2 0.18084640E+03</rscale>
<asrwt>0</asrwt>
<pdfrwt beam="1">  1       21 0.19537887E-01 0.18113844E+03</pdfrwt>
<pdfrwt beam="2">  1       21 0.70254040E-01 0.18113844E+03</pdfrwt>
<totfact> 0.44574431E+04</totfact>
</mgrwt>
</event>
<event>
12    1  0.1473662E-001  0.2929171E+03  0.7546771E-02  0.1088843E+00
         21   -1    0    0  504  503  0.00000000000E+00  0.00000000000E+00  0.91632145859E+02  0.91632145859E+02  0.00000000000E+00 0. -1.
         21   -1    0    0  502  504 -0.00000000000E+00 -0.00000000000E+00 -0.96981630314E+03  0.96981630314E+03  0.00000000000E+00 0. -1.
          6    2    1    2  502    0  0.20672848950E+03  0.11396374704E+03 -0.34030561808E+03  0.44900819198E+03  0.17342444684E+03 0.  0.
         24    2    3    3    0    0  0.15005997020E+03  0.74087223357E+02 -0.33007045578E+03  0.37880629195E+03  0.80875148979E+02 0.  0.
         -6    2    1    2    0  503 -0.20672848950E+03 -0.11396374704E+03 -0.53787853921E+03  0.61244025702E+03  0.17333592090E+03 0.  0.
        -24    2    5    5    0    0 -0.85417080629E+02 -0.28094748406E+02 -0.37829453213E+03  0.39431394462E+03  0.65508330245E+02 0.  0.
          4    1    4    4  501    0  0.15388750823E+03  0.51497178273E+02 -0.27759135471E+03  0.32154359699E+03  0.00000000000E+00 0. -1.
         -3    1    4    4    0  501 -0.38275380344E+01  0.22590045083E+02 -0.52479101073E+02  0.57262694957E+02  0.00000000000E+00 0.  1.
          5    1    3    3  502    0  0.56668519302E+02  0.39876523679E+02 -0.10235162300E+02  0.70201900030E+02  0.47000000000E+01 0. -1.
         11    1    6    6    0    0 -0.59454847406E+02  0.13591730769E+02 -0.18099584433E+03  0.19099505148E+03  0.00000000000E+00 0. -1.
        -12    1    6    6    0    0 -0.25962233223E+02 -0.41686479175E+02 -0.19729868781E+03  0.20331889315E+03  0.00000000000E+00 0.  1.
         -5    1    5    5    0  503 -0.12131140887E+03 -0.85868998629E+02 -0.15958400707E+03  0.21812631240E+03  0.47000000000E+01 0.  1.
<mgrwt>
<rscale>  2 0.29290402E+03</rscale>
<asrwt>0</asrwt>
<pdfrwt beam="1">  1       21 0.14097253E-01 0.29291713E+03</pdfrwt>
<pdfrwt beam="2">  1       21 0.14920251E+00 0.29291713E+03</pdfrwt>
<totfact> 0.12528447E+04</totfact>
</mgrwt>
</event>
<event>
12    1  0.1473662E-001  0.2169811E+03  0.7546771E-02  0.1136289E+00
         21   -1    0    0  504  503  0.00000000000E+00  0.00000000000E+00  0.71506230737E+02  0.71506230737E+02  0.00000000000E+00 0. -1.
         21   -1    0    0  502  504 -0.00000000000E+00 -0.00000000000E+00 -0.70681025377E+03  0.70681025377E+03  0.00000000000E+00 0.  1.
          6    2    1    2  502    0 -0.13068548193E+03 -0.37147365112E+01 -0.42123559551E+03  0.47351146467E+03  0.17228228522E+03 0.  0.
         24    2    3    3    0    0 -0.13000520483E+03  0.45498575239E+02 -0.36499543188E+03  0.39862849709E+03  0.81923987703E+02 0.  0.
         -6    2    1    2    0  503  0.13068548193E+03  0.37147365112E+01 -0.21406842752E+03  0.30480501983E+03  0.17317134289E+03 0.  0.
        -24    2    5    5    0    0  0.12219573489E+03  0.48887884808E+02 -0.10785471419E+03  0.18897699200E+03  0.82206089945E+02 0.  0.
          4    1    4    4  501    0 -0.11810266059E+03  0.56763156095E+02 -0.24798574049E+03  0.28047677589E+03  0.00000000000E+00 0. -1.
         -3    1    4    4    0  501 -0.11902544241E+02 -0.11264580856E+02 -0.11700969139E+03  0.11815172119E+03  0.00000000000E+00 0.  1.
          5    1    3    3  502    0 -0.68027710219E+00 -0.49213311750E+02 -0.56240163621E+02  0.74882967586E+02  0.47000000000E+01 0. -1.
         11    1    6    6    0    0  0.40900750187E+02 -0.80992425295E+01  0.92296369993E+00  0.41705167034E+02  0.00000000000E+00 0. -1.
        -12    1    6    6    0    0  0.81294984706E+02  0.56987127338E+02 -0.10877767789E+03  0.14727182496E+03  0.00000000000E+00 0.  1.
         -5    1    5    5    0  503  0.84897470355E+01 -0.45173148297E+02 -0.10621371333E+03  0.11582802784E+03  0.47000000000E+01 0.  1.
<mgrwt>
<rscale>  2 0.21680369E+03</rscale>
<asrwt>0</asrwt>
<pdfrwt beam="1">  1       21 0.11000959E-01 0.21698112E+03</pdfrwt>
<pdfrwt beam="2">  1       21 0.10874004E+00 0.21698112E+03</pdfrwt>
<totfact> 0.45438411E+04</totfact>
</mgrwt>
</event>
<event>
12    1  0.1473662E-001  0.2000282E+03  0.7546771E-02  0.1150421E+00
         21   -1    0    0  504  503  0.00000000000E+00  0.00000000000E+00  0.21274327886E+03  0.21274327886E+03  0.00000000000E+00 0. -1.
         21   -1    0    0  502  504 -0.00000000000E+00 -0.00000000000E+00 -0.26336780330E+03  0.26336780330E+03  0.00000000000E+00 0. -1.
          6    2    1    2  502    0 -0.63742266268E+02  0.73147106694E+02 -0.15504592274E+03  0.25046735835E+03  0.17111716370E+03 0.  0.
         24    2    3    3    0    0 -0.84221462012E+02 -0.35706371919E+01 -0.10065925610E+03  0.15410860580E+03  0.80691836199E+02 0.  0.
         -6    2    1    2    0  503  0.63742266268E+02 -0.73147106694E+02  0.10442139830E+03  0.22564372381E+03  0.17492194243E+03 0.  0.
        -24    2    5    5    0    0  0.17714070596E+02 -0.94874049245E+01  0.11860913093E+03  0.14567789246E+03  0.82159133760E+02 0.  0.
          4    1    4    4  501    0 -0.92554425433E+02 -0.56947209020E+01 -0.10832109545E+03  0.14259106295E+03  0.00000000000E+00 0. -1.
         -3    1    4    4    0  501  0.83329634211E+01  0.21240837101E+01  0.76618393526E+01  0.11517542848E+02  0.00000000000E+00 0.  1.
          5    1    3    3  502    0  0.20479195744E+02  0.76717743886E+02 -0.54386666644E+02  0.96358752555E+02  0.47000000000E+01 0. -1.
         11    1    6    6    0    0  0.93751260340E+01  0.28090432970E+02  0.11338124562E+02  0.31709911403E+02  0.00000000000E+00 0. -1.
        -12    1    6    6    0    0  0.83389445617E+01 -0.37577837895E+02  0.10727100637E+03  0.11396798105E+03  0.00000000000E+00 0.  1.
         -5    1    5    5    0  503  0.46028195672E+02 -0.63659701770E+02 -0.14187732633E+02  0.79965831350E+02  0.47000000000E+01 0.  1.
<mgrwt>
<rscale>  2 0.19919330E+03</rscale>
<asrwt>0</asrwt>
<pdfrwt beam="1">  1       21 0.32729735E-01 0.20002815E+03</pdfrwt>
<pdfrwt beam="2">  1       21 0.40518123E-01 0.20002815E+03</pdfrwt>
<totfact> 0.52543742E+04</totfact>
</mgrwt>
</event>
<event>
12    1  0.1473662E-001  0.1995594E+03  0.7546771E-02  0.1150135E+00
         21   -1    0    0  504  503  0.00000000000E+00  0.00000000000E+00  0.10146717950E+03  0.10146717950E+03  0.00000000000E+00 0.  1.
         21   -1    0    0  502  504 -0.00000000000E+00 -0.00000000000E+00 -0.41854545309E+03  0.41854545309E+03  0.00000000000E+00 0. -1.
          6    2    1    2  502    0  0.95949023719E+02 -0.12792868234E+02 -0.22365939960E+03  0.29966959686E+03  0.17438023862E+03 0.  0.
         24    2    3    3    0    0  0.93157297775E+02  0.50686797816E+02 -0.17712917647E+03  0.22077337768E+03  0.78222155017E+02 0.  0.
         -6    2    1    2    0  503 -0.95949023719E+02  0.12792868234E+02 -0.93418873995E+02  0.22034303573E+03  0.17451101611E+03 0.  0.
        -24    2    5    5    0    0 -0.11583088365E+03  0.54082428701E+02 -0.59585975434E+02  0.16318648595E+03  0.82083116572E+02 0.  0.
          4    1    4    4  501    0  0.22672866553E+02  0.42053992787E+02 -0.12153537678E+03  0.13058883948E+03  0.00000000000E+00 0. -1.
         -3    1    4    4    0  501  0.70484431222E+02  0.86328050290E+01 -0.55593799687E+02  0.90184538204E+02  0.00000000000E+00 0.  1.
          5    1    3    3  502    0  0.27917259442E+01 -0.63479666050E+02 -0.46530223132E+02  0.78896219176E+02  0.47000000000E+01 0. -1.
         13    1    6    6    0    0 -0.79803612830E+02  0.23940125763E+02 -0.76647450144E+02  0.11321032575E+03  0.00000000000E+00 0. -1.
        -14    1    6    6    0    0 -0.36027270820E+02  0.30142302938E+02  0.17061474710E+02  0.49976160201E+02  0.00000000000E+00 0.  1.
         -5    1    5    5    0  503  0.19881859930E+02 -0.41289560467E+02 -0.33832898561E+02  0.57156549781E+02  0.47000000000E+01 0.  1.
<mgrwt>
<rscale>  2 0.19953084E+03</rscale>
<asrwt>0</asrwt>
<pdfrwt beam="1">  1       21 0.15610335E-01 0.19955943E+03</pdfrwt>
<pdfrwt beam="2">  1       21 0.64391608E-01 0.19955943E+03</pdfrwt>
<totfact> 0.80898562E+04</totfact>
</mgrwt>
</event>
<event>
12    1  0.1473662E-001  0.1907606E+03  0.7546771E-02  0.1158531E+00
         21   -1    0    0  504  503  0.00000000000E+00  0.00000000000E+00  0.10088628977E+03  0.10088628977E+03  0.00000000000E+00 0. -1.
         21   -1    0    0  502  504 -0.00000000000E+00 -0.00000000000E+00 -0.40314925330E+03  0.40314925330E+03  0.00000000000E+00 0. -1.
          6    2    1    2  502    0 -0.62628161641E+02  0.40081551846E+02 -0.23990234784E+03  0.30650082680E+03  0.17567243067E+03 0.  0.
         24    2    3    3    0    0 -0.22551646616E+02  0.85732205299E+02 -0.10560306937E+03  0.15902711587E+03  0.79240315061E+02 0.  0.
         -6    2    1    2    0  503  0.62628161641E+02 -0.40081551846E+02 -0.62360615690E+02  0.19753471627E+03  0.17205319037E+03 0.  0.
        -24    2    5    5    0    0  0.69229614117E+02 -0.27872039469E+02 -0.10561845569E+03  0.15186216337E+03  0.79606962173E+02 0.  0.
          2    1    4    4  501    0 -0.62363841662E+01  0.56909084823E+01 -0.68999135919E+02  0.69513737379E+02  0.00000000000E+00 0. -1.
         -1    1    4    4    0  501 -0.16315262449E+02  0.80041296817E+02 -0.36603933455E+02  0.89513378494E+02  0.00000000000E+00 0.  1.
          5    1    3    3  502    0 -0.40076515026E+02 -0.45650653453E+02 -0.13429927847E+03  0.14747371092E+03  0.47000000000E+01 0. -1.
         11    1    6    6    0    0 -0.11849540939E+02  0.12681514194E+01  0.38791631320E+01  0.12532666719E+02  0.00000000000E+00 0. -1.
        -12    1    6    6    0    0  0.81079155056E+02 -0.29140190889E+02 -0.10949761882E+03  0.13932949665E+03  0.00000000000E+00 0.  1.
         -5    1    5    5    0  503 -0.66014524752E+01 -0.12209512377E+02  0.43257840000E+02  0.45672552904E+02  0.47000000000E+01 0.  1.
<mgrwt>
<rscale>  2 0.18992322E+03</rscale>
<asrwt>0</asrwt>
<pdfrwt beam="1">  1       21 0.15520968E-01 0.19076064E+03</pdfrwt>
<pdfrwt beam="2">  1       21 0.62022961E-01 0.19076064E+03</pdfrwt>
<totfact> 0.89001527E+04</totfact>
</mgrwt>
</event>
<event>
12    1  0.1473662E-001  0.1731968E+03  0.7546771E-02  0.1174923E+00
         21   -1    0    0  504  503  0.00000000000E+00  0.00000000000E+00  0.61213728684E+02  0.61213728684E+02  0.00000000000E+00 0.  1.
         21   -1    0    0  502  504 -0.00000000000E+00 -0.00000000000E+00 -0.63270023038E+03  0.63270023038E+03  0.00000000000E+00 0.  1.
          6    2    1    2  502    0 -0.45750347317E+01  0.30441849647E+01 -0.45191199492E+03  0.48344974532E+03  0.17166539281E+03 0.  0.
         24    2    3    3    0    0  0.26670969865E+02 -0.20752367853E+01 -0.44185208916E+03  0.44989660856E+03  0.80361946587E+02 0.  0.
         -6    2    1    2    0  503  0.45750347317E+01 -0.30441849647E+01 -0.11957450677E+03  0.21046421374E+03  0.17310957395E+03 0.  0.
        -24    2    5    5    0    0  0.33138589140E+02  0.18511359816E+02 -0.14208175526E+03  0.16792970557E+03  0.81069872970E+02 0.  0.
          4    1    4    4  501    0  0.77177090049E+01 -0.36905316838E+02 -0.12470140069E+03  0.13027664709E+03  0.00000000000E+00 0. -1.
         -3    1    4    4    0  501  0.18953260860E+02  0.34830080053E+02 -0.31715068847E+03  0.31961996147E+03  0.00000000000E+00 0.  1.
          5    1    3    3  502    0 -0.31246004596E+02  0.51194217500E+01 -0.10059905763E+02  0.33553136757E+02  0.47000000000E+01 0. -1.
         11    1    6    6    0    0 -0.16602506565E+02  0.29963023555E+02 -0.33325907465E+02  0.47791653174E+02  0.00000000000E+00 0. -1.
        -12    1    6    6    0    0  0.49741095705E+02 -0.11451663739E+02 -0.10875584779E+03  0.12013805239E+03  0.00000000000E+00 0.  1.
         -5    1    5    5    0  503 -0.28563554408E+02 -0.21555544781E+02  0.22507248485E+02  0.42534508174E+02  0.47000000000E+01 0.  1.
<mgrwt>
<rscale>  2 0.17283478E+03</rscale>
<asrwt>0</asrwt>
<pdfrwt beam="1">  1       21 0.94174969E-02 0.17319677E+03</pdfrwt>
<pdfrwt beam="2">  1       21 0.97338495E-01 0.17319677E+03</pdfrwt>
<totfact> 0.79606457E+04</totfact>
</mgrwt>
</event>
<event>
12    1  0.1473662E-001  0.2277186E+03  0.7546771E-02  0.1129348E+00
         21   -1    0    0  504  503  0.00000000000E+00  0.00000000000E+00  0.53949474851E+02  0.53949474851E+02  0.00000000000E+00 0. -1.
         21   -1    0    0  502  504 -0.00000000000E+00 -0.00000000000E+00 -0.95547014414E+03  0.95547014414E+03  0.00000000000E+00 0. -1.
          6    2    1    2  502    0 -0.14551666662E+03 -0.16469271100E+02 -0.37255664476E+03  0.43352143784E+03  0.16642129176E+03 0.  0.
         24    2    3    3    0    0 -0.83696484339E+02  0.78753357615E+01 -0.10110281929E+03  0.15401533024E+03  0.80198625150E+02 0.  0.
         -6    2    1    2    0  503  0.14551666662E+03  0.16469271100E+02 -0.52896402453E+03  0.57589818116E+03  0.17438302285E+03 0.  0.
        -24    2    5    5    0    0  0.14633628340E+03 -0.33701492028E+02 -0.46017127647E+03  0.49062034448E+03  0.80003876883E+02 0.  0.
          2    1    4    4  501    0 -0.91423271453E+02 -0.13870260527E+02 -0.74114166458E+02  0.11850530942E+03  0.00000000000E+00 0. -1.
         -1    1    4    4    0  501  0.77267871137E+01  0.21745596289E+02 -0.26988652834E+02  0.35510020823E+02  0.00000000000E+00 0.  1.
          5    1    3    3  502    0 -0.61820182285E+02 -0.24344606861E+02 -0.27145382547E+03  0.27950610760E+03  0.47000000000E+01 0. -1.
         11    1    6    6    0    0  0.64289277346E+02 -0.34870952441E+02 -0.11865488836E+03  0.13938463702E+03  0.00000000000E+00 0. -1.
        -12    1    6    6    0    0  0.82047006056E+02  0.11694604134E+01 -0.34151638811E+03  0.35123570745E+03  0.00000000000E+00 0.  1.
         -5    1    5    5    0  503 -0.81961677856E+00  0.50170763127E+02 -0.68792748056E+02  0.85277836684E+02  0.47000000000E+01 0.  1.
<mgrwt>
<rscale>  2 0.22619393E+03</rscale>
<asrwt>0</asrwt>
<pdfrwt beam="1">  1       21 0.82999193E-02 0.22771863E+03</pdfrwt>
<pdfrwt beam="2">  1       21 0.14699540E+00 0.22771863E+03</pdfrwt>
<totfact> 0.34762389E+04</totfact>
</mgrwt>
</event>
<event>
12    1  0.1473662E-001  0.2116778E+03  0.7546771E-02  0.1140270E+00
         21   -1    0    0  504  503  0.00000000000E+00  0.00000000000E+00  0.11330047302E+03  0.11330047302E+03  0.00000000000E+00 0.  1.
         21   -1    0    0  502  504 -0.00000000000E+00 -0.00000000000E+00 -0.85050680112E+03  0.85050680112E+03  0.00000000000E+00 0.  1.
          6    2    1    2  502    0  0.11299224940E+03  0.43520205306E+02 -0.72113121854E+03  0.75152000304E+03  0.17346706866E+03 0.  0.
         24    2    3    3    0    0  0.14785510756E+03  0.23094379855E+02 -0.57251331712E+03  0.59743559809E+03  0.82239360230E+02 0.  0.
         -6    2    1    2    0  503 -0.11299224940E+03 -0.43520205306E+02 -0.16075109551E+02  0.21228727111E+03  0.17362666740E+03 0.  0.
        -24    2    5    5    0    0 -0.97260363560E+02 -0.93108201691E+02 -0.26341536429E+02  0.15905240341E+03  0.80467850401E+02 0.  0.
          2    1    4    4  501    0  0.10253930651E+03  0.76727074808E+01 -0.23455249049E+03  0.25610164118E+03  0.00000000000E+00 0. -1.
         -1    1    4    4    0  501  0.45315801051E+02  0.15421672374E+02 -0.33796082663E+03  0.34133395691E+03  0.00000000000E+00 0.  1.
          5    1    3    3  502    0 -0.34862858159E+02  0.20425825451E+02 -0.14861790142E+03  0.15408440495E+03  0.47000000000E+01 0. -1.
         13    1    6    6    0    0 -0.58788075932E+02 -0.36782086271E+01 -0.32244515904E+01  0.58991221199E+02  0.00000000000E+00 0. -1.
        -14    1    6    6    0    0 -0.38472287628E+02 -0.89429993063E+02 -0.23117084839E+02  0.10006118221E+03  0.00000000000E+00 0.  1.
         -5    1    5    5    0  503 -0.15731885838E+02  0.49587996385E+02  0.10266426879E+02  0.53234867693E+02  0.47000000000E+01 0.  1.
<mgrwt>
<rscale>  2 0.21164504E+03</rscale>
<asrwt>0</asrwt>
<pdfrwt beam="1">  1       21 0.17430842E-01 0.21167777E+03</pdfrwt>
<pdfrwt beam="2">  1       21 0.13084720E+00 0.21167777E+03</pdfrwt>
<totfact> 0.12501728E+04</totfact>
</mgrwt>
</event>
<event>
12    1  0.1473662E-001  0.2612767E+03  0.7546771E-02  0.1106624E+00
         21   -1    0    0  504  503  0.00000000000E+00  0.00000000000E+00  0.20013865700E+03  0.20013865700E+03  0.00000000000E+00 0.  1.
         21   -1    0    0  502  504 -0.00000000000E+00 -0.00000000000E+00 -0.38114770075E+03  0.38114770075E+03  0.00000000000E+00 0.  1.
          6    2    1    2  502    0  0.14614925349E+03  0.12844200491E+03 -0.18694869473E+03  0.31994215018E+03  0.17191920218E+03 0.  0.
         24    2    3    3    0    0  0.11346522704E+03  0.12722992214E+03 -0.73712925813E+02  0.20198391989E+03  0.79385752055E+02 0.  0.
         -6    2    1    2    0  503 -0.14614925349E+03 -0.12844200491E+03  0.59396509857E+01  0.26134420757E+03  0.17438051053E+03 0.  0.
        -24    2    5    5    0    0 -0.76472364767E+02 -0.11202293374E+03  0.61827290726E+02  0.17040481568E+03  0.82571345351E+02 0.  0.
          2    1    4    4  501    0  0.13870872085E+02 -0.10695435415E+02 -0.31050628318E+01  0.17788615638E+02  0.00000000000E+00 0. -1.
         -1    1    4    4    0  501  0.99594354951E+02  0.13792535756E+03 -0.70607862981E+02  0.18419530426E+03  0.00000000000E+00 0.  1.
          5    1    3    3  502    0  0.32684026458E+02  0.12120827715E+01 -0.11323576892E+03  0.11795823029E+03  0.47000000000E+01 0. -1.
         13    1    6    6    0    0  0.15074279568E+02 -0.15089106216E+01  0.80278405117E+01  0.17145172470E+02  0.00000000000E+00 0. -1.
        -14    1    6    6    0    0 -0.91546644334E+02 -0.11051402312E+03  0.53799450215E+02  0.15325964321E+03  0.00000000000E+00 0.  1.
         -5    1    5    5    0  503 -0.69676888727E+02 -0.16419071174E+02 -0.55887639741E+02  0.90939391887E+02  0.47000000000E+01 0.  1.
<mgrwt>
<rscale>  2 0.26086668E+03</rscale>
<asrwt>0</asrwt>
<pdfrwt beam="1">  1       21 0.30790563E-01 0.26127670E+03</pdfrwt>
<pdfrwt beam="2">  1       21 0.58638108E-01 0.26127670E+03</pdfrwt>
<totfact> 0.26634420E+04</totfact>
</mgrwt>
</event>
<event>
12    1  0.1473662E-001  0.1797330E+03  0.7546771E-02  0.1168326E+00
         21   -1    0    0  504  503  0.00000000000E+00  0.00000000000E+00  0.12837995066E+03  0.12837995066E+03  0.00000000000E+00 0. -1.
         21   -1    0    0  502  504 -0.00000000000E+00 -0.00000000000E+00 -0.26884380556E+03  0.26884380556E+03  0.00000000000E+00 0. -1.
          6    2    1    2  502    0  0.36048429042E+02 -0.29414757224E+02 -0.12246422556E+03  0.21659171387E+03  0.17248120708E+03 0.  0.
         24    2    3    3    0    0 -0.47006204236E+02 -0.18819400867E+02 -0.68435848451E+02  0.11683456266E+03  0.80019351359E+02 0.  0.
         -6    2    1    2    0  503 -0.36048429042E+02  0.29414757224E+02 -0.17999629343E+02  0.18063204235E+03  0.17360654045E+03 0.  0.
        -24    2    5    5    0    0  0.21473737790E+02 -0.97419762337E+01 -0.57780366813E+02  0.10034103086E+03  0.78573049895E+02 0.  0.
          2    1    4    4  501    0 -0.27553862519E+02 -0.48354118244E+02 -0.57006160407E+02  0.79668302450E+02  0.00000000000E+00 0. -1.
         -1    1    4    4    0  501 -0.19452341717E+02  0.29534717377E+02 -0.11429688043E+02  0.37166260205E+02  0.00000000000E+00 0.  1.
          5    1    3    3  502    0  0.83054633278E+02 -0.10595356358E+02 -0.54028377108E+02  0.99757151214E+02  0.47000000000E+01 0. -1.
         11    1    6    6    0    0 -0.52714212299E+01 -0.21040298455E+02  0.11980682716E+02  0.24779402720E+02  0.00000000000E+00 0. -1.
        -12    1    6    6    0    0  0.26745159019E+02  0.11298322221E+02 -0.69761049529E+02  0.75561628141E+02  0.00000000000E+00 0.  1.
         -5    1    5    5    0  503 -0.57522166832E+02  0.39156733458E+02  0.39780737470E+02  0.80291011488E+02  0.47000000000E+01 0.  1.
<mgrwt>
<rscale>  2 0.17946069E+03</rscale>
<asrwt>0</asrwt>
<pdfrwt beam="1">  1       21 0.19750762E-01 0.17973299E+03</pdfrwt>
<pdfrwt beam="2">  1       21 0.41360585E-01 0.17973299E+03</pdfrwt>
<totfact> 0.13359433E+05</totfact>
</mgrwt>
</event>
<event>
12    1  0.1473662E-001  0.1814530E+03  0.7546771E-02  0.1166601E+00
         21   -1    0    0  504  503  0.00000000000E+00  0.00000000000E+00  0.17618530199E+02  0.17618530199E+02  0.00000000000E+00 0.  1.
         21   -1    0    0  502  504 -0.00000000000E+00 -0.00000000000E+00 -0.18876232919E+04  0.18876232919E+04  0.00000000000E+00 0.  1.
          6    2    1    2  502    0 -0.41043367702E+02  0.35100182883E+02 -0.10515739761E+04  0.10671143421E+04  0.17322993696E+03 0.  0.
         24    2    3    3    0    0  0.43973984742E+02  0.15547736267E+02 -0.59812038312E+03  0.60532164038E+03  0.80565825100E+02 0.  0.
         -6    2    1    2    0  503  0.41043367702E+02 -0.35100182883E+02 -0.81843078556E+03  0.83812747995E+03  0.17237210046E+03 0.  0.
        -24    2    5    5    0    0 -0.42527897996E+02  0.27544928750E-01 -0.38691173940E+03  0.39716388631E+03  0.78929307853E+02 0.  0.
          4    1    4    4  501    0  0.17516617221E+02 -0.64272839760E+01 -0.51538086102E+03  0.51571850245E+03  0.00000000000E+00 0. -1.
         -3    1    4    4    0  501  0.26457367521E+02  0.21975020243E+02 -0.82739522095E+02  0.89603137933E+02  0.00000000000E+00 0.  1.
          5    1    3    3  502    0 -0.85017352443E+02  0.19552446617E+02 -0.45345359299E+03  0.46179270174E+03  0.47000000000E+01 0. -1.
         11    1    6    6    0    0  0.91773422354E+01 -0.21108033627E+02 -0.43259916530E+02  0.49001970085E+02  0.00000000000E+00 0. -1.
        -12    1    6    6    0    0 -0.51705240232E+02  0.21135578556E+02 -0.34365182287E+03  0.34816191622E+03  0.00000000000E+00 0.  1.
         -5    1    5    5    0  503  0.83571265698E+02 -0.35127727812E+02 -0.43151904616E+03  0.44096359364E+03  0.47000000000E+01 0.  1.
<mgrwt>
<rscale>  2 0.18124796E+03</rscale>
<asrwt>0</asrwt>
<pdfrwt beam="1">  1       21 0.27105433E-02 0.18145300E+03</pdfrwt>
<pdfrwt beam="2">  1       21 0.29040356E+00 0.18145300E+03</pdfrwt>
<totfact> 0.29314051E+04</totfact>
</mgrwt>
</event>
<event>
12    1  0.1473662E-001  0.2387113E+03  0.7546771E-02  0.1120774E+00
         21   -1    0    0  504  503  0.00000000000E+00  0.00000000000E+00  0.13489128368E+03  0.13489128368E+03  0.00000000000E+00 0. -1.
         21   -1    0    0  502  504 -0.00000000000E+00 -0.00000000000E+00 -0.57282828304E+03  0.57282828304E+03  0.00000000000E+00 0. -1.
          6    2    1    2  502    0 -0.14280243594E+03  0.80811352633E+02 -0.40127817517E+03  0.46691248070E+03  0.17337843102E+03 0.  0.
         24    2    3    3    0    0 -0.69668003817E+01  0.13009337874E+02 -0.18720999873E+03  0.20443256289E+03  0.80791769153E+02 0.  0.
         -6    2    1    2    0  503  0.14280243594E+03 -0.80811352633E+02 -0.36658824194E+02  0.24080708601E+03  0.17239829714E+03 0.  0.
        -24    2    5    5    0    0  0.16047609908E+03 -0.10186137704E+03 -0.40106039753E+02  0.21271019666E+03  0.86653417865E+02 0.  0.
          2    1    4    4  501    0 -0.15660394840E+02 -0.21862881091E+02 -0.20293233604E+02  0.33690486287E+02  0.00000000000E+00 0. -1.
         -1    1    4    4    0  501  0.86935944581E+01  0.34872218965E+02 -0.16691676513E+03  0.17074207660E+03  0.00000000000E+00 0.  1.
          5    1    3    3  502    0 -0.13583563556E+03  0.67802014758E+02 -0.21406817643E+03  0.26247991781E+03  0.47000000000E+01 0. -1.
         11    1    6    6    0    0  0.12798072703E+03 -0.34846244785E+02 -0.38884919657E+02  0.13822215540E+03  0.00000000000E+00 0. -1.
        -12    1    6    6    0    0  0.32495372056E+02 -0.67015132257E+02 -0.12211200959E+01  0.74488041260E+02  0.00000000000E+00 0.  1.
         -5    1    5    5    0  503 -0.17673663139E+02  0.21050024410E+02  0.34472155587E+01  0.28096889356E+02  0.47000000000E+01 0.  1.
<mgrwt>
<rscale>  2 0.23853338E+03</rscale>
<asrwt>0</asrwt>
<pdfrwt beam="1">  1       21 0.20752506E-01 0.23871131E+03</pdfrwt>
<pdfrwt beam="2">  1       21 0.88127426E-01 0.23871131E+03</pdfrwt>
<totfact> 0.23157978E+04</totfact>
</mgrwt>
</event>
<event>
12    1  0.1473662E-001  0.1741685E+03  0.7546771E-02  0.1174074E+00
         21   -1    0    0  504  503  0.00000000000E+00  0.00000000000E+00  0.14376745600E+03  0.14376745600E+03  0.00000000000E+00 0. -1.
         21   -1    0    0  502  504 -0.00000000000E+00 -0.00000000000E+00 -0.30373362724E+03  0.30373362724E+03  0.00000000000E+00 0. -1.
          6    2    1    2  502    0 -0.42395005705E+01 -0.16326058086E+02 -0.20489046548E+03  0.26763210618E+03  0.17135439263E+03 0.  0.
         24    2    3    3    0    0 -0.56098366313E+02 -0.21104248070E+01 -0.63912536907E+02  0.11667418975E+03  0.79853450672E+02 0.  0.
         -6    2    1    2    0  503  0.42395005705E+01  0.16326058086E+02  0.44924294246E+02  0.17986897706E+03  0.17334977115E+03 0.  0.
        -24    2    5    5    0    0  0.50158688424E+02  0.24688065623E+02  0.76097804758E+02  0.12354515669E+03  0.79668910154E+02 0.  0.
          4    1    4    4  501    0 -0.48163581490E+02  0.34944444348E+02 -0.42761671132E+02  0.73276225958E+02  0.00000000000E+00 0. -1.
         -3    1    4    4    0  501 -0.79347848237E+01 -0.37054869155E+02 -0.21150865774E+02  0.43397963792E+02  0.00000000000E+00 0.  1.
          5    1    3    3  502    0  0.51858865743E+02 -0.14215633279E+02 -0.14097792858E+03  0.15095791643E+03  0.47000000000E+01 0. -1.
         11    1    6    6    0    0  0.61855275660E-02 -0.25915880409E+02  0.23536797711E+02  0.35008766647E+02  0.00000000000E+00 0. -1.
        -12    1    6    6    0    0  0.50152502897E+02  0.50603946033E+02  0.52561007047E+02  0.88536390048E+02  0.00000000000E+00 0.  1.
         -5    1    5    5    0  503 -0.45919187854E+02 -0.83620075374E+01 -0.31173510512E+02  0.56323820368E+02  0.47000000000E+01 0.  1.
<mgrwt>
<rscale>  2 0.17366986E+03</rscale>
<asrwt>0</asrwt>
<pdfrwt beam="1">  1       21 0.22118070E-01 0.17416847E+03</pdfrwt>
<pdfrwt beam="2">  1       21 0.46728250E-01 0.17416847E+03</pdfrwt>
<totfact> 0.84421242E+04</totfact>
</mgrwt>
</event>
<event>
12    1  0.1473662E-001  0.1884926E+03  0.7546771E-02  0.1160965E+00
         21   -1    0    0  504  503  0.00000000000E+00  0.00000000000E+00  0.13819346777E+04  0.13819346777E+04  0.00000000000E+00 0.  1.
         21   -1    0    0  502  504 -0.00000000000E+00 -0.00000000000E+00 -0.25678017388E+02  0.25678017388E+02  0.00000000000E+00 0.  1.
          6    2    1    2  502    0  0.71049938917E+02  0.51869992834E+01  0.55870544774E+03  0.58809002082E+03  0.16918361765E+03 0.  0.
         24    2    3    3    0    0  0.80115251782E+02  0.60266286893E+01  0.56393881476E+03  0.57658510860E+03  0.89267165528E+02 0.  0.
         -6    2    1    2    0  503 -0.71049938917E+02 -0.51869992834E+01  0.79755121263E+03  0.81952267432E+03  0.17451211469E+03 0.  0.
        -24    2    5    5    0    0 -0.75495044785E+02 -0.95038712893E+01  0.80246108901E+03  0.81032532490E+03  0.83027148875E+02 0.  0.
          2    1    4    4  501    0  0.40944634095E+02  0.80193906287E+01  0.49885605997E+03  0.50059778491E+03  0.00000000000E+00 0. -1.
         -1    1    4    4    0  501  0.39170617687E+02 -0.19927619394E+01  0.65082754789E+02  0.75987323687E+02  0.00000000000E+00 0.  1.
          5    1    3    3  502    0 -0.90653128654E+01 -0.83962940586E+00 -0.52333670254E+01  0.11504912225E+02  0.47000000000E+01 0. -1.
         13    1    6    6    0    0 -0.40661137342E+02 -0.43826870003E+01  0.11665467964E+03  0.12361573652E+03  0.00000000000E+00 0. -1.
        -14    1    6    6    0    0 -0.34833907443E+02 -0.51211842890E+01  0.68580640937E+03  0.68670958838E+03  0.00000000000E+00 0.  1.
         -5    1    5    5    0  503  0.44451058686E+01  0.43168720059E+01 -0.49098763829E+01  0.91973494113E+01  0.47000000000E+01 0.  1.
<mgrwt>
<rscale>  2 0.18724985E+03</rscale>
<asrwt>0</asrwt>
<pdfrwt beam="1">  1       21 0.21260528E+00 0.18849264E+03</pdfrwt>
<pdfrwt beam="2">  1       21 0.39504653E-02 0.18849264E+03</pdfrwt>
<totfact> 0.44850686E+04</totfact>
</mgrwt>
</event>
<event>
12    1  0.1473662E-001  0.1980984E+03  0.7546771E-02  0.1151956E+00
         21   -1    0    0  504  503  0.00000000000E+00  0.00000000000E+00  0.11017882150E+04  0.11017882150E+04  0.00000000000E+00 0. -1.
         21   -1    0    0  502  504 -0.00000000000E+00 -0.00000000000E+00 -0.11534731641E+03  0.11534731641E+03  0.00000000000E+00 0. -1.
          6    2    1    2  502    0 -0.53789087853E+02 -0.75015578458E+02 -0.15394479690E+02  0.19590239529E+03  0.17210507108E+03 0.  0.
         24    2    3    3    0    0  0.22429152068E+01  0.13977878286E+01  0.36417658657E+02  0.87804404584E+02  0.79852258095E+02 0.  0.
         -6    2    1    2    0  503  0.53789087853E+02  0.75015578458E+02  0.10018353783E+04  0.10212331362E+04  0.17527803677E+03 0.  0.
        -24    2    5    5    0    0 -0.52523487034E+01  0.72331022430E+02  0.34839524775E+03  0.36510876357E+03  0.81644329947E+02 0.  0.
          4    1    4    4  501    0  0.97944782734E+01 -0.19967528037E+02  0.54467862332E+02  0.58833510923E+02  0.00000000000E+00 0. -1.
         -3    1    4    4    0  501 -0.75515630666E+01  0.21365315865E+02 -0.18050203675E+02  0.28970893661E+02  0.00000000000E+00 0.  1.
          5    1    3    3  502    0 -0.56032003060E+02 -0.76413366286E+02 -0.51812138347E+02  0.10809799070E+03  0.47000000000E+01 0. -1.
         11    1    6    6    0    0  0.25496559135E+02 -0.47891270247E+01  0.93559684038E+02  0.97089776715E+02  0.00000000000E+00 0. -1.
        -12    1    6    6    0    0 -0.30748907839E+02  0.77120149455E+02  0.25483556371E+03  0.26801898686E+03  0.00000000000E+00 0.  1.
         -5    1    5    5    0  503  0.59041436556E+02  0.26845560274E+01  0.65344013057E+03  0.65612437260E+03  0.47000000000E+01 0.  1.
<mgrwt>
<rscale>  2 0.19739423E+03</rscale>
<asrwt>0</asrwt>
<pdfrwt beam="1">  1       21 0.16950587E+00 0.19809844E+03</pdfrwt>
<pdfrwt beam="2">  1       21 0.17745742E-01 0.19809844E+03</pdfrwt>
<totfact> 0.61713293E+03</totfact>
</mgrwt>
</event>
<event>
12    1  0.1473662E-001  0.2076916E+03  0.7546771E-02  0.1143609E+00
         21   -1    0    0  504  503  0.00000000000E+00  0.00000000000E+00  0.28819433078E+04  0.28819433078E+04  0.00000000000E+00 0. -1.
         21   -1    0    0  502  504 -0.00000000000E+00 -0.00000000000E+00 -0.18881508984E+02  0.18881508984E+02  0.00000000000E+00 0. -1.
          6    2    1    2  502    0 -0.10567072165E+03 -0.39092277999E+02  0.21006781801E+04  0.21109203221E+04  0.17447430330E+03 0.  0.
         24    2    3    3    0    0 -0.93717667689E+02 -0.23953651865E+02  0.78349875374E+03  0.79359128780E+03  0.80994174462E+02 0.  0.
         -6    2    1    2    0  503  0.10567072165E+03  0.39092277999E+02  0.76238361880E+03  0.78990449472E+03  0.17327960338E+03 0.  0.
        -24    2    5    5    0    0 -0.53856846321E+01  0.33431549133E+02  0.22862513480E+03  0.24466530091E+03  0.80280652265E+02 0.  0.
          4    1    4    4  501    0 -0.66305312862E+01 -0.29208780118E+02  0.95606542194E+02  0.10018846087E+03  0.00000000000E+00 0. -1.
         -3    1    4    4    0  501 -0.87087136402E+02  0.52551282529E+01  0.68789221154E+03  0.69340282693E+03  0.00000000000E+00 0.  1.
          5    1    3    3  502    0 -0.11953053958E+02 -0.15138626134E+02  0.13171794263E+04  0.13173290343E+04  0.47000000000E+01 0. -1.
         11    1    6    6    0    0  0.25540505826E+02  0.28756020366E+02  0.48769685039E+02  0.62110452614E+02  0.00000000000E+00 0. -1.
        -12    1    6    6    0    0 -0.30926190458E+02  0.46755287666E+01  0.17985544976E+03  0.18255484829E+03  0.00000000000E+00 0.  1.
         -5    1    5    5    0  503  0.11105640628E+03  0.56607288660E+01  0.53375848400E+03  0.54523919381E+03  0.47000000000E+01 0.  1.
<mgrwt>
<rscale>  2 0.20744047E+03</rscale>
<asrwt>0</asrwt>
<pdfrwt beam="1">  1       21 0.44337554E+00 0.20769157E+03</pdfrwt>
<pdfrwt beam="2">  1       21 0.29048498E-02 0.20769157E+03</pdfrwt>
<totfact> 0.30066882E+03</totfact>
</mgrwt>
</event>
<event>
12    1  0.1473662E-001  0.2800300E+03  0.7546771E-02  0.1096228E+00
         21   -1    0    0  504  503  0.00000000000E+00  0.00000000000E+00  0.49407239904E+03  0.49407239904E+03  0.00000000000E+00 0.  1.
         21   -1    0    0  502  504 -0.00000000000E+00 -0.00000000000E+00 -0.20876260126E+03  0.20876260126E+03  0.00000000000E+00 0. -1.
          6    2    1    2  502    0 -0.10605991257E+03 -0.19048366325E+03  0.31936640539E+03  0.42474898081E+03  0.17573862634E+03 0.  0.
         24    2    3    3    0    0 -0.47999283882E+02 -0.56588149669E+02  0.22479598424E+03  0.25078145592E+03  0.82776531474E+02 0.  0.
         -6    2    1    2    0  503  0.10605991257E+03  0.19048366325E+03 -0.34056607608E+02  0.27808601949E+03  0.16923135257E+03 0.  0.
        -24    2    5    5    0    0  0.57641294547E+01  0.14116892187E+03 -0.34024988345E+02  0.16622325165E+03  0.80688164361E+02 0.  0.
          2    1    4    4  501    0  0.10449335534E+02 -0.27670685493E+02  0.14373207566E+03  0.14674387558E+03  0.00000000000E+00 0. -1.
         -1    1    4    4    0  501 -0.58448619416E+02 -0.28917464176E+02  0.81063908590E+02  0.10403758033E+03  0.00000000000E+00 0.  1.
          5    1    3    3  502    0 -0.58060628689E+02 -0.13389551358E+03  0.94570421142E+02  0.17396752489E+03  0.47000000000E+01 0. -1.
         13    1    6    6    0    0 -0.36254223234E+01  0.17144895927E+02  0.23394579516E+02  0.29230078586E+02  0.00000000000E+00 0. -1.
        -14    1    6    6    0    0  0.93895517781E+01  0.12402402594E+03 -0.57419567862E+02  0.13699317307E+03  0.00000000000E+00 0.  1.
         -5    1    5    5    0  503  0.10029578312E+03  0.49314741382E+02 -0.31619262493E-01  0.11186276784E+03  0.47000000000E+01 0.  1.
<mgrwt>
<rscale>  2 0.27901517E+03</rscale>
<asrwt>0</asrwt>
<pdfrwt beam="1">  1       21 0.76011138E-01 0.28002999E+03</pdfrwt>
<pdfrwt beam="2">  1       21 0.32117323E-01 0.28002999E+03</pdfrwt>
<totfact> 0.13705884E+04</totfact>
</mgrwt>
</event>
<event>
12    1  0.1473662E-001  0.2710444E+03  0.7546771E-02  0.1100885E+00
         21   -1    0    0  504  503  0.00000000000E+00  0.00000000000E+00  0.72360106632E+03  0.72360106632E+03  0.00000000000E+00 0.  1.
         21   -1    0    0  502  504 -0.00000000000E+00 -0.00000000000E+00 -0.10245643982E+03  0.10245643982E+03  0.00000000000E+00 0.  1.
          6    2    1    2  502    0 -0.18573854861E+03  0.94196663213E+02  0.26049614671E+03  0.37491184153E+03  0.17125661059E+03 0.  0.
         24    2    3    3    0    0 -0.20232643086E+03  0.10593567818E+03  0.25631770432E+03  0.35363951936E+03  0.84875152808E+02 0.  0.
         -6    2    1    2    0  503  0.18573854861E+03 -0.94196663213E+02  0.36064847979E+03  0.45114566461E+03  0.17347410448E+03 0.  0.
        -24    2    5    5    0    0  0.44676495963E+02 -0.25324063224E+02  0.60744486862E+02  0.11260994611E+03  0.79710788541E+02 0.  0.
          4    1    4    4  501    0 -0.98512809094E+02  0.65342232906E+02  0.19047855340E+03  0.22417952686E+03  0.00000000000E+00 0. -1.
         -3    1    4    4    0  501 -0.10381362177E+03  0.40593445275E+02  0.65839150927E+02  0.12945999250E+03  0.00000000000E+00 0.  1.
          5    1    3    3  502    0  0.16587882252E+02 -0.11739014968E+02  0.41784423883E+01  0.21272322177E+02  0.47000000000E+01 0. -1.
         11    1    6    6    0    0  0.41111523110E+02  0.19063893002E+02  0.12614704237E+02  0.47039559010E+02  0.00000000000E+00 0. -1.
        -12    1    6    6    0    0  0.35649728524E+01 -0.44387956227E+02  0.48129782625E+02  0.65570387104E+02  0.00000000000E+00 0.  1.
         -5    1    5    5    0  503  0.14106205265E+03 -0.68872599989E+02  0.29990399293E+03  0.33853571850E+03  0.47000000000E+01 0.  1.
<mgrwt>
<rscale>  2 0.27069027E+03</rscale>
<asrwt>0</asrwt>
<pdfrwt beam="1">  1       21 0.11132324E+00 0.27104443E+03</pdfrwt>
<pdfrwt beam="2">  1       21 0.15762530E-01 0.27104443E+03</pdfrwt>
<totfact> 0.21794829E+04</totfact>
</mgrwt>
</event>
<event>
12    1  0.1473662E-001  0.2012638E+03  0.7546771E-02  0.1148736E+00
         21   -1    0    0  504  503  0.00000000000E+00  0.00000000000E+00  0.46414754277E+03  0.46414754277E+03  0.00000000000E+00 0.  1.
         21   -1    0    0  502  504 -0.00000000000E+00 -0.00000000000E+00 -0.40131577806E+03  0.40131577806E+03  0.00000000000E+00 0.  1.
          6    2    1    2  502    0  0.82583723130E+02  0.63898703583E+02 -0.35146180377E+03  0.40486993449E+03  0.17172987132E+03 0.  0.
         24    2    3    3    0    0 -0.36439204483E+01  0.34541926467E+01 -0.82881839930E+02  0.11634604918E+03  0.81497203433E+02 0.  0.
         -6    2    1    2    0  503 -0.82583723130E+02 -0.63898703583E+02  0.41429356847E+03  0.46059338634E+03  0.17205810360E+03 0.  0.
        -24    2    5    5    0    0 -0.78830428958E+01 -0.67498643349E+02  0.12809610738E+03  0.16474844734E+03  0.78199929389E+02 0.  0.
          2    1    4    4  501    0 -0.37564763610E+01 -0.21076777610E+02  0.75074422444E+01  0.22687074693E+02  0.00000000000E+00 0. -1.
         -1    1    4    4    0  501  0.11255591268E+00  0.24530970257E+02 -0.90389282174E+02  0.93658974490E+02  0.00000000000E+00 0.  1.
          5    1    3    3  502    0  0.86227643578E+02  0.60444510936E+02 -0.26857996384E+03  0.28852388531E+03  0.47000000000E+01 0. -1.
         13    1    6    6    0    0  0.27484129613E+02 -0.61581267761E+02  0.77472296895E+02  0.10271118102E+03  0.00000000000E+00 0. -1.
        -14    1    6    6    0    0 -0.35367172509E+02 -0.59173755879E+01  0.50623810483E+02  0.62037266324E+02  0.00000000000E+00 0.  1.
         -5    1    5    5    0  503 -0.74700680234E+02  0.35999397657E+01  0.28619746109E+03  0.29584493900E+03  0.47000000000E+01 0.  1.
<mgrwt>
<rscale>  2 0.20119360E+03</rscale>
<asrwt>0</asrwt>
<pdfrwt beam="1">  1       21 0.71407314E-01 0.20126377E+03</pdfrwt>
<pdfrwt beam="2">  1       21 0.61740889E-01 0.20126377E+03</pdfrwt>
<totfact> 0.42907704E+03</totfact>
</mgrwt>
</event>
<event>
12    1  0.1473662E-001  0.1988831E+03  0.7546771E-02  0.1150697E+00
         21   -1    0    0  504  503  0.00000000000E+00  0.00000000000E+00  0.28347441307E+03  0.28347441307E+03  0.00000000000E+00 0. -1.
         21   -1    0    0  502  504 -0.00000000000E+00 -0.00000000000E+00 -0.15525814363E+03  0.15525814363E+03  0.00000000000E+00 0. -1.
          6    2    1    2  502    0  0.17015881424E+02 -0.92302486940E+02 -0.57969220067E+01  0.19891170650E+03  0.17527970038E+03 0.  0.
         24    2    3    3    0    0  0.30950266693E+02 -0.12258322703E+03 -0.35035606493E+02  0.15432380474E+03  0.81263623031E+02 0.  0.
         -6    2    1    2    0  503 -0.17015881424E+02  0.92302486940E+02  0.13401319145E+03  0.23982085019E+03  0.17534313613E+03 0.  0.
        -24    2    5    5    0    0  0.43654508711E+02  0.10031745131E+03  0.83797743151E+02  0.16051878754E+03  0.82309854991E+02 0.  0.
          2    1    4    4  501    0 -0.11596848509E+02 -0.60787869077E+02 -0.47831261512E+02  0.78214330529E+02  0.00000000000E+00 0. -1.
         -1    1    4    4    0  501  0.42547115202E+02 -0.61795357957E+02  0.12795655019E+02  0.76109474209E+02  0.00000000000E+00 0.  1.
          5    1    3    3  502    0 -0.13934385269E+02  0.30280740094E+02  0.29238684487E+02  0.44587901767E+02  0.47000000000E+01 0. -1.
         13    1    6    6    0    0 -0.12468647666E+02  0.69378542118E+02  0.29086785267E+02  0.76255428385E+02  0.00000000000E+00 0. -1.
        -14    1    6    6    0    0  0.56123156377E+02  0.30938909189E+02  0.54710957884E+02  0.84263359155E+02  0.00000000000E+00 0.  1.
         -5    1    5    5    0  503 -0.60670390135E+02 -0.80149643673E+01  0.50215448300E+02  0.79302062652E+02  0.47000000000E+01 0.  1.
<mgrwt>
<rscale>  2 0.19886916E+03</rscale>
<asrwt>0</asrwt>
<pdfrwt beam="1">  1       21 0.43611448E-01 0.19888314E+03</pdfrwt>
<pdfrwt beam="2">  1       21 0.23885868E-01 0.19888314E+03</pdfrwt>
<totfact> 0.83258460E+04</totfact>
</mgrwt>
</event>
<event>
12    1  0.1473662E-001  0.2191418E+03  0.7546771E-02  0.1136493E+00
         21   -1    0    0  504  503  0.00000000000E+00  0.00000000000E+00  0.48355762151E+03  0.48355762151E+03  0.00000000000E+00 0. -1.
         21   -1    0    0  502  504 -0.00000000000E+00 -0.00000000000E+00 -0.12791192789E+03  0.12791192789E+03  0.00000000000E+00 0.  1.
          6    2    1    2  502    0  0.10826241702E+02 -0.13494989727E+03  0.25274530733E+02  0.22059452572E+03  0.17232080720E+03 0.  0.
         24    2    3    3    0    0 -0.53736603595E+02 -0.45988949318E+02  0.11636216269E+02  0.10973197626E+03  0.83084890680E+02 0.  0.
         -6    2    1    2    0  503 -0.10826241702E+02  0.13494989727E+03  0.33037116289E+03  0.39087502368E+03  0.15908958666E+03 0.  0.
        -24    2    5    5    0    0  0.30676545376E+02  0.34268617054E+02  0.21113976776E+03  0.22932807352E+03  0.76785253947E+02 0.  0.
          4    1    4    4  501    0  0.12041560271E+02 -0.17343903945E+02 -0.22000816542E+02  0.30493378074E+02  0.00000000000E+00 0. -1.
         -3    1    4    4    0  501 -0.65778163866E+02 -0.28645045374E+02  0.33637032812E+02  0.79238598186E+02  0.00000000000E+00 0.  1.
          5    1    3    3  502    0  0.64562845297E+02 -0.88960947947E+02  0.13638314464E+02  0.11086254947E+03  0.47000000000E+01 0. -1.
         13    1    6    6    0    0 -0.25686574647E+02  0.65000986732E+01  0.56197536709E+02  0.62130624752E+02  0.00000000000E+00 0. -1.
        -14    1    6    6    0    0  0.56363120022E+02  0.27768518381E+02  0.15494223105E+03  0.16719744877E+03  0.00000000000E+00 0.  1.
         -5    1    5    5    0  503 -0.41502787077E+02  0.10068128021E+03  0.11923139513E+03  0.16154695016E+03  0.47000000000E+01 0.  1.
<mgrwt>
<rscale>  2 0.21653460E+03</rscale>
<asrwt>0</asrwt>
<pdfrwt beam="1">  1       21 0.74393479E-01 0.21914183E+03</pdfrwt>
<pdfrwt beam="2">  1       21 0.19678758E-01 0.21914183E+03</pdfrwt>
<totfact> 0.37996227E+04</totfact>
</mgrwt>
</event>
<event>
12    1  0.1473662E-001  0.2294979E+03  0.7546771E-02  0.1127471E+00
         21   -1    0    0  504  503  0.00000000000E+00  0.00000000000E+00  0.14093689430E+03  0.14093689430E+03  0.00000000000E+00 0. -1.
         21   -1    0    0  502  504 -0.00000000000E+00 -0.00000000000E+00 -0.39235114075E+03  0.39235114075E+03  0.00000000000E+00 0. -1.
          6    2    1    2  502    0 -0.13676775742E+03 -0.50815368053E+02 -0.61833477429E+02  0.23768184912E+03  0.17714869847E+03 0.  0.
         24    2    3    3    0    0  0.56926230986E+01 -0.15251666974E+02 -0.31890797832E+02  0.87753896715E+02  0.80116815332E+02 0.  0.
         -6    2    1    2    0  503  0.13676775742E+03  0.50815368053E+02 -0.18958076903E+03  0.29560618593E+03  0.17365059193E+03 0.  0.
        -24    2    5    5    0    0  0.65155074196E+02  0.27821870419E+02 -0.18774327132E+02  0.10891390456E+03  0.80563782680E+02 0.  0.
          2    1    4    4  501    0  0.17866474361E+02 -0.42205710695E+02 -0.35481601071E+02  0.57960994953E+02  0.00000000000E+00 0. -1.
         -1    1    4    4    0  501 -0.12173851262E+02  0.26954043721E+02  0.35908032390E+01  0.29792901762E+02  0.00000000000E+00 0.  1.
          5    1    3    3  502    0 -0.14246038051E+03 -0.35563701079E+02 -0.29942679596E+02  0.14992795240E+03  0.47000000000E+01 0. -1.
         11    1    6    6    0    0  0.68875119591E+02  0.36687908207E+02 -0.38464410794E+02  0.87001698863E+02  0.00000000000E+00 0. -1.
        -12    1    6    6    0    0 -0.37200453947E+01 -0.88660377885E+01  0.19690083662E+02  0.21912205695E+02  0.00000000000E+00 0.  1.
         -5    1    5    5    0  503  0.71612683219E+02  0.22993497634E+02 -0.17080644189E+03  0.18669228137E+03  0.47000000000E+01 0.  1.
<mgrwt>
<rscale>  2 0.22882260E+03</rscale>
<asrwt>0</asrwt>
<pdfrwt beam="1">  1       21 0.21682599E-01 0.22949789E+03</pdfrwt>
<pdfrwt beam="2">  1       21 0.60361713E-01 0.22949789E+03</pdfrwt>
<totfact> 0.49879159E+04</totfact>
</mgrwt>
</event>
<event>
12    1  0.1473662E-001  0.1867147E+03  0.7546771E-02  0.1161665E+00
         21   -1    0    0  504  503  0.00000000000E+00  0.00000000000E+00  0.80726138411E+02  0.80726138411E+02  0.00000000000E+00 0. -1.
         21   -1    0    0  502  504 -0.00000000000E+00 -0.00000000000E+00 -0.44283602683E+03  0.44283602683E+03  0.00000000000E+00 0.  1.
          6    2    1    2  502    0  0.68673250335E+02  0.77108898743E+01 -0.22640059039E+03  0.29346144775E+03  0.17345581816E+03 0.  0.
         24    2    3    3    0    0  0.10809705209E+03 -0.22248681793E+02 -0.15885114695E+03  0.20957563615E+03  0.80673935494E+02 0.  0.
         -6    2    1    2    0  503 -0.68673250335E+02 -0.77108898743E+01 -0.13570929803E+03  0.23010071749E+03  0.17249305343E+03 0.  0.
        -24    2    5    5    0    0 -0.14996061301E+02 -0.62136169720E+02 -0.45739852521E+02  0.11194851550E+03  0.79715434970E+02 0.  0.
          2    1    4    4  501    0  0.55610169323E+02  0.45758313648E+01 -0.20943510329E+02  0.59599159304E+02  0.00000000000E+00 0. -1.
         -1    1    4    4    0  501  0.52486882769E+02 -0.26824513157E+02 -0.13790763662E+03  0.14997647685E+03  0.00000000000E+00 0.  1.
          5    1    3    3  502    0 -0.39423801757E+02  0.29959571667E+02 -0.67549443440E+02  0.83885811604E+02  0.47000000000E+01 0. -1.
         11    1    6    6    0    0 -0.44633133839E+02 -0.40340352616E+02 -0.10628432855E+02  0.61093569796E+02  0.00000000000E+00 0. -1.
        -12    1    6    6    0    0  0.29637072538E+02 -0.21795817104E+02 -0.35111419666E+02  0.50854945706E+02  0.00000000000E+00 0.  1.
         -5    1    5    5    0  503 -0.53677189033E+02  0.54425279846E+02 -0.89969445508E+02  0.11815220198E+03  0.47000000000E+01 0.  1.
<mgrwt>
<rscale>  2 0.18649082E+03</rscale>
<asrwt>0</asrwt>
<pdfrwt beam="1">  1       21 0.12419406E-01 0.18671474E+03</pdfrwt>
<pdfrwt beam="2">  1       21 0.68128620E-01 0.18671474E+03</pdfrwt>
<totfact> 0.10876430E+05</totfact>
</mgrwt>
</event>
<event>
12    1  0.1473662E-001  0.1716776E+03  0.7546771E-02  0.1176749E+00
         21   -1    0    0  504  503  0.00000000000E+00  0.00000000000E+00  0.51669008507E+03  0.51669008507E+03  0.00000000000E+00 0. -1.
         21   -1    0    0  502  504 -0.00000000000E+00 -0.00000000000E+00 -0.66100793879E+02  0.66100793879E+02  0.00000000000E+00 0. -1.
          6    2    1    2  502    0  0.13778143523E+02 -0.44414158166E+00  0.33930122599E+03  0.38026111631E+03  0.17112323080E+03 0.  0.
         24    2    3    3    0    0  0.16204121130E+02  0.65572237105E+02  0.20430616382E+03  0.22989554701E+03  0.80923804519E+02 0.  0.
         -6    2    1    2    0  503 -0.13778143523E+02  0.44414158166E+00  0.11128806520E+03  0.20252976264E+03  0.16865122827E+03 0.  0.
        -24    2    5    5    0    0 -0.60039390898E+02  0.23725501509E+02  0.32339415704E+02  0.10799350512E+03  0.80306484534E+02 0.  0.
          2    1    4    4  501    0  0.10551444917E+02  0.26744019264E+02  0.18300368128E+03  0.18524827373E+03  0.00000000000E+00 0. -1.
         -1    1    4    4    0  501  0.56526762133E+01  0.38828217841E+02  0.21302482542E+02  0.44647273282E+02  0.00000000000E+00 0.  1.
          5    1    3    3  502    0 -0.24259776073E+01 -0.66016378687E+02  0.13499506217E+03  0.15036556931E+03  0.47000000000E+01 0. -1.
         11    1    6    6    0    0  0.63290009642E+00 -0.15030112976E+02 -0.15464132273E+02  0.21574156891E+02  0.00000000000E+00 0. -1.
        -12    1    6    6    0    0 -0.60672290995E+02  0.38755614485E+02  0.47803547977E+02  0.86419348226E+02  0.00000000000E+00 0.  1.
         -5    1    5    5    0  503  0.46261247375E+02 -0.23281359927E+02  0.78948649496E+02  0.94536257521E+02  0.47000000000E+01 0.  1.
<mgrwt>
<rscale>  2 0.17105827E+03</rscale>
<asrwt>0</asrwt>
<pdfrwt beam="1">  1       21 0.79490780E-01 0.17167759E+03</pdfrwt>
<pdfrwt beam="2">  1       21 0.10169353E-01 0.17167759E+03</pdfrwt>
<totfact> 0.11080938E+05</totfact>
</mgrwt>
</event>
<event>
12    1  0.1473662E-001  0.1860323E+03  0.7546771E-02  0.1162119E+00
         21   -1    0    0  504  503  0.00000000000E+00  0.00000000000E+00  0.10529629419E+03  0.10529629419E+03  0.00000000000E+00 0.  1.
         21   -1    0    0  502  504 -0.00000000000E+00 -0.00000000000E+00 -0.43221126324E+03  0.43221126324E+03  0.00000000000E+00 0. -1.
          6    2    1    2  502    0 -0.57244227054E+02 -0.35771042397E+02 -0.31730137649E+02  0.18859194583E+03  0.17321562110E+03 0.  0.
         24    2    3    3    0    0 -0.62680075949E+02 -0.71071818906E+02  0.20256699226E+02  0.12534311594E+03  0.79501996738E+02 0.  0.
         -6    2    1    2    0  503  0.57244227054E+02  0.35771042397E+02 -0.29518483140E+03  0.34891561160E+03  0.17335382986E+03 0.  0.
        -24    2    5    5    0    0  0.83017839454E+02  0.70601894283E+02 -0.18425595498E+03  0.22973183350E+03  0.83365875717E+02 0.  0.
          4    1    4    4  501    0 -0.34897333236E+02 -0.47470685417E+02 -0.27699771915E+02  0.65104279468E+02  0.00000000000E+00 0. -1.
         -3    1    4    4    0  501 -0.27782742713E+02 -0.23601133489E+02  0.47956471141E+02  0.60238836467E+02  0.00000000000E+00 0.  1.
          5    1    3    3  502    0  0.54358488951E+01  0.35300776509E+02 -0.51986836875E+02  0.63248829899E+02  0.47000000000E+01 0. -1.
         11    1    6    6    0    0  0.71625124105E+02  0.96501481849E+01 -0.12241775469E+03  0.14215973560E+03  0.00000000000E+00 0. -1.
        -12    1    6    6    0    0  0.11392715349E+02  0.60951746098E+02 -0.61838200295E+02  0.87572097903E+02  0.00000000000E+00 0.  1.
         -5    1    5    5    0  503 -0.25773612401E+02 -0.34830851885E+02 -0.11092887642E+03  0.11918377810E+03  0.47000000000E+01 0.  1.
<mgrwt>
<rscale>  2 0.18600010E+03</rscale>
<asrwt>0</asrwt>
<pdfrwt beam="1">  1       21 0.16199430E-01 0.18603231E+03</pdfrwt>
<pdfrwt beam="2">  1       21 0.66494039E-01 0.18603231E+03</pdfrwt>
<totfact> 0.70899365E+04</totfact>
</mgrwt>
</event>
<event>
12    1  0.1473662E-001  0.2277024E+03  0.7546771E-02  0.1129272E+00
         21   -1    0    0  504  503  0.00000000000E+00  0.00000000000E+00  0.13118020153E+03  0.13118020153E+03  0.00000000000E+00 0.  1.
         21   -1    0    0  502  504 -0.00000000000E+00 -0.00000000000E+00 -0.10350602260E+04  0.10350602260E+04  0.00000000000E+00 0.  1.
          6    2    1    2  502    0 -0.14553644730E+03 -0.21016802635E+02 -0.91173068186E+03  0.93840269204E+03  0.16650589388E+03 0.  0.
         24    2    3    3    0    0 -0.15410314891E+03 -0.44104963089E+02 -0.61637156925E+03  0.64198145978E+03  0.80828553463E+02 0.  0.
         -6    2    1    2    0  503  0.14553644730E+03  0.21016802635E+02  0.78506573923E+01  0.22783773549E+03  0.17385579486E+03 0.  0.
        -24    2    5    5    0    0  0.13484274014E+03 -0.40603075654E+02 -0.96718187254E+01  0.16271867574E+03  0.80948434438E+02 0.  0.
          2    1    4    4  501    0 -0.45237736057E+02 -0.13026465157E+01 -0.70936469754E+02  0.84143522582E+02  0.00000000000E+00 0. -1.
         -1    1    4    4    0  501 -0.10886541285E+03 -0.42802316573E+02 -0.54543509949E+03  0.55783793720E+03  0.00000000000E+00 0.  1.
          5    1    3    3  502    0  0.85667016090E+01  0.23088160454E+02 -0.29535911262E+03  0.29642123226E+03  0.47000000000E+01 0. -1.
         11    1    6    6    0    0  0.73419950288E+02 -0.60916232749E+02  0.77632311204E+01  0.95715956193E+02  0.00000000000E+00 0. -1.
        -12    1    6    6    0    0  0.61422789849E+02  0.20313157094E+02 -0.17435049846E+02  0.67002719550E+02  0.00000000000E+00 0.  1.
         -5    1    5    5    0  503  0.10693707162E+02  0.61619878289E+02  0.17522476118E+02  0.65119059749E+02  0.47000000000E+01 0.  1.
<mgrwt>
<rscale>  2 0.22629925E+03</rscale>
<asrwt>0</asrwt>
<pdfrwt beam="1">  1       21 0.20181569E-01 0.22770244E+03</pdfrwt>
<pdfrwt beam="2">  1       21 0.15924004E+00 0.22770244E+03</pdfrwt>
<totfact> 0.56270641E+03</totfact>
</mgrwt>
</event>
<event>
12    1  0.1473662E-001  0.1960438E+03  0.7546771E-02  0.1153911E+00
         21   -1    0    0  504  503  0.00000000000E+00  0.00000000000E+00  0.15498819449E+03  0.15498819449E+03  0.00000000000E+00 0. -1.
         21   -1    0    0  502  504 -0.00000000000E+00 -0.00000000000E+00 -0.45348655505E+03  0.45348655505E+03  0.00000000000E+00 0.  1.
          6    2    1    2  502    0  0.87202693533E+02 -0.29331215987E+02 -0.35556281576E+03  0.40429465675E+03  0.16901072017E+03 0.  0.
         24    2    3    3    0    0  0.15821266342E+02  0.27207242737E+02 -0.25506550550E+03  0.26859754981E+03  0.78074868814E+02 0.  0.
         -6    2    1    2    0  503 -0.87202693533E+02  0.29331215987E+02  0.57064455195E+02  0.20418009279E+03  0.17311420581E+03 0.  0.
        -24    2    5    5    0    0 -0.35784560388E+02  0.82376350363E+02  0.47653027572E+02  0.12955921323E+03  0.80301810898E+02 0.  0.
          4    1    4    4  501    0  0.29746665591E+02  0.44193333479E+02 -0.22584224430E+03  0.23204015632E+03  0.00000000000E+00 0. -1.
         -3    1    4    4    0  501 -0.13925399248E+02 -0.16986090742E+02 -0.29223261204E+02  0.36557393484E+02  0.00000000000E+00 0.  1.
          5    1    3    3  502    0  0.71381427190E+02 -0.56538458724E+02 -0.10049731026E+03  0.13569710694E+03  0.47000000000E+01 0. -1.
         13    1    6    6    0    0 -0.44467133771E+01  0.47169663950E+02  0.64037603427E+02  0.79659055416E+02  0.00000000000E+00 0. -1.
        -14    1    6    6    0    0 -0.31337847011E+02  0.35206686413E+02 -0.16384575855E+02  0.49900157810E+02  0.00000000000E+00 0.  1.
         -5    1    5    5    0  503 -0.51418133144E+02 -0.53045134377E+02  0.94114276235E+01  0.74620879565E+02  0.47000000000E+01 0.  1.
<mgrwt>
<rscale>  2 0.19513398E+03</rscale>
<asrwt>0</asrwt>
<pdfrwt beam="1">  1       21 0.23844338E-01 0.19604377E+03</pdfrwt>
<pdfrwt beam="2">  1       21 0.69767161E-01 0.19604377E+03</pdfrwt>
<totfact> 0.30882116E+04</totfact>
</mgrwt>
</event>
<event>
12    1  0.1473662E-001  0.2208573E+03  0.7546771E-02  0.1133449E+00
         21   -1    0    0  504  503  0.00000000000E+00  0.00000000000E+00  0.11989107672E+04  0.11989107672E+04  0.00000000000E+00 0.  1.
         21   -1    0    0  502  504 -0.00000000000E+00 -0.00000000000E+00 -0.91846996911E+02  0.91846996911E+02  0.00000000000E+00 0. -1.
          6    2    1    2  502    0 -0.65182132116E+02  0.11908929510E+03  0.70304014802E+02  0.23073476672E+03  0.17281466235E+03 0.  0.
         24    2    3    3    0    0 -0.10807289799E+03  0.10235254161E+03  0.37143127450E+02  0.17380084744E+03  0.81678201502E+02 0.  0.
         -6    2    1    2    0  503  0.65182132116E+02 -0.11908929510E+03  0.10367597555E+04  0.10600229974E+04  0.17420388581E+03 0.  0.
        -24    2    5    5    0    0  0.17222613319E+02  0.12294437105E+02  0.16356348739E+03  0.17568391471E+03  0.60531412397E+02 0.  0.
          2    1    4    4  501    0 -0.98421063535E+02  0.10041496895E+03  0.55558742897E+01  0.14071510038E+03  0.00000000000E+00 0. -1.
         -1    1    4    4    0  501 -0.96518344559E+01  0.19375726574E+01  0.31587253160E+02  0.33085747058E+02  0.00000000000E+00 0.  1.
          5    1    3    3  502    0  0.42890765876E+02  0.16736753497E+02  0.33160887352E+02  0.56933919284E+02  0.47000000000E+01 0. -1.
         11    1    6    6    0    0 -0.99989739556E+01 -0.13614558043E+02  0.10323452530E+03  0.10460737491E+03  0.00000000000E+00 0. -1.
        -12    1    6    6    0    0  0.27221587275E+02  0.25908995148E+02  0.60328962090E+02  0.71076539802E+02  0.00000000000E+00 0.  1.
         -5    1    5    5    0  503  0.47959518796E+02 -0.13138373221E+03  0.87319626807E+03  0.88433908265E+03  0.47000000000E+01 0.  1.
<mgrwt>
<rscale>  2 0.22058330E+03</rscale>
<asrwt>0</asrwt>
<pdfrwt beam="1">  1       21 0.18444780E+00 0.22085734E+03</pdfrwt>
<pdfrwt beam="2">  1       21 0.14130308E-01 0.22085734E+03</pdfrwt>
<totfact> 0.72551662E+03</totfact>
</mgrwt>
</event>
<event>
12    1  0.1473662E-001  0.2103506E+03  0.7546771E-02  0.1141324E+00
         21   -1    0    0  504  503  0.00000000000E+00  0.00000000000E+00  0.22910508823E+02  0.22910508823E+02  0.00000000000E+00 0.  1.
         21   -1    0    0  502  504 -0.00000000000E+00 -0.00000000000E+00 -0.22473528007E+04  0.22473528007E+04  0.00000000000E+00 0. -1.
          6    2    1    2  502    0 -0.12058484380E+02 -0.11880181336E+03 -0.15394028773E+04  0.15537080123E+04  0.17317069901E+03 0.  0.
         24    2    3    3    0    0 -0.62408922132E+02 -0.74843961043E+02 -0.69128568944E+03  0.70294816741E+03  0.82241896708E+02 0.  0.
         -6    2    1    2    0  503  0.12058484380E+02  0.11880181336E+03 -0.68503941458E+03  0.71655529721E+03  0.17295437701E+03 0.  0.
        -24    2    5    5    0    0  0.41079551360E+02  0.82044236831E+02 -0.63984620631E+03  0.65130303415E+03  0.79835382044E+02 0.  0.
          2    1    4    4  501    0 -0.32199611741E+01  0.11536458659E+02 -0.18342610855E+02  0.21906834580E+02  0.00000000000E+00 0. -1.
         -1    1    4    4    0  501 -0.59188960958E+02 -0.86380419702E+02 -0.67294307859E+03  0.68104133283E+03  0.00000000000E+00 0.  1.
          5    1    3    3  502    0  0.50350437752E+02 -0.43957852315E+02 -0.84811718787E+03  0.85075984492E+03  0.47000000000E+01 0. -1.
         13    1    6    6    0    0  0.62257078781E+02  0.49875587447E+02 -0.35418219850E+03  0.36305446949E+03  0.00000000000E+00 0. -1.
        -14    1    6    6    0    0 -0.21177527422E+02  0.32168649384E+02 -0.28566400781E+03  0.28824856466E+03  0.00000000000E+00 0.  1.
         -5    1    5    5    0  503 -0.29021066980E+02  0.36757576528E+02 -0.45193208275E+02  0.65252263065E+02  0.47000000000E+01 0.  1.
<mgrwt>
<rscale>  2 0.21030606E+03</rscale>
<asrwt>0</asrwt>
<pdfrwt beam="1">  1       21 0.35246945E-02 0.21035059E+03</pdfrwt>
<pdfrwt beam="2">  1       21 0.34574650E+00 0.21035059E+03</pdfrwt>
<totfact> 0.87879597E+03</totfact>
</mgrwt>
</event>
<event>
12    1  0.1473662E-001  0.3347795E+03  0.7546771E-02  0.1069125E+00
         21   -1    0    0  504  503  0.00000000000E+00  0.00000000000E+00  0.51124337336E+03  0.51124337336E+03  0.00000000000E+00 0. -1.
         21   -1    0    0  502  504 -0.00000000000E+00 -0.00000000000E+00 -0.22427552833E+03  0.22427552833E+03  0.00000000000E+00 0. -1.
          6    2    1    2  502    0  0.24650728932E+03 -0.14010046565E+03  0.85767767257E+02  0.34559140756E+03  0.17799810930E+03 0.  0.
         24    2    3    3    0    0  0.35736804375E+02 -0.19123508067E+02  0.56660120780E+01  0.89665631655E+02  0.79780912877E+02 0.  0.
         -6    2    1    2    0  503 -0.24650728932E+03  0.14010046565E+03  0.20120007778E+03  0.38992749413E+03  0.17654459837E+03 0.  0.
        -24    2    5    5    0    0 -0.21639974411E+03  0.73277174221E+02  0.93085305265E+02  0.25922665025E+03  0.79593898195E+02 0.  0.
          2    1    4    4  501    0  0.47915116784E-02 -0.19422082662E+02 -0.32198287189E+02  0.37602486830E+02  0.00000000000E+00 0. -1.
         -1    1    4    4    0  501  0.35732012863E+02  0.29857459516E+00  0.37864299267E+02  0.52063144825E+02  0.00000000000E+00 0.  1.
          5    1    3    3  502    0  0.21077048495E+03 -0.12097695758E+03  0.80101755179E+02  0.25592577591E+03  0.47000000000E+01 0. -1.
         13    1    6    6    0    0 -0.29099901874E+02  0.42340992720E+02  0.11775137465E+02  0.52708802072E+02  0.00000000000E+00 0. -1.
        -14    1    6    6    0    0 -0.18729984223E+03  0.30936181502E+02  0.81310167801E+02  0.20651784817E+03  0.00000000000E+00 0.  1.
         -5    1    5    5    0  503 -0.30107545213E+02  0.66823291425E+02  0.10811477251E+03  0.13070084388E+03  0.47000000000E+01 0.  1.
<mgrwt>
<rscale>  2 0.33458669E+03</rscale>
<asrwt>0</asrwt>
<pdfrwt beam="1">  1       21 0.78652827E-01 0.33477950E+03</pdfrwt>
<pdfrwt beam="2">  1       21 0.34503927E-01 0.33477950E+03</pdfrwt>
<totfact> 0.10736739E+04</totfact>
</mgrwt>
</event>
<event>
12    1  0.1473662E-001  0.1929255E+03  0.7546771E-02  0.1156388E+00
         21   -1    0    0  504  503  0.00000000000E+00  0.00000000000E+00  0.15215853355E+03  0.15215853355E+03  0.00000000000E+00 0.  1.
         21   -1    0    0  502  504 -0.00000000000E+00 -0.00000000000E+00 -0.24156294146E+03  0.24156294146E+03  0.00000000000E+00 0.  1.
          6    2    1    2  502    0 -0.69622816201E+02 -0.38181998983E+02 -0.43822059393E+02  0.19783988639E+03  0.17582675046E+03 0.  0.
         24    2    3    3    0    0 -0.30563860625E+02 -0.77144097519E+02  0.17293778098E+02  0.11537242175E+03  0.78271064772E+02 0.  0.
         -6    2    1    2    0  503  0.69622816201E+02  0.38181998983E+02 -0.45582348516E+02  0.19588158862E+03  0.17316652298E+03 0.  0.
        -24    2    5    5    0    0  0.36893481850E+01 -0.29892456493E+02  0.81292746759E+01  0.86847730763E+02  0.81051051731E+02 0.  0.
          2    1    4    4  501    0  0.81148711260E+01 -0.13354987901E+02  0.35322764359E+02  0.38625179834E+02  0.00000000000E+00 0. -1.
         -1    1    4    4    0  501 -0.38678731751E+02 -0.63789109617E+02 -0.18028986261E+02  0.76747241913E+02  0.00000000000E+00 0.  1.
          5    1    3    3  502    0 -0.39058955576E+02  0.38962098535E+02 -0.61115837491E+02  0.82467464647E+02  0.47000000000E+01 0. -1.
         13    1    6    6    0    0  0.40042532387E+01 -0.19184241687E+02  0.44664191541E+02  0.48774575130E+02  0.00000000000E+00 0. -1.
        -14    1    6    6    0    0 -0.31490505366E+00 -0.10708214806E+02 -0.36534916865E+02  0.38073155633E+02  0.00000000000E+00 0.  1.
         -5    1    5    5    0  503  0.65933468016E+02  0.68074455476E+02 -0.53711623192E+02  0.10903385786E+03  0.47000000000E+01 0.  1.
<mgrwt>
<rscale>  2 0.19231730E+03</rscale>
<asrwt>0</asrwt>
<pdfrwt beam="1">  1       21 0.23409005E-01 0.19292550E+03</pdfrwt>
<pdfrwt beam="2">  1       21 0.37163529E-01 0.19292550E+03</pdfrwt>
<totfact> 0.11986395E+05</totfact>
</mgrwt>
</event>
<event>
12    1  0.1473662E-001  0.2288441E+03  0.7546771E-02  0.1127597E+00
         21   -1    0    0  504  503  0.00000000000E+00  0.00000000000E+00  0.15802706515E+03  0.15802706515E+03  0.00000000000E+00 0.  1.
         21   -1    0    0  502  504 -0.00000000000E+00 -0.00000000000E+00 -0.52921687241E+03  0.52921687241E+03  0.00000000000E+00 0.  1.
          6    2    1    2  502    0 -0.14926187586E+03 -0.85010760735E+00 -0.39609154580E+03  0.45704897249E+03  0.17241061548E+03 0.  0.
         24    2    3    3    0    0 -0.17178729750E+03  0.25544560295E+02 -0.35176373858E+03  0.40055899455E+03  0.80909703978E+02 0.  0.
         -6    2    1    2    0  503  0.14926187586E+03  0.85010760735E+00  0.24901738536E+02  0.23019496507E+03  0.17346410319E+03 0.  0.
        -24    2    5    5    0    0  0.11955678959E+03  0.30241012927E+02  0.75080558735E+02  0.16472572449E+03  0.79304030222E+02 0.  0.
          2    1    4    4  501    0 -0.16243037234E+03  0.50867377609E+01 -0.26443610924E+03  0.31038034189E+03  0.00000000000E+00 0. -1.
         -1    1    4    4    0  501 -0.93569251587E+01  0.20457822534E+02 -0.87327629337E+02  0.90178652667E+02  0.00000000000E+00 0.  1.
          5    1    3    3  502    0  0.22525421641E+02 -0.26394667902E+02 -0.44327807224E+02  0.56489977935E+02  0.47000000000E+01 0. -1.
         13    1    6    6    0    0  0.64232720597E+01  0.32811669895E+02  0.18353654480E+02  0.38140801487E+02  0.00000000000E+00 0. -1.
        -14    1    6    6    0    0  0.11313351753E+03 -0.25706569688E+01  0.56726904256E+02  0.12658492300E+03  0.00000000000E+00 0.  1.
         -5    1    5    5    0  503  0.29705086273E+02 -0.29390905319E+02 -0.50178820199E+02  0.65469240583E+02  0.47000000000E+01 0.  1.
<mgrwt>
<rscale>  2 0.22864447E+03</rscale>
<asrwt>0</asrwt>
<pdfrwt beam="1">  1       21 0.24311856E-01 0.22884411E+03</pdfrwt>
<pdfrwt beam="2">  1       21 0.81417981E-01 0.22884411E+03</pdfrwt>
<totfact> 0.20677918E+04</totfact>
</mgrwt>
</event>
<event>
12    1  0.1473662E-001  0.4644591E+03  0.7546771E-02  0.1023635E+00
         21   -1    0    0  504  503  0.00000000000E+00  0.00000000000E+00  0.11593009080E+04  0.11593009080E+04  0.00000000000E+00 0.  1.
         21   -1    0    0  502  504 -0.00000000000E+00 -0.00000000000E+00 -0.97492425330E+03  0.97492425330E+03  0.00000000000E+00 0. -1.
          6    2    1    2  502    0  0.42319026798E+03 -0.66024862066E+02 -0.86820647967E+03  0.98372372824E+03  0.17458693202E+03 0.  0.
         24    2    3    3    0    0  0.18561497197E+03  0.17445056063E+02 -0.47734066557E+03  0.51874262848E+03  0.80514320385E+02 0.  0.
         -6    2    1    2    0  503 -0.42319026798E+03  0.66024862066E+02  0.10525831344E+04  0.11505014331E+04  0.17964689648E+03 0.  0.
        -24    2    5    5    0    0 -0.36236159355E+03  0.11224356410E+03  0.86397841320E+03  0.94695751422E+03  0.79782787085E+02 0.  0.
          2    1    4    4  501    0  0.17481322112E+02  0.19772317484E+02 -0.25793253755E+02  0.36903022921E+02  0.00000000000E+00 0. -1.
         -1    1    4    4    0  501  0.16813364986E+03 -0.23272614209E+01 -0.45154741182E+03  0.48183960556E+03  0.00000000000E+00 0.  1.
          5    1    3    3  502    0  0.23757529601E+03 -0.83469918129E+02 -0.39086581410E+03  0.46498109976E+03  0.47000000000E+01 0. -1.
         11    1    6    6    0    0 -0.60167763671E+02  0.79057934125E+01  0.80884621807E+02  0.10111866000E+03  0.00000000000E+00 0. -1.
        -12    1    6    6    0    0 -0.30219382987E+03  0.10433777069E+03  0.78309379139E+03  0.84583885423E+03  0.00000000000E+00 0.  1.
         -5    1    5    5    0  503 -0.60828674436E+02 -0.46218702034E+02  0.18860472122E+03  0.20354391889E+03  0.47000000000E+01 0.  1.
<mgrwt>
<rscale>  2 0.46397499E+03</rscale>
<asrwt>0</asrwt>
<pdfrwt beam="1">  1       21 0.17835399E+00 0.46445914E+03</pdfrwt>
<pdfrwt beam="2">  1       21 0.14998835E+00 0.46445914E+03</pdfrwt>
<totfact> 0.43238668E+01</totfact>
</mgrwt>
</event>
<event>
12    1  0.1473662E-001  0.3292216E+03  0.7546771E-02  0.1071538E+00
         21   -1    0    0  504  503  0.00000000000E+00  0.00000000000E+00  0.17220727168E+03  0.17220727168E+03  0.00000000000E+00 0. -1.
         21   -1    0    0  502  504 -0.00000000000E+00 -0.00000000000E+00 -0.65146249475E+03  0.65146249475E+03  0.00000000000E+00 0.  1.
          6    2    1    2  502    0 -0.15588790403E+03  0.23184817546E+03 -0.31688727016E+03  0.45658633841E+03  0.17320198425E+03 0.  0.
         24    2    3    3    0    0 -0.85433667117E+02  0.13015625355E+03 -0.27446899301E+03  0.32571828762E+03  0.80744120220E+02 0.  0.
         -6    2    1    2    0  503  0.15588790403E+03 -0.23184817546E+03 -0.16236795292E+03  0.36708342802E+03  0.17416163729E+03 0.  0.
        -24    2    5    5    0    0  0.18033618286E+03 -0.21771652592E+03 -0.16842099413E+03  0.33782336712E+03  0.76402693658E+02 0.  0.
          2    1    4    4  501    0  0.15484123500E+02  0.17569309400E+02 -0.27258973781E+02  0.35937311599E+02  0.00000000000E+00 0. -1.
         -1    1    4    4    0  501 -0.10091779062E+03  0.11258694415E+03 -0.24721001923E+03  0.28978097602E+03  0.00000000000E+00 0.  1.
          5    1    3    3  502    0 -0.70454236914E+02  0.10169192192E+03 -0.42418277147E+02  0.13086805079E+03  0.47000000000E+01 0. -1.
         13    1    6    6    0    0  0.66129482369E+02 -0.11809691254E+03 -0.45835219463E+02  0.14290156239E+03  0.00000000000E+00 0. -1.
        -14    1    6    6    0    0  0.11420670049E+03 -0.99619613380E+02 -0.12258577467E+03  0.19492180473E+03  0.00000000000E+00 0.  1.
         -5    1    5    5    0  503 -0.24448278824E+02 -0.14131649542E+02  0.60530412160E+01  0.29260060905E+02  0.47000000000E+01 0.  1.
<mgrwt>
<rscale>  2 0.32909491E+03</rscale>
<asrwt>0</asrwt>
<pdfrwt beam="1">  1       21 0.26493426E-01 0.32922164E+03</pdfrwt>
<pdfrwt beam="2">  1       21 0.10022500E+00 0.32922164E+03</pdfrwt>
<totfact> 0.10275942E+04</totfact>
</mgrwt>
</event>
<event>
12    1  0.1473662E-001  0.1841440E+03  0.7546771E-02  0.1164893E+00
         21   -1    0    0  504  503  0.00000000000E+00  0.00000000000E+00  0.65647741663E+02  0.65647741663E+02  0.00000000000E+00 0. -1.
         21   -1    0    0  502  504 -0.00000000000E+00 -0.00000000000E+00 -0.66424823304E+03  0.66424823304E+03  0.00000000000E+00 0. -1.
          6    2    1    2  502    0 -0.31514206074E+02  0.48649568703E+02 -0.47562687849E+03  0.50846533864E+03  0.17016505909E+03 0.  0.
         24    2    3    3    0    0  0.38975857140E+02  0.60665868630E+02 -0.30219603291E+03  0.32081249780E+03  0.79992195763E+02 0.  0.
         -6    2    1    2    0  503  0.31514206074E+02 -0.48649568703E+02 -0.12297361289E+03  0.22143063607E+03  0.17478298373E+03 0.  0.
        -24    2    5    5    0    0 -0.47537570555E+02 -0.25609075957E+02 -0.41390693702E+02  0.10542240189E+03  0.80529795160E+02 0.  0.
          4    1    4    4  501    0  0.45992972691E+02  0.59813002660E+02 -0.30423819284E+03  0.31345466468E+03  0.00000000000E+00 0. -1.
         -3    1    4    4    0  501 -0.70171155504E+01  0.85286596965E+00  0.20421599373E+01  0.73578331199E+01  0.00000000000E+00 0.  1.
          5    1    3    3  502    0 -0.70490063215E+02 -0.12016299926E+02 -0.17343084558E+03  0.18765284084E+03  0.47000000000E+01 0. -1.
         11    1    6    6    0    0 -0.38674737329E+01 -0.45190335192E+02 -0.56828691865E+01  0.45710160249E+02  0.00000000000E+00 0. -1.
        -12    1    6    6    0    0 -0.43670096822E+02  0.19581259234E+02 -0.35707824516E+02  0.59712241637E+02  0.00000000000E+00 0.  1.
         -5    1    5    5    0  503  0.79051776630E+02 -0.23040492746E+02 -0.81582919188E+02  0.11600823418E+03  0.47000000000E+01 0.  1.
<mgrwt>
<rscale>  2 0.18303980E+03</rscale>
<asrwt>0</asrwt>
<pdfrwt beam="1">  1       21 0.10099653E-01 0.18414401E+03</pdfrwt>
<pdfrwt beam="2">  1       21 0.10219203E+00 0.18414401E+03</pdfrwt>
<totfact> 0.62412547E+04</totfact>
</mgrwt>
</event>
<event>
12    1  0.1473662E-001  0.2019489E+03  0.7546771E-02  0.1148969E+00
         21   -1    0    0  504  503  0.00000000000E+00  0.00000000000E+00  0.12763371227E+03  0.12763371227E+03  0.00000000000E+00 0.  1.
         21   -1    0    0  502  504 -0.00000000000E+00 -0.00000000000E+00 -0.31401548924E+03  0.31401548924E+03  0.00000000000E+00 0.  1.
          6    2    1    2  502    0  0.96643572118E+02 -0.10536395433E+02 -0.10621876669E+03  0.22817925073E+03  0.17700945852E+03 0.  0.
         24    2    3    3    0    0  0.67638285873E+02  0.97164136862E+01  0.10632584312E+02  0.10599982882E+03  0.80334086472E+02 0.  0.
         -6    2    1    2    0  503 -0.96643572118E+02  0.10536395433E+02 -0.80163010277E+02  0.21346995078E+03  0.17231458443E+03 0.  0.
        -24    2    5    5    0    0  0.11611448128E+02 -0.13218470308E+02 -0.12107107553E+02  0.83327187051E+02  0.80543679849E+02 0.  0.
          2    1    4    4  501    0 -0.12105085989E+02  0.14071078557E+02 -0.13061963419E+02  0.22696767323E+02  0.00000000000E+00 0. -1.
         -1    1    4    4    0  501  0.79743371862E+02 -0.43546648709E+01  0.23694547731E+02  0.83303061494E+02  0.00000000000E+00 0.  1.
          5    1    3    3  502    0  0.29005286245E+02 -0.20252809120E+02 -0.11685135100E+03  0.12217942191E+03  0.47000000000E+01 0. -1.
         13    1    6    6    0    0 -0.22856733973E+02 -0.34881775219E+02 -0.72309686245E+01  0.42325588449E+02  0.00000000000E+00 0. -1.
        -14    1    6    6    0    0  0.34468182102E+02  0.21663304911E+02 -0.48761389285E+01  0.41001598602E+02  0.00000000000E+00 0.  1.
         -5    1    5    5    0  503 -0.10825502025E+03  0.23754865741E+02 -0.68055902724E+02  0.13014276373E+03  0.47000000000E+01 0.  1.
<mgrwt>
<rscale>  2 0.20091541E+03</rscale>
<asrwt>0</asrwt>
<pdfrwt beam="1">  1       21 0.19635956E-01 0.20194886E+03</pdfrwt>
<pdfrwt beam="2">  1       21 0.48310075E-01 0.20194886E+03</pdfrwt>
<totfact> 0.97401256E+04</totfact>
</mgrwt>
</event>
<event>
12    1  0.1473662E-001  0.1871663E+03  0.7546771E-02  0.1161786E+00
         21   -1    0    0  504  503  0.00000000000E+00  0.00000000000E+00  0.28661404618E+03  0.28661404618E+03  0.00000000000E+00 0.  1.
         21   -1    0    0  502  504 -0.00000000000E+00 -0.00000000000E+00 -0.23164597356E+03  0.23164597356E+03  0.00000000000E+00 0.  1.
          6    2    1    2  502    0  0.68140824870E+02 -0.34515568745E+00 -0.15217485269E+03  0.24122275383E+03  0.17432136997E+03 0.  0.
         24    2    3    3    0    0  0.51632643281E+02 -0.22182882838E+02 -0.98907628417E+01  0.96252899683E+02  0.77516342565E+02 0.  0.
         -6    2    1    2    0  503 -0.68140824870E+02  0.34515568745E+00  0.20714292531E+03  0.27703726592E+03  0.17087470279E+03 0.  0.
        -24    2    5    5    0    0 -0.64042677484E+02 -0.59240275365E+02  0.10259205871E+03  0.15653750611E+03  0.79799658802E+02 0.  0.
          2    1    4    4  501    0  0.19978942705E+02 -0.52685883167E+01  0.33859257489E+02  0.39665671457E+02  0.00000000000E+00 0. -1.
         -1    1    4    4    0  501  0.31653700577E+02 -0.16914294521E+02 -0.43750020331E+02  0.56587228226E+02  0.00000000000E+00 0.  1.
          5    1    3    3  502    0  0.16508181589E+02  0.21837727151E+02 -0.14228408985E+03  0.14496985415E+03  0.47000000000E+01 0. -1.
         13    1    6    6    0    0 -0.62880982089E+02 -0.31340798052E+02  0.25833192777E+02  0.74857313471E+02  0.00000000000E+00 0. -1.
        -14    1    6    6    0    0 -0.11616953950E+01 -0.27899477313E+02  0.76758865936E+02  0.81680192644E+02  0.00000000000E+00 0.  1.
         -5    1    5    5    0  503 -0.40981473863E+01  0.59585431052E+02  0.10455086660E+03  0.12049975980E+03  0.47000000000E+01 0.  1.
<mgrwt>
<rscale>  2 0.18635966E+03</rscale>
<asrwt>0</asrwt>
<pdfrwt beam="1">  1       21 0.44094469E-01 0.18716632E+03</pdfrwt>
<pdfrwt beam="2">  1       21 0.35637842E-01 0.18716632E+03</pdfrwt>
<totfact> 0.37611474E+04</totfact>
</mgrwt>
</event>
<event>
12    1  0.1473662E-001  0.2413272E+03  0.7546771E-02  0.1119269E+00
         21   -1    0    0  504  503  0.00000000000E+00  0.00000000000E+00  0.18046966487E+03  0.18046966487E+03  0.00000000000E+00 0.  1.
         21   -1    0    0  502  504 -0.00000000000E+00 -0.00000000000E+00 -0.36588771954E+03  0.36588771954E+03  0.00000000000E+00 0.  1.
          6    2    1    2  502    0  0.13621449698E+02 -0.16879187186E+03 -0.18926058357E+03  0.30499962627E+03  0.16890519126E+03 0.  0.
         24    2    3    3    0    0 -0.21547722560E+02 -0.18187508912E+03 -0.16889305096E+03  0.26204653982E+03  0.81244532013E+02 0.  0.
         -6    2    1    2    0  503 -0.13621449698E+02  0.16879187186E+03  0.38425288954E+01  0.24135775814E+03  0.17193767035E+03 0.  0.
        -24    2    5    5    0    0 -0.47620977039E+02  0.31307140565E+02  0.16434063600E+02  0.99095127959E+02  0.79384327385E+02 0.  0.
          4    1    4    4  501    0  0.82005966690E+01 -0.14045508675E+03 -0.15470522116E+03  0.20911381264E+03  0.00000000000E+00 0. -1.
         -3    1    4    4    0  501 -0.29748319229E+02 -0.41420002365E+02 -0.14187829792E+02  0.52932727183E+02  0.00000000000E+00 0.  1.
          5    1    3    3  502    0  0.35169172258E+02  0.13083217251E+02 -0.20367532608E+02  0.42953086450E+02  0.47000000000E+01 0. -1.
         13    1    6    6    0    0 -0.55938131607E+02  0.23649688862E+02 -0.17601320043E+02  0.63231232933E+02  0.00000000000E+00 0. -1.
        -14    1    6    6    0    0  0.83171545676E+01  0.76574517030E+01  0.34035383644E+02  0.35863895026E+02  0.00000000000E+00 0.  1.
         -5    1    5    5    0  503  0.33999527341E+02  0.13748473130E+03 -0.12591534705E+02  0.14226263018E+03  0.47000000000E+01 0.  1.
<mgrwt>
<rscale>  2 0.24078759E+03</rscale>
<asrwt>0</asrwt>
<pdfrwt beam="1">  1       21 0.27764564E-01 0.24132717E+03</pdfrwt>
<pdfrwt beam="2">  1       21 0.56290419E-01 0.24132717E+03</pdfrwt>
<totfact> 0.35906619E+04</totfact>
</mgrwt>
</event>
<event>
12    1  0.1473662E-001  0.2161638E+03  0.7546771E-02  0.1136777E+00
         21   -1    0    0  504  503  0.00000000000E+00  0.00000000000E+00  0.18205651341E+03  0.18205651341E+03  0.00000000000E+00 0.  1.
         21   -1    0    0  502  504 -0.00000000000E+00 -0.00000000000E+00 -0.10290255169E+04  0.10290255169E+04  0.00000000000E+00 0. -1.
          6    2    1    2  502    0 -0.11259884511E+03  0.62430051794E+02  0.10113285522E+03  0.23865169809E+03  0.17363976304E+03 0.  0.
         24    2    3    3    0    0 -0.78111157252E+02  0.93522142924E+02  0.22888096143E+02  0.14754488677E+03  0.79986777428E+02 0.  0.
         -6    2    1    2    0  503  0.11259884511E+03 -0.62430051794E+02 -0.94810185872E+03  0.97243033223E+03  0.17363065758E+03 0.  0.
        -24    2    5    5    0    0  0.85832593740E+02  0.23272980249E+02 -0.43220592093E+03  0.44875853564E+03  0.81690877518E+02 0.  0.
          4    1    4    4  501    0 -0.79949614776E+02  0.10620904461E+03  0.20646384226E+02  0.13453094529E+03  0.00000000000E+00 0. -1.
         -3    1    4    4    0  501  0.18384575244E+01 -0.12686901687E+02  0.22417119176E+01  0.13013941479E+02  0.00000000000E+00 0.  1.
          5    1    3    3  502    0 -0.34487687854E+02 -0.31092091130E+02  0.78244759078E+02  0.91106811313E+02  0.47000000000E+01 0. -1.
         11    1    6    6    0    0  0.82586048635E+02 -0.87916278434E+01 -0.36352860714E+03  0.37289515464E+03  0.00000000000E+00 0. -1.
        -12    1    6    6    0    0  0.32465451056E+01  0.32064608093E+02 -0.68677313792E+02  0.75863381002E+02  0.00000000000E+00 0.  1.
         -5    1    5    5    0  503  0.26766251365E+02 -0.85703032043E+02 -0.51589593779E+03  0.52367179659E+03  0.47000000000E+01 0.  1.
<mgrwt>
<rscale>  2 0.21616195E+03</rscale>
<asrwt>0</asrwt>
<pdfrwt beam="1">  1       21 0.28008695E-01 0.21616378E+03</pdfrwt>
<pdfrwt beam="2">  1       21 0.15831162E+00 0.21616378E+03</pdfrwt>
<totfact> 0.30886188E+03</totfact>
</mgrwt>
</event>
<event>
12    1  0.1473662E-001  0.2858494E+03  0.7546771E-02  0.1092645E+00
         21   -1    0    0  504  503  0.00000000000E+00  0.00000000000E+00  0.10207661281E+03  0.10207661281E+03  0.00000000000E+00 0. -1.
         21   -1    0    0  502  504 -0.00000000000E+00 -0.00000000000E+00 -0.96904621974E+03  0.96904621974E+03  0.00000000000E+00 0. -1.
          6    2    1    2  502    0  0.18636414082E+03  0.13044923450E+03 -0.65887658013E+03  0.71821183077E+03  0.17309329928E+03 0.  0.
         24    2    3    3    0    0  0.18539141048E+03  0.11366315710E+03 -0.42957516399E+03  0.48824672898E+03  0.80998509134E+02 0.  0.
         -6    2    1    2    0  503 -0.18636414082E+03 -0.13044923450E+03 -0.20809302681E+03  0.35291100178E+03  0.17174071039E+03 0.  0.
        -24    2    5    5    0    0 -0.18885544990E+03 -0.15422303705E+03 -0.16441658559E+03  0.30289978477E+03  0.72555770840E+02 0.  0.
          4    1    4    4  501    0  0.11634935376E+03  0.91931823535E+02 -0.35298024302E+03  0.38286248740E+03  0.00000000000E+00 0. -1.
         -3    1    4    4    0  501  0.69042056718E+02  0.21731333567E+02 -0.76594920973E+02  0.10538424158E+03  0.00000000000E+00 0.  1.
          5    1    3    3  502    0  0.97273033816E+00  0.16786077394E+02 -0.22930141614E+03  0.22996510179E+03  0.47000000000E+01 0. -1.
         11    1    6    6    0    0 -0.40614936161E+02 -0.75846087862E+02 -0.66307613065E+02  0.10862274915E+03  0.00000000000E+00 0. -1.
        -12    1    6    6    0    0 -0.14824051374E+03 -0.78376949192E+02 -0.98108972529E+02  0.19427703562E+03  0.00000000000E+00 0.  1.
         -5    1    5    5    0  503  0.24913090843E+01  0.23773802558E+02 -0.43676441213E+02  0.50011217003E+02  0.47000000000E+01 0.  1.
<mgrwt>
<rscale>  2 0.28564494E+03</rscale>
<asrwt>0</asrwt>
<pdfrwt beam="1">  1       21 0.15704094E-01 0.28584941E+03</pdfrwt>
<pdfrwt beam="2">  1       21 0.14908404E+00 0.28584941E+03</pdfrwt>
<totfact> 0.10333490E+04</totfact>
</mgrwt>
</event>
<event>
12    1  0.1473662E-001  0.1748978E+03  0.7546771E-02  0.1173013E+00
         21   -1    0    0  504  503  0.00000000000E+00  0.00000000000E+00  0.99286612087E+02  0.99286612087E+02  0.00000000000E+00 0. -1.
         21   -1    0    0  502  504 -0.00000000000E+00 -0.00000000000E+00 -0.39537721351E+03  0.39537721351E+03  0.00000000000E+00 0. -1.
          6    2    1    2  502    0  0.16560923891E+02  0.20117168978E+02 -0.26531702533E+03  0.31777724008E+03  0.17294590395E+03 0.  0.
         24    2    3    3    0    0  0.46156185041E+02 -0.12250375880E+02 -0.25652262248E+03  0.27279981281E+03  0.79595332140E+02 0.  0.
         -6    2    1    2    0  503 -0.16560923891E+02 -0.20117168978E+02 -0.30773576088E+02  0.17688658551E+03  0.17222916844E+03 0.  0.
        -24    2    5    5    0    0 -0.15139183074E+02 -0.23788395430E+02  0.47190364401E+02  0.98681948393E+02  0.81951899459E+02 0.  0.
          4    1    4    4  501    0  0.36044996205E+02 -0.70220822610E+01 -0.34186151388E+02  0.50172147028E+02  0.00000000000E+00 0. -1.
         -3    1    4    4    0  501  0.10111188836E+02 -0.52282936189E+01 -0.22233647109E+03  0.22262766578E+03  0.00000000000E+00 0.  1.
          5    1    3    3  502    0 -0.29595261150E+02  0.32367544858E+02 -0.87944028565E+01  0.44977427275E+02  0.47000000000E+01 0. -1.
         13    1    6    6    0    0 -0.23022297178E+02 -0.51891384703E+02  0.25066507649E+02  0.62057004274E+02  0.00000000000E+00 0. -1.
        -14    1    6    6    0    0  0.78831141035E+01  0.28102989274E+02  0.22123856752E+02  0.36624944119E+02  0.00000000000E+00 0.  1.
         -5    1    5    5    0  503 -0.14217408166E+01  0.36712264517E+01 -0.77963940490E+02  0.78204637121E+02  0.47000000000E+01 0.  1.
<mgrwt>
<rscale>  2 0.17472038E+03</rscale>
<asrwt>0</asrwt>
<pdfrwt beam="1">  1       21 0.15274864E-01 0.17489783E+03</pdfrwt>
<pdfrwt beam="2">  1       21 0.60827263E-01 0.17489783E+03</pdfrwt>
<totfact> 0.96154821E+04</totfact>
</mgrwt>
</event>
<event>
12    1  0.1473662E-001  0.2325530E+03  0.7546771E-02  0.1124928E+00
         21   -1    0    0  504  503  0.00000000000E+00  0.00000000000E+00  0.14174773739E+03  0.14174773739E+03  0.00000000000E+00 0. -1.
         21   -1    0    0  502  504 -0.00000000000E+00 -0.00000000000E+00 -0.62668938095E+03  0.62668938095E+03  0.00000000000E+00 0. -1.
          6    2    1    2  502    0  0.44649130624E+02  0.14760712491E+03 -0.48298573253E+03  0.53587585310E+03  0.17351168236E+03 0.  0.
         24    2    3    3    0    0 -0.23008624015E+02  0.46476344103E+02 -0.12006452611E+03  0.15307185801E+03  0.79536506979E+02 0.  0.
         -6    2    1    2    0  503 -0.44649130624E+02 -0.14760712491E+03 -0.19559110384E+01  0.23256126524E+03  0.17406753952E+03 0.  0.
        -24    2    5    5    0    0 -0.63195432790E+02 -0.31366858582E+02 -0.32631556759E+02  0.11082856594E+03  0.78997531533E+02 0.  0.
          4    1    4    4  501    0  0.23867567446E+02  0.40909798591E+02 -0.53279711989E+02  0.71288148428E+02  0.00000000000E+00 0. -1.
         -3    1    4    4    0  501 -0.46876191461E+02  0.55665455116E+01 -0.66784814125E+02  0.81783709579E+02  0.00000000000E+00 0.  1.
          5    1    3    3  502    0  0.67657754639E+02  0.10113078081E+03 -0.36292120642E+03  0.38280399509E+03  0.47000000000E+01 0. -1.
         11    1    6    6    0    0 -0.50880605947E+02 -0.38648688795E+02  0.11068259223E+02  0.64846461502E+02  0.00000000000E+00 0. -1.
        -12    1    6    6    0    0 -0.12314826843E+02  0.72818302134E+01 -0.43699815981E+02  0.45982104435E+02  0.00000000000E+00 0.  1.
         -5    1    5    5    0  503  0.18546302166E+02 -0.11624026633E+03  0.30675645720E+02  0.12173269931E+03  0.47000000000E+01 0.  1.
<mgrwt>
<rscale>  2 0.23244903E+03</rscale>
<asrwt>0</asrwt>
<pdfrwt beam="1">  1       21 0.21807345E-01 0.23255304E+03</pdfrwt>
<pdfrwt beam="2">  1       21 0.96413749E-01 0.23255304E+03</pdfrwt>
<totfact> 0.17144591E+04</totfact>
</mgrwt>
</event>
<event>
12    1  0.1473662E-001  0.1979299E+03  0.7546771E-02  0.1151700E+00
         21   -1    0    0  504  503  0.00000000000E+00  0.00000000000E+00  0.15575535931E+03  0.15575535931E+03  0.00000000000E+00 0. -1.
         21   -1    0    0  502  504 -0.00000000000E+00 -0.00000000000E+00 -0.26659194731E+03  0.26659194731E+03  0.00000000000E+00 0. -1.
          6    2    1    2  502    0 -0.93405892973E+02  0.26263441185E+01 -0.10770876554E+03  0.22533848281E+03  0.17448408276E+03 0.  0.
         24    2    3    3    0    0 -0.10969359170E+03 -0.17473656207E+02 -0.26517856381E+02  0.13999592091E+03  0.80979308734E+02 0.  0.
         -6    2    1    2    0  503  0.93405892973E+02 -0.26263441185E+01 -0.31278224676E+01  0.19700882381E+03  0.17341030783E+03 0.  0.
        -24    2    5    5    0    0  0.95704951669E+02 -0.41971029109E+02 -0.44797072431E+02  0.13946139728E+03  0.80757034210E+02 0.  0.
          2    1    4    4  501    0 -0.50096022423E+02  0.26707679427E+02 -0.32761551370E+02  0.65545639452E+02  0.00000000000E+00 0. -1.
         -1    1    4    4    0  501 -0.59597569273E+02 -0.44181335633E+02  0.62436949885E+01  0.74450281455E+02  0.00000000000E+00 0.  1.
          5    1    3    3  502    0  0.16287698723E+02  0.20100000325E+02 -0.81190909157E+02  0.85342561905E+02  0.47000000000E+01 0. -1.
         11    1    6    6    0    0  0.85420516186E+02 -0.27673705967E+02  0.16298038536E+01  0.89806207180E+02  0.00000000000E+00 0. -1.
        -12    1    6    6    0    0  0.10284435483E+02 -0.14297323142E+02 -0.46426876285E+02  0.49655190099E+02  0.00000000000E+00 0.  1.
         -5    1    5    5    0  503 -0.22990586960E+01  0.39344684991E+02  0.41669249964E+02  0.57547426532E+02  0.47000000000E+01 0.  1.
<mgrwt>
<rscale>  2 0.19769301E+03</rscale>
<asrwt>0</asrwt>
<pdfrwt beam="1">  1       21 0.23962363E-01 0.19792992E+03</pdfrwt>
<pdfrwt beam="2">  1       21 0.41014145E-01 0.19792992E+03</pdfrwt>
<totfact> 0.93820438E+04</totfact>
</mgrwt>
</event>
<event>
12    1  0.1473662E-001  0.1837686E+03  0.7546771E-02  0.1164915E+00
         21   -1    0    0  504  503  0.00000000000E+00  0.00000000000E+00  0.48318141994E+02  0.48318141994E+02  0.00000000000E+00 0. -1.
         21   -1    0    0  502  504 -0.00000000000E+00 -0.00000000000E+00 -0.11732433781E+04  0.11732433781E+04  0.00000000000E+00 0. -1.
          6    2    1    2  502    0 -0.51239272064E+02 -0.11189306604E+02 -0.95271003590E+03  0.96971039549E+03  0.17300628612E+03 0.  0.
         24    2    3    3    0    0 -0.65853118381E+02  0.48127964594E+02 -0.70455607813E+03  0.71410409682E+03  0.83020838841E+02 0.  0.
         -6    2    1    2    0  503  0.51239272064E+02  0.11189306604E+02 -0.17221520023E+03  0.25185112463E+03  0.17612566593E+03 0.  0.
        -24    2    5    5    0    0  0.57749576006E+02  0.64516057187E+02 -0.74242128399E+02  0.14001669706E+03  0.81212355353E+02 0.  0.
          4    1    4    4  501    0 -0.57116145883E+02  0.51297365514E+02 -0.69914967858E+03  0.70335193672E+03  0.00000000000E+00 0. -1.
         -3    1    4    4    0  501 -0.87369724981E+01 -0.31694009199E+01 -0.54063995503E+01  0.10752160096E+02  0.00000000000E+00 0.  1.
          5    1    3    3  502    0  0.14613846317E+02 -0.59317271198E+02 -0.24815395776E+03  0.25560629867E+03  0.47000000000E+01 0. -1.
         11    1    6    6    0    0  0.11582732996E+02 -0.60586567059E+01  0.13169174618E+02  0.18555165989E+02  0.00000000000E+00 0. -1.
        -12    1    6    6    0    0  0.46166843010E+02  0.70574713893E+02 -0.87411303017E+02  0.12146153107E+03  0.00000000000E+00 0.  1.
         -5    1    5    5    0  503 -0.65103039419E+01 -0.53326750583E+02 -0.97973071833E+02  0.11183442757E+03  0.47000000000E+01 0.  1.
<mgrwt>
<rscale>  2 0.18301718E+03</rscale>
<asrwt>0</asrwt>
<pdfrwt beam="1">  1       21 0.74335600E-02 0.18376864E+03</pdfrwt>
<pdfrwt beam="2">  1       21 0.18049899E+00 0.18376864E+03</pdfrwt>
<totfact> 0.24766864E+04</totfact>
</mgrwt>
</event>
<event>
12    1  0.1473662E-001  0.2734234E+03  0.7546771E-02  0.1099604E+00
         21   -1    0    0  504  503  0.00000000000E+00  0.00000000000E+00  0.83575007880E+03  0.83575007880E+03  0.00000000000E+00 0. -1.
         21   -1    0    0  502  504 -0.00000000000E+00 -0.00000000000E+00 -0.10568213679E+03  0.10568213679E+03  0.00000000000E+00 0. -1.
          6    2    1    2  502    0  0.15828089396E+03  0.13963482075E+03  0.55405219384E+03  0.61784639622E+03  0.17380912308E+03 0.  0.
         24    2    3    3    0    0  0.10295129774E+03  0.12384428930E+03  0.25176200379E+03  0.31009299803E+03  0.82687261253E+02 0.  0.
         -6    2    1    2    0  503 -0.15828089396E+03 -0.13963482075E+03  0.17601574817E+03  0.32358581937E+03  0.17080841411E+03 0.  0.
        -24    2    5    5    0    0 -0.17844324423E+03 -0.14874724108E+03  0.17849466780E+03  0.30083078443E+03  0.68345309175E+02 0.  0.
          2    1    4    4  501    0  0.97751596124E+02  0.12454029531E+03  0.25752541856E+03  0.30229952184E+03  0.00000000000E+00 0. -1.
         -1    1    4    4    0  501  0.51997016193E+01 -0.69600601741E+00 -0.57634147657E+01  0.77934761864E+01  0.00000000000E+00 0.  1.
          5    1    3    3  502    0  0.55329596218E+02  0.15790531456E+02  0.30229019005E+03  0.30775339820E+03  0.47000000000E+01 0. -1.
         11    1    6    6    0    0 -0.12826914080E+03 -0.14222405045E+03  0.13906296496E+03  0.23668367335E+03  0.00000000000E+00 0. -1.
        -12    1    6    6    0    0 -0.50174103426E+02 -0.65231906364E+01  0.39431702839E+02  0.64147111077E+02  0.00000000000E+00 0.  1.
         -5    1    5    5    0  503  0.20162350268E+02  0.91124203302E+01 -0.24789196266E+01  0.22755034940E+02  0.47000000000E+01 0.  1.
<mgrwt>
<rscale>  2 0.27294772E+03</rscale>
<asrwt>0</asrwt>
<pdfrwt beam="1">  1       21 0.12857693E+00 0.27342336E+03</pdfrwt>
<pdfrwt beam="2">  1       21 0.16258791E-01 0.27342336E+03</pdfrwt>
<totfact> 0.14343634E+04</totfact>
</mgrwt>
</event>
<event>
12    1  0.1473662E-001  0.2038404E+03  0.7546771E-02  0.1146560E+00
         21   -1    0    0  504  503  0.00000000000E+00  0.00000000000E+00  0.15690327000E+03  0.15690327000E+03  0.00000000000E+00 0. -1.
         21   -1    0    0  502  504 -0.00000000000E+00 -0.00000000000E+00 -0.28006161414E+03  0.28006161414E+03  0.00000000000E+00 0.  1.
          6    2    1    2  502    0  0.19588787307E+02  0.10573856569E+03 -0.11278869584E+03  0.23296396631E+03  0.17316626354E+03 0.  0.
         24    2    3    3    0    0 -0.38423385920E+02  0.28271825415E+02 -0.96353975500E+02  0.13468529048E+03  0.81119579500E+02 0.  0.
         -6    2    1    2    0  503 -0.19588787307E+02 -0.10573856569E+03 -0.10369648304E+02  0.20400091784E+03  0.17304473413E+03 0.  0.
        -24    2    5    5    0    0 -0.52245387778E+02 -0.53820944516E+02  0.47358200663E+02  0.11964164159E+03  0.80281060157E+02 0.  0.
          2    1    4    4  501    0 -0.27862511159E+01 -0.23700627459E+02 -0.61397855855E+01  0.24641020763E+02  0.00000000000E+00 0. -1.
         -1    1    4    4    0  501 -0.35637134805E+02  0.51972452874E+02 -0.90214189914E+02  0.11004426971E+03  0.00000000000E+00 0.  1.
          5    1    3    3  502    0  0.58012173227E+02  0.77466740275E+02 -0.16434720337E+02  0.98278675835E+02  0.47000000000E+01 0. -1.
         11    1    6    6    0    0 -0.40892594186E+02 -0.11866747188E+02  0.60728460840E+02  0.74168523675E+02  0.00000000000E+00 0. -1.
        -12    1    6    6    0    0 -0.11352793592E+02 -0.41954197329E+02 -0.13370260177E+02  0.45473117916E+02  0.00000000000E+00 0.  1.
         -5    1    5    5    0  503  0.32656600471E+02 -0.51917621173E+02 -0.57727848967E+02  0.84359276247E+02  0.47000000000E+01 0.  1.
<mgrwt>
<rscale>  2 0.20381461E+03</rscale>
<asrwt>0</asrwt>
<pdfrwt beam="1">  1       21 0.24138965E-01 0.20384043E+03</pdfrwt>
<pdfrwt beam="2">  1       21 0.43086402E-01 0.20384043E+03</pdfrwt>
<totfact> 0.83474526E+04</totfact>
</mgrwt>
</event>
<event>
12    1  0.1473662E-001  0.1786711E+03  0.7546771E-02  0.1169499E+00
         21   -1    0    0  504  503  0.00000000000E+00  0.00000000000E+00  0.24783600585E+03  0.24783600585E+03  0.00000000000E+00 0. -1.
         21   -1    0    0  502  504 -0.00000000000E+00 -0.00000000000E+00 -0.30540184030E+03  0.30540184030E+03  0.00000000000E+00 0. -1.
          6    2    1    2  502    0 -0.47002153175E+02  0.22594948496E+01 -0.23977459975E+03  0.29804501619E+03  0.17065950097E+03 0.  0.
         24    2    3    3    0    0 -0.62116298674E+02 -0.51039400254E+02 -0.11709235343E+03  0.16335190881E+03  0.80683157730E+02 0.  0.
         -6    2    1    2    0  503  0.47002153175E+02 -0.22594948496E+01  0.18220876530E+03  0.25519282996E+03  0.17236310101E+03 0.  0.
        -24    2    5    5    0    0  0.88911974836E+02 -0.39608743788E+02  0.14146653437E+03  0.18567003565E+03  0.70614374859E+02 0.  0.
          2    1    4    4  501    0 -0.77885519709E+02 -0.24056184290E+02 -0.73822765045E+02  0.10997570105E+03  0.00000000000E+00 0. -1.
         -1    1    4    4    0  501  0.15769221035E+02 -0.26983215964E+02 -0.43269588384E+02  0.53376207758E+02  0.00000000000E+00 0.  1.
          5    1    3    3  502    0  0.15114145499E+02  0.53298895104E+02 -0.12268224632E+03  0.13469310738E+03  0.47000000000E+01 0. -1.
         13    1    6    6    0    0  0.13897033787E+02  0.48739911354E+01  0.73883128459E+02  0.75336578158E+02  0.00000000000E+00 0. -1.
        -14    1    6    6    0    0  0.75014941049E+02 -0.44482734923E+02  0.67583405910E+02  0.11033345749E+03  0.00000000000E+00 0.  1.
         -5    1    5    5    0  503 -0.41909821661E+02  0.37349248938E+02  0.40742230929E+02  0.69522794312E+02  0.47000000000E+01 0.  1.
<mgrwt>
<rscale>  2 0.17825891E+03</rscale>
<asrwt>0</asrwt>
<pdfrwt beam="1">  1       21 0.38128616E-01 0.17867106E+03</pdfrwt>
<pdfrwt beam="2">  1       21 0.46984899E-01 0.17867106E+03</pdfrwt>
<totfact> 0.28980037E+04</totfact>
</mgrwt>
</event>
<event>
12    1  0.1473662E-001  0.2912782E+03  0.7546771E-02  0.1089706E+00
         21   -1    0    0  504  503  0.00000000000E+00  0.00000000000E+00  0.20144435826E+03  0.20144435826E+03  0.00000000000E+00 0. -1.
         21   -1    0    0  502  504 -0.00000000000E+00 -0.00000000000E+00 -0.57223465272E+03  0.57223465272E+03  0.00000000000E+00 0.  1.
          6    2    1    2  502    0 -0.21019761131E+03 -0.10332558313E+03 -0.38427685785E+03  0.48208873563E+03  0.17286304870E+03 0.  0.
         24    2    3    3    0    0 -0.22652259538E+03 -0.80692385443E+02 -0.37380671546E+03  0.45191456415E+03  0.81679651587E+02 0.  0.
         -6    2    1    2    0  503  0.21019761131E+03  0.10332558313E+03  0.13486563400E+02  0.29159027536E+03  0.17315827835E+03 0.  0.
        -24    2    5    5    0    0  0.30207184050E+02  0.40149998110E+02  0.30005679122E+02  0.10006304588E+03  0.81165115992E+02 0.  0.
          4    1    4    4  501    0 -0.81806402737E+02 -0.70638555712E+02 -0.17761971154E+03  0.20792030927E+03  0.00000000000E+00 0. -1.
         -3    1    4    4    0  501 -0.14471619265E+03 -0.10053829731E+02 -0.19618700393E+03  0.24399425488E+03  0.00000000000E+00 0.  1.
          5    1    3    3  502    0  0.16324984072E+02 -0.22633197684E+02 -0.10470142394E+02  0.30174171473E+02  0.47000000000E+01 0. -1.
         13    1    6    6    0    0  0.46221714678E+02  0.56084959687E+02  0.25539886598E+02  0.77034118533E+02  0.00000000000E+00 0. -1.
        -14    1    6    6    0    0 -0.16014530627E+02 -0.15934961577E+02  0.44657925245E+01  0.23028927343E+02  0.00000000000E+00 0.  1.
         -5    1    5    5    0  503  0.17999042726E+03  0.63175585017E+02 -0.16519115722E+02  0.19152722948E+03  0.47000000000E+01 0.  1.
<mgrwt>
<rscale>  2 0.29123436E+03</rscale>
<asrwt>0</asrwt>
<pdfrwt beam="1">  1       21 0.30991440E-01 0.29127822E+03</pdfrwt>
<pdfrwt beam="2">  1       21 0.88036100E-01 0.29127822E+03</pdfrwt>
<totfact> 0.10445727E+04</totfact>
</mgrwt>
</event>
<event>
12    1  0.1473662E-001  0.1912130E+03  0.7546771E-02  0.1157422E+00
         21   -1    0    0  504  503  0.00000000000E+00  0.00000000000E+00  0.58847123035E+03  0.58847123035E+03  0.00000000000E+00 0. -1.
         21   -1    0    0  502  504 -0.00000000000E+00 -0.00000000000E+00 -0.86056812013E+02  0.86056812013E+02  0.00000000000E+00 0.  1.
          6    2    1    2  502    0 -0.67697906990E+02 -0.46988090883E+02  0.72995784470E+02  0.20446127184E+03  0.17229376029E+03 0.  0.
         24    2    3    3    0    0 -0.81798905159E+02 -0.37564717224E+02 -0.10042751410E+02  0.11957825492E+03  0.78076458220E+02 0.  0.
         -6    2    1    2    0  503  0.67697906990E+02  0.46988090883E+02  0.42941863386E+03  0.47006677052E+03  0.17254425039E+03 0.  0.
        -24    2    5    5    0    0  0.51388301790E+02  0.11095685478E+02  0.41748572149E+03  0.42860893188E+03  0.81531693440E+02 0.  0.
          4    1    4    4  501    0 -0.47182569173E+02  0.19925341799E+02 -0.11342821471E+02  0.52458304191E+02  0.00000000000E+00 0. -1.
         -3    1    4    4    0  501 -0.34616335985E+02 -0.57490059023E+02  0.13000700609E+01  0.67119950728E+02  0.00000000000E+00 0.  1.
          5    1    3    3  502    0  0.14100998169E+02 -0.94233736592E+01  0.83038535880E+02  0.84883016921E+02  0.47000000000E+01 0. -1.
         11    1    6    6    0    0  0.15058042596E+02 -0.23796764620E+02  0.29252730065E+03  0.29387965611E+03  0.00000000000E+00 0. -1.
        -12    1    6    6    0    0  0.36330259195E+02  0.34892450098E+02  0.12495842085E+03  0.13472927576E+03  0.00000000000E+00 0.  1.
         -5    1    5    5    0  503  0.16309605200E+02  0.35892405405E+02  0.11932912371E+02  0.41457838646E+02  0.47000000000E+01 0.  1.
<mgrwt>
<rscale>  2 0.19115646E+03</rscale>
<asrwt>0</asrwt>
<pdfrwt beam="1">  1       21 0.90534033E-01 0.19121299E+03</pdfrwt>
<pdfrwt beam="2">  1       21 0.13239510E-01 0.19121299E+03</pdfrwt>
<totfact> 0.51008426E+04</totfact>
</mgrwt>
</event>
<event>
12    1  0.1473662E-001  0.3356070E+03  0.7546771E-02  0.1068716E+00
         21   -1    0    0  504  503  0.00000000000E+00  0.00000000000E+00  0.24399011008E+03  0.24399011008E+03  0.00000000000E+00 0.  1.
         21   -1    0    0  502  504 -0.00000000000E+00 -0.00000000000E+00 -0.50415541280E+03  0.50415541280E+03  0.00000000000E+00 0. -1.
          6    2    1    2  502    0  0.27637771673E+03 -0.77570632377E+02 -0.23922072828E+03  0.41188556013E+03  0.17326659369E+03 0.  0.
         24    2    3    3    0    0  0.19363286174E+03 -0.12044336972E+01 -0.98829540211E+02  0.23185699846E+03  0.80593138116E+02 0.  0.
         -6    2    1    2    0  503 -0.27637771673E+03  0.77570632377E+02 -0.20944574443E+02  0.33625996276E+03  0.17386846190E+03 0.  0.
        -24    2    5    5    0    0 -0.17282799563E+03  0.94755980154E+02 -0.65293791055E+02  0.22221249925E+03  0.79163778497E+02 0.  0.
          4    1    4    4  501    0  0.92684332268E+02  0.17531269486E+02 -0.87322686064E+02  0.12854175337E+03  0.00000000000E+00 0. -1.
         -3    1    4    4    0  501  0.10094852947E+03 -0.18735703183E+02 -0.11506854148E+02  0.10331524509E+03  0.00000000000E+00 0.  1.
          5    1    3    3  502    0  0.82744854992E+02 -0.76366198679E+02 -0.14039118807E+03  0.18002856166E+03  0.47000000000E+01 0. -1.
         11    1    6    6    0    0 -0.40537449147E+02 -0.11398124384E+02 -0.60166681070E+01  0.42537069927E+02  0.00000000000E+00 0. -1.
        -12    1    6    6    0    0 -0.13229054648E+03  0.10615410454E+03 -0.59277122948E+02  0.17967542933E+03  0.00000000000E+00 0.  1.
         -5    1    5    5    0  503 -0.10354972110E+03 -0.17185347777E+02  0.44349216612E+02  0.11404746351E+03  0.47000000000E+01 0.  1.
<mgrwt>
<rscale>  2 0.33552916E+03</rscale>
<asrwt>0</asrwt>
<pdfrwt beam="1">  1       21 0.37536940E-01 0.33560704E+03</pdfrwt>
<pdfrwt beam="2">  1       21 0.77562371E-01 0.33560704E+03</pdfrwt>
<totfact> 0.93482781E+03</totfact>
</mgrwt>
</event>
<event>
12    1  0.1473662E-001  0.2844748E+03  0.7546771E-02  0.1093369E+00
         21   -1    0    0  504  503  0.00000000000E+00  0.00000000000E+00  0.10307077875E+04  0.10307077875E+04  0.00000000000E+00 0.  1.
         21   -1    0    0  502  504 -0.00000000000E+00 -0.00000000000E+00 -0.12641854805E+03  0.12641854805E+03  0.00000000000E+00 0. -1.
          6    2    1    2  502    0 -0.79620061300E+02 -0.21150757601E+03  0.94870224607E+02  0.29917233012E+03  0.17154857830E+03 0.  0.
         24    2    3    3    0    0 -0.97724480834E+02 -0.21102765991E+03  0.11510438550E+03  0.27161309223E+03  0.80261478344E+02 0.  0.
         -6    2    1    2    0  503  0.79620061300E+02  0.21150757601E+03  0.80941901485E+03  0.85795400543E+03  0.17277478106E+03 0.  0.
        -24    2    5    5    0    0  0.49530753599E+02  0.51985859234E+02  0.25220806255E+03  0.27755872640E+03  0.90962160674E+02 0.  0.
          2    1    4    4  501    0 -0.45093350783E+02 -0.13415461800E+03  0.28413829260E+02  0.14435448559E+03  0.00000000000E+00 0. -1.
         -1    1    4    4    0  501 -0.52631130051E+02 -0.76873041909E+02  0.86690556236E+02  0.12725860664E+03  0.00000000000E+00 0.  1.
          5    1    3    3  502    0  0.18104419534E+02 -0.47991610013E+00 -0.20234160889E+02  0.27559237889E+02  0.47000000000E+01 0. -1.
         13    1    6    6    0    0  0.91402617165E+01  0.67910602147E+02  0.11742987508E+03  0.13596017736E+03  0.00000000000E+00 0. -1.
        -14    1    6    6    0    0  0.40390491883E+02 -0.15924742913E+02  0.13477818747E+03  0.14159854904E+03  0.00000000000E+00 0.  1.
         -5    1    5    5    0  503  0.30089307701E+02  0.15952171678E+03  0.55721095230E+03  0.58039527903E+03  0.47000000000E+01 0.  1.
<mgrwt>
<rscale>  2 0.28428889E+03</rscale>
<asrwt>0</asrwt>
<pdfrwt beam="1">  1       21 0.15857042E+00 0.28447484E+03</pdfrwt>
<pdfrwt beam="2">  1       21 0.19449008E-01 0.28447484E+03</pdfrwt>
<totfact> 0.58808469E+03</totfact>
</mgrwt>
</event>
<event>
12    1  0.1473662E-001  0.2177111E+03  0.7546771E-02  0.1135750E+00
         21   -1    0    0  504  503  0.00000000000E+00  0.00000000000E+00  0.36083208188E+03  0.36083208188E+03  0.00000000000E+00 0. -1.
         21   -1    0    0  502  504 -0.00000000000E+00 -0.00000000000E+00 -0.15243091220E+03  0.15243091220E+03  0.00000000000E+00 0. -1.
          6    2    1    2  502    0  0.81305126927E+02 -0.10387172405E+03  0.75530824245E+01  0.21705683800E+03  0.17221139088E+03 0.  0.
         24    2    3    3    0    0  0.10012996328E+03 -0.85785483654E+02 -0.42789001783E+02  0.16015427217E+03  0.80208063619E+02 0.  0.
         -6    2    1    2    0  503 -0.81305126927E+02  0.10387172405E+03  0.20084808725E+03  0.29620615608E+03  0.17320009822E+03 0.  0.
        -24    2    5    5    0    0 -0.95385545853E+02  0.12541984112E+03  0.12567069715E+03  0.21660521684E+03  0.79348326589E+02 0.  0.
          4    1    4    4  501    0  0.10177853419E+03 -0.95828125832E+02 -0.49117208835E+02  0.14817017219E+03  0.00000000000E+00 0. -1.
         -3    1    4    4    0  501 -0.16485709099E+01  0.10042642178E+02  0.63282070517E+01  0.11984099985E+02  0.00000000000E+00 0.  1.
          5    1    3    3  502    0 -0.18824836354E+02 -0.18086240400E+02  0.50342084207E+02  0.56902565829E+02  0.47000000000E+01 0. -1.
         13    1    6    6    0    0 -0.76115840440E+02  0.13467563663E+03  0.10577507613E+03  0.18740201439E+03  0.00000000000E+00 0. -1.
        -14    1    6    6    0    0 -0.19269705413E+02 -0.92557955058E+01  0.19895621025E+02  0.29203202446E+02  0.00000000000E+00 0.  1.
         -5    1    5    5    0  503  0.14080418927E+02 -0.21548117070E+02  0.75177390099E+02  0.79600939244E+02  0.47000000000E+01 0.  1.
<mgrwt>
<rscale>  2 0.21751442E+03</rscale>
<asrwt>0</asrwt>
<pdfrwt beam="1">  1       21 0.55512628E-01 0.21771112E+03</pdfrwt>
<pdfrwt beam="2">  1       21 0.23450910E-01 0.21771112E+03</pdfrwt>
<totfact> 0.51705187E+04</totfact>
</mgrwt>
</event>
<event>
12    1  0.1473662E-001  0.1959918E+03  0.7546771E-02  0.1153312E+00
         21   -1    0    0  504  503  0.00000000000E+00  0.00000000000E+00  0.13976161229E+03  0.13976161229E+03  0.00000000000E+00 0. -1.
         21   -1    0    0  502  504 -0.00000000000E+00 -0.00000000000E+00 -0.39123970836E+03  0.39123970836E+03  0.00000000000E+00 0. -1.
          6    2    1    2  502    0  0.31512467884E+02  0.85599094689E+02 -0.27098793846E+03  0.33404089225E+03  0.17270962411E+03 0.  0.
         24    2    3    3    0    0  0.81322206043E+02  0.34792741017E+02 -0.20303017816E+03  0.23553889850E+03  0.80208998479E+02 0.  0.
         -6    2    1    2    0  503 -0.31512467884E+02 -0.85599094689E+02  0.19509842394E+02  0.19696042839E+03  0.17347200281E+03 0.  0.
        -24    2    5    5    0    0  0.49050080399E+02 -0.50455521281E+02  0.84377597604E+01  0.10824697985E+03  0.81820186036E+02 0.  0.
          2    1    4    4  501    0  0.49520665472E+02  0.41608072842E+02 -0.57902230352E+02  0.86811268360E+02  0.00000000000E+00 0. -1.
         -1    1    4    4    0  501  0.31801540571E+02 -0.68153318254E+01 -0.14512794781E+03  0.14872763014E+03  0.00000000000E+00 0.  1.
          5    1    3    3  502    0 -0.49809738159E+02  0.50806353672E+02 -0.67957760303E+02  0.98501993759E+02  0.47000000000E+01 0. -1.
         11    1    6    6    0    0  0.12183944920E+02  0.56015592849E+01  0.33922329619E+02  0.36476710748E+02  0.00000000000E+00 0. -1.
        -12    1    6    6    0    0  0.36866135479E+02 -0.56057080566E+02 -0.25484569858E+02  0.71770269106E+02  0.00000000000E+00 0.  1.
         -5    1    5    5    0  503 -0.80562548282E+02 -0.35143573408E+02  0.11072082633E+02  0.88713448538E+02  0.47000000000E+01 0.  1.
<mgrwt>
<rscale>  2 0.19582294E+03</rscale>
<asrwt>0</asrwt>
<pdfrwt beam="1">  1       21 0.21501786E-01 0.19599178E+03</pdfrwt>
<pdfrwt beam="2">  1       21 0.60190725E-01 0.19599178E+03</pdfrwt>
<totfact> 0.51785190E+04</totfact>
</mgrwt>
</event>
<event>
12    1  0.1473662E-001  0.1865171E+03  0.7546771E-02  0.1161930E+00
         21   -1    0    0  504  503  0.00000000000E+00  0.00000000000E+00  0.95708543923E+03  0.95708543923E+03  0.00000000000E+00 0. -1.
         21   -1    0    0  502  504 -0.00000000000E+00 -0.00000000000E+00 -0.41809420476E+02  0.41809420476E+02  0.00000000000E+00 0. -1.
          6    2    1    2  502    0  0.59831012342E+02  0.32528541668E+02  0.64343143889E+03  0.66991989281E+03  0.17363982885E+03 0.  0.
         24    2    3    3    0    0  0.10989494572E+02  0.62862466586E+02  0.22255352495E+03  0.24510705248E+03  0.80466993316E+02 0.  0.
         -6    2    1    2    0  503 -0.59831012342E+02 -0.32528541668E+02  0.27184457986E+03  0.32897496690E+03  0.17229973066E+03 0.  0.
        -24    2    5    5    0    0 -0.22422266789E+02  0.34062724082E+02  0.70130602870E+02  0.11323338669E+03  0.78996652981E+02 0.  0.
          2    1    4    4  501    0  0.34770001486E+02  0.61621407158E+02  0.11559601133E+03  0.13553076647E+03  0.00000000000E+00 0. -1.
         -1    1    4    4    0  501 -0.23780506914E+02  0.12410594272E+01  0.10695751362E+03  0.10957628601E+03  0.00000000000E+00 0.  1.
          5    1    3    3  502    0  0.48841517770E+02 -0.30333924917E+02  0.42087791394E+03  0.42481284033E+03  0.47000000000E+01 0. -1.
         13    1    6    6    0    0  0.10110452641E+02  0.51044059719E+02  0.37677840643E+02  0.64244353531E+02  0.00000000000E+00 0. -1.
        -14    1    6    6    0    0 -0.32532719430E+02 -0.16981335637E+02  0.32452762227E+02  0.48989033157E+02  0.00000000000E+00 0.  1.
         -5    1    5    5    0  503 -0.37408745553E+02 -0.66591265750E+02  0.20171397699E+03  0.21574158021E+03  0.47000000000E+01 0.  1.
<mgrwt>
<rscale>  2 0.18620463E+03</rscale>
<asrwt>0</asrwt>
<pdfrwt beam="1">  1       21 0.14724390E+00 0.18651715E+03</pdfrwt>
<pdfrwt beam="2">  1       21 0.64322193E-02 0.18651715E+03</pdfrwt>
<totfact> 0.55100594E+04</totfact>
</mgrwt>
</event>
<event>
12    1  0.1473662E-001  0.1902531E+03  0.7546771E-02  0.1158856E+00
         21   -1    0    0  504  503  0.00000000000E+00  0.00000000000E+00  0.57413851494E+02  0.57413851494E+02  0.00000000000E+00 0.  1.
         21   -1    0    0  502  504 -0.00000000000E+00 -0.00000000000E+00 -0.79653302695E+03  0.79653302695E+03  0.00000000000E+00 0.  1.
          6    2    1    2  502    0  0.70488099761E+02  0.22218005875E+02 -0.57186425264E+03  0.60268146769E+03  0.17531119775E+03 0.  0.
         24    2    3    3    0    0 -0.44901698001E+01 -0.20443375117E+02 -0.41959835890E+03  0.42761369016E+03  0.79703149290E+02 0.  0.
         -6    2    1    2    0  503 -0.70488099761E+02 -0.22218005875E+02 -0.16725492282E+03  0.25126541075E+03  0.17233074433E+03 0.  0.
        -24    2    5    5    0    0 -0.50882888010E+02  0.44315151210E+02 -0.14232961422E+03  0.17741159346E+03  0.81634879138E+02 0.  0.
          2    1    4    4  501    0 -0.34896286158E+01 -0.44813602350E+02 -0.14196598718E+03  0.14891198064E+03  0.00000000000E+00 0. -1.
         -1    1    4    4    0  501 -0.10005411842E+01  0.24370227233E+02 -0.27763237172E+03  0.27870170952E+03  0.00000000000E+00 0.  1.
          5    1    3    3  502    0  0.74978269562E+02  0.42661380992E+02 -0.15226589374E+03  0.17506777754E+03  0.47000000000E+01 0. -1.
         13    1    6    6    0    0 -0.67019934186E+02  0.54798283467E+02 -0.11929232511E+03  0.14739464807E+03  0.00000000000E+00 0. -1.
        -14    1    6    6    0    0  0.16137046176E+02 -0.10483132257E+02 -0.23037289116E+02  0.30016945398E+02  0.00000000000E+00 0.  1.
         -5    1    5    5    0  503 -0.19605211752E+02 -0.66533157085E+02 -0.24925308594E+02  0.73853817288E+02  0.47000000000E+01 0.  1.
<mgrwt>
<rscale>  2 0.18956362E+03</rscale>
<asrwt>0</asrwt>
<pdfrwt beam="1">  1       21 0.88329004E-02 0.19025306E+03</pdfrwt>
<pdfrwt beam="2">  1       21 0.12254354E+00 0.19025306E+03</pdfrwt>
<totfact> 0.50664123E+04</totfact>
</mgrwt>
</event>
<event>
12    1  0.1473662E-001  0.2292376E+03  0.7546771E-02  0.1127305E+00
         21   -1    0    0  504  503  0.00000000000E+00  0.00000000000E+00  0.12234615458E+03  0.12234615458E+03  0.00000000000E+00 0. -1.
         21   -1    0    0  502  504 -0.00000000000E+00 -0.00000000000E+00 -0.48718315369E+03  0.48718315369E+03  0.00000000000E+00 0.  1.
          6    2    1    2  502    0 -0.92836973075E+01 -0.14921035633E+03 -0.76598176959E+02  0.24169639197E+03  0.17378132151E+03 0.  0.
         24    2    3    3    0    0  0.64203720095E+01 -0.11064092610E+03 -0.11866569245E+03  0.18231639028E+03  0.82916125659E+02 0.  0.
         -6    2    1    2    0  503  0.92836973075E+01  0.14921035633E+03 -0.28823882215E+03  0.36783291630E+03  0.17282800191E+03 0.  0.
        -24    2    5    5    0    0 -0.48380945215E+02  0.55695488849E+02 -0.91627593911E+02  0.14255906849E+03  0.80528061591E+02 0.  0.
          4    1    4    4  501    0 -0.20550686770E+02 -0.10557889132E+03 -0.76435102582E+02  0.13195286252E+03  0.00000000000E+00 0. -1.
         -3    1    4    4    0  501  0.26971058779E+02 -0.50620347734E+01 -0.42230589868E+02  0.50363527759E+02  0.00000000000E+00 0.  1.
          5    1    3    3  502    0 -0.15704069317E+02 -0.38569430239E+02  0.42067515492E+02  0.59380001698E+02  0.47000000000E+01 0. -1.
         13    1    6    6    0    0  0.17290286103E+01  0.58970194582E+02 -0.49267209728E+02  0.76861767761E+02  0.00000000000E+00 0. -1.
        -14    1    6    6    0    0 -0.50109973825E+02 -0.32747057335E+01 -0.42360384183E+02  0.65697300724E+02  0.00000000000E+00 0.  1.
         -5    1    5    5    0  503  0.57664642522E+02  0.93514867486E+02 -0.19661122824E+03  0.22527384781E+03  0.47000000000E+01 0.  1.
<mgrwt>
<rscale>  2 0.22905690E+03</rscale>
<asrwt>0</asrwt>
<pdfrwt beam="1">  1       21 0.18822485E-01 0.22923757E+03</pdfrwt>
<pdfrwt beam="2">  1       21 0.74951255E-01 0.22923757E+03</pdfrwt>
<totfact> 0.40409385E+04</totfact>
</mgrwt>
</event>
<event>
12    1  0.1473662E-001  0.2015257E+03  0.7546771E-02  0.1148556E+00
         21   -1    0    0  504  503  0.00000000000E+00  0.00000000000E+00  0.25737711691E+03  0.25737711691E+03  0.00000000000E+00 0.  1.
         21   -1    0    0  502  504 -0.00000000000E+00 -0.00000000000E+00 -0.34588917737E+03  0.34588917737E+03  0.00000000000E+00 0.  1.
          6    2    1    2  502    0  0.90118606585E+02  0.49385677500E+02 -0.26692964432E+03  0.33446081072E+03  0.17335596470E+03 0.  0.
         24    2    3    3    0    0  0.76351817931E+01  0.80643438797E+02 -0.15787025174E+03  0.19411622010E+03  0.78717407863E+02 0.  0.
         -6    2    1    2    0  503 -0.90118606585E+02 -0.49385677500E+02  0.17841758386E+03  0.26880548355E+03  0.17280985320E+03 0.  0.
        -24    2    5    5    0    0 -0.59151722813E+02 -0.69793721227E+01  0.19036078470E+03  0.21475020932E+03  0.79578804355E+02 0.  0.
          2    1    4    4  501    0  0.16020184531E+02  0.50389455662E+02 -0.26685493704E+02  0.59227182346E+02  0.00000000000E+00 0. -1.
         -1    1    4    4    0  501 -0.83850027380E+01  0.30253983135E+02 -0.13118475803E+03  0.13488903775E+03  0.00000000000E+00 0.  1.
          5    1    3    3  502    0  0.82483424792E+02 -0.31257761298E+02 -0.10905939258E+03  0.14034459062E+03  0.47000000000E+01 0. -1.
         13    1    6    6    0    0 -0.15731471813E+02  0.34407432140E+02  0.92909024619E+02  0.10031668579E+03  0.00000000000E+00 0. -1.
        -14    1    6    6    0    0 -0.43420251000E+02 -0.41386804263E+02  0.97451760083E+02  0.11443352353E+03  0.00000000000E+00 0.  1.
         -5    1    5    5    0  503 -0.30966883772E+02 -0.42406305377E+02 -0.11943200845E+02  0.54055274236E+02  0.47000000000E+01 0.  1.
<mgrwt>
<rscale>  2 0.20140818E+03</rscale>
<asrwt>0</asrwt>
<pdfrwt beam="1">  1       21 0.39596479E-01 0.20152568E+03</pdfrwt>
<pdfrwt beam="2">  1       21 0.53213720E-01 0.20152568E+03</pdfrwt>
<totfact> 0.20451787E+04</totfact>
</mgrwt>
</event>
<event>
12    1  0.1473662E-001  0.2723998E+03  0.7546771E-02  0.1099981E+00
         21   -1    0    0  504  503  0.00000000000E+00  0.00000000000E+00  0.62582583933E+03  0.62582583933E+03  0.00000000000E+00 0.  1.
         21   -1    0    0  502  504 -0.00000000000E+00 -0.00000000000E+00 -0.16897448471E+03  0.16897448471E+03  0.00000000000E+00 0.  1.
          6    2    1    2  502    0 -0.15317869439E+03 -0.14381681842E+03  0.10784789097E+02  0.27213692266E+03  0.17261287126E+03 0.  0.
         24    2    3    3    0    0 -0.55191304348E+02 -0.81062401715E+01  0.32087770729E+02  0.10333290410E+03  0.80847219085E+02 0.  0.
         -6    2    1    2    0  503  0.15317869439E+03  0.14381681842E+03  0.44606656552E+03  0.52266340138E+03  0.17336280049E+03 0.  0.
        -24    2    5    5    0    0  0.63085830923E+02  0.13817270052E+03  0.32395922518E+03  0.37073949714E+03  0.97091080594E+02 0.  0.
          2    1    4    4  501    0 -0.61835954520E+01  0.17892525026E+02  0.42828445468E+02  0.46825794662E+02  0.00000000000E+00 0. -1.
         -1    1    4    4    0  501 -0.49007708896E+02 -0.25998765198E+02 -0.10740674739E+02  0.56507109437E+02  0.00000000000E+00 0.  1.
          5    1    3    3  502    0 -0.97987390041E+02 -0.13571057825E+03 -0.21302981632E+02  0.16880401856E+03  0.47000000000E+01 0. -1.
         13    1    6    6    0    0 -0.19579960321E+02  0.67227620026E+02  0.10543402641E+03  0.12656722192E+03  0.00000000000E+00 0. -1.
        -14    1    6    6    0    0  0.82665791244E+02  0.70945080492E+02  0.21852519877E+03  0.24417227522E+03  0.00000000000E+00 0.  1.
         -5    1    5    5    0  503  0.90092863467E+02  0.56441179043E+01  0.12210734034E+03  0.15192390424E+03  0.47000000000E+01 0.  1.
<mgrwt>
<rscale>  2 0.27228056E+03</rscale>
<asrwt>0</asrwt>
<pdfrwt beam="1">  1       21 0.96280898E-01 0.27239980E+03</pdfrwt>
<pdfrwt beam="2">  1       21 0.25996075E-01 0.27239980E+03</pdfrwt>
<totfact> 0.12040647E+04</totfact>
</mgrwt>
</event>
<event>
12    1  0.1473662E-001  0.2273408E+03  0.7546771E-02  0.1131261E+00
         21   -1    0    0  504  503  0.00000000000E+00  0.00000000000E+00  0.43837446650E+03  0.43837446650E+03  0.00000000000E+00 0. -1.
         21   -1    0    0  502  504 -0.00000000000E+00 -0.00000000000E+00 -0.33650965817E+03  0.33650965817E+03  0.00000000000E+00 0. -1.
          6    2    1    2  502    0 -0.93980804724E+02 -0.11373106719E+03 -0.26606484361E+03  0.34996332151E+03  0.17296438389E+03 0.  0.
         24    2    3    3    0    0 -0.12128849106E+03 -0.10111272204E+03 -0.16184064119E+03  0.24138290551E+03  0.84490433239E+02 0.  0.
         -6    2    1    2    0  503  0.93980804724E+02  0.11373106719E+03  0.36792965194E+03  0.42492080316E+03  0.15303043122E+03 0.  0.
        -24    2    5    5    0    0  0.45241678098E+02  0.12292649330E+03  0.22358858814E+03  0.27222341934E+03  0.83402644439E+02 0.  0.
          2    1    4    4  501    0 -0.55895393693E+02 -0.89637212315E+02 -0.65213071231E+02  0.12414455094E+03  0.00000000000E+00 0. -1.
         -1    1    4    4    0  501 -0.65393097371E+02 -0.11475509725E+02 -0.96627569957E+02  0.11723835457E+03  0.00000000000E+00 0.  1.
          5    1    3    3  502    0  0.27307686340E+02 -0.12618345152E+02 -0.10422420243E+03  0.10858041600E+03  0.47000000000E+01 0. -1.
         11    1    6    6    0    0  0.59411241823E+02  0.96132750929E+02  0.21109115824E+03  0.23943825623E+03  0.00000000000E+00 0. -1.
        -12    1    6    6    0    0 -0.14169563725E+02  0.26793742372E+02  0.12497429894E+02  0.32785163114E+02  0.00000000000E+00 0.  1.
         -5    1    5    5    0  503  0.48739126625E+02 -0.91954261091E+01  0.14434106381E+03  0.15269738382E+03  0.47000000000E+01 0.  1.
<mgrwt>
<rscale>  2 0.22355420E+03</rscale>
<asrwt>0</asrwt>
<pdfrwt beam="1">  1       21 0.67442226E-01 0.22734077E+03</pdfrwt>
<pdfrwt beam="2">  1       21 0.51770717E-01 0.22734077E+03</pdfrwt>
<totfact> 0.69535041E+03</totfact>
</mgrwt>
</event>
<event>
12    1  0.1473662E-001  0.1819054E+03  0.7546771E-02  0.1166055E+00
         21   -1    0    0  504  503  0.00000000000E+00  0.00000000000E+00  0.39645961609E+02  0.39645961609E+02  0.00000000000E+00 0.  1.
         21   -1    0    0  502  504 -0.00000000000E+00 -0.00000000000E+00 -0.13084266983E+04  0.13084266983E+04  0.00000000000E+00 0. -1.
          6    2    1    2  502    0 -0.46295456827E+02  0.31861886526E+02 -0.10402948838E+04  0.10560189625E+04  0.17263879838E+03 0.  0.
         24    2    3    3    0    0 -0.35434136100E+02 -0.18288668107E+01 -0.25314650222E+03  0.26806103227E+03  0.80713336442E+02 0.  0.
         -6    2    1    2    0  503  0.46295456827E+02 -0.31861886526E+02 -0.22848585291E+03  0.29205369745E+03  0.17300615041E+03 0.  0.
        -24    2    5    5    0    0 -0.52033744182E+01  0.35071153606E+02 -0.16839967191E+03  0.18830110410E+03  0.76431638635E+02 0.  0.
          2    1    4    4  501    0  0.73335204620E+01  0.18616559283E+02 -0.14394723400E+02  0.24648830878E+02  0.00000000000E+00 0. -1.
         -1    1    4    4    0  501 -0.42767656562E+02 -0.20445426093E+02 -0.23875177882E+03  0.24341220139E+03  0.00000000000E+00 0.  1.
          5    1    3    3  502    0 -0.10861320727E+02  0.33690753337E+02 -0.78714838159E+03  0.78795793022E+03  0.47000000000E+01 0. -1.
         11    1    6    6    0    0  0.61288473774E+01  0.22542298584E+02 -0.16975356166E+03  0.17135340584E+03  0.00000000000E+00 0. -1.
        -12    1    6    6    0    0 -0.11332221796E+02  0.12528855022E+02  0.13538897471E+01  0.16947698264E+02  0.00000000000E+00 0.  1.
         -5    1    5    5    0  503  0.51498831245E+02 -0.66933040132E+02 -0.60086180995E+02  0.10375259335E+03  0.47000000000E+01 0.  1.
<mgrwt>
<rscale>  2 0.18181801E+03</rscale>
<asrwt>0</asrwt>
<pdfrwt beam="1">  1       21 0.60993793E-02 0.18190541E+03</pdfrwt>
<pdfrwt beam="2">  1       21 0.20129639E+00 0.18190541E+03</pdfrwt>
<totfact> 0.25455247E+04</totfact>
</mgrwt>
</event>
<event>
12    1  0.1473662E-001  0.1797480E+03  0.7546771E-02  0.1168381E+00
         21   -1    0    0  504  503  0.00000000000E+00  0.00000000000E+00  0.20490842913E+02  0.20490842913E+02  0.00000000000E+00 0. -1.
         21   -1    0    0  502  504 -0.00000000000E+00 -0.00000000000E+00 -0.19895839975E+04  0.19895839975E+04  0.00000000000E+00 0. -1.
          6    2    1    2  502    0 -0.48199669319E+02 -0.21728679467E+01 -0.14459932054E+04  0.14569537899E+04  0.17172672029E+03 0.  0.
         24    2    3    3    0    0  0.16662364444E+02 -0.45662398149E+02 -0.61232930684E+03  0.61962708642E+03  0.81411652805E+02 0.  0.
         -6    2    1    2    0  503  0.48199669319E+02  0.21728679467E+01 -0.52309994920E+03  0.55312105049E+03  0.17315140821E+03 0.  0.
        -24    2    5    5    0    0  0.97904030001E+02  0.15854770204E+02 -0.37987457742E+03  0.40082753440E+03  0.80755463835E+02 0.  0.
          4    1    4    4  501    0 -0.30871908839E+01 -0.51072891489E+02 -0.57305778200E+03  0.57533745968E+03  0.00000000000E+00 0. -1.
         -3    1    4    4    0  501  0.19749555328E+02  0.54104933395E+01 -0.39271524842E+02  0.44289626745E+02  0.00000000000E+00 0.  1.
          5    1    3    3  502    0 -0.64862033763E+02  0.43489530203E+02 -0.83366389851E+03  0.83732670347E+03  0.47000000000E+01 0. -1.
         11    1    6    6    0    0  0.32266331560E+02  0.43088569651E+02 -0.20773819056E+03  0.21459938677E+03  0.00000000000E+00 0. -1.
        -12    1    6    6    0    0  0.65637698441E+02 -0.27233799447E+02 -0.17213638686E+03  0.18622814763E+03  0.00000000000E+00 0.  1.
         -5    1    5    5    0  503 -0.49704360682E+02 -0.13681902257E+02 -0.14322537178E+03  0.15229351608E+03  0.47000000000E+01 0.  1.
<mgrwt>
<rscale>  2 0.17940400E+03</rscale>
<asrwt>0</asrwt>
<pdfrwt beam="1">  1       21 0.31524379E-02 0.17974799E+03</pdfrwt>
<pdfrwt beam="2">  1       21 0.30608980E+00 0.17974799E+03</pdfrwt>
<totfact> 0.18604376E+04</totfact>
</mgrwt>
</event>
<event>
12    1  0.1473662E-001  0.2951870E+03  0.7546771E-02  0.1087673E+00
         21   -1    0    0  504  503  0.00000000000E+00  0.00000000000E+00  0.84099378565E+03  0.84099378565E+03  0.00000000000E+00 0.  1.
         21   -1    0    0  502  504 -0.00000000000E+00 -0.00000000000E+00 -0.11723174035E+03  0.11723174035E+03  0.00000000000E+00 0.  1.
          6    2    1    2  502    0 -0.23162097116E+03 -0.60936564594E+02  0.19854723046E+03  0.35574761365E+03  0.17255092786E+03 0.  0.
         24    2    3    3    0    0 -0.17934026253E+03  0.50822751831E+01  0.83228245089E+02  0.21287592965E+03  0.78743008327E+02 0.  0.
         -6    2    1    2    0  503  0.23162097116E+03  0.60936564594E+02  0.52521481484E+03  0.60247791235E+03  0.17253258808E+03 0.  0.
        -24    2    5    5    0    0  0.23640177917E+03  0.22547845342E+02  0.44129183493E+03  0.50994842273E+03  0.94417708864E+02 0.  0.
          4    1    4    4  501    0 -0.14771160971E+03  0.24729494261E+02  0.90430934759E+02  0.17495148325E+03  0.00000000000E+00 0. -1.
         -3    1    4    4    0  501 -0.31628652819E+02 -0.19647219078E+02 -0.72026896699E+01  0.37924446405E+02  0.00000000000E+00 0.  1.
          5    1    3    3  502    0 -0.52280708636E+02 -0.66018839778E+02  0.11531898537E+03  0.14287168400E+03  0.47000000000E+01 0. -1.
         13    1    6    6    0    0  0.30907324853E+01 -0.57740995662E+01  0.71443294803E+02  0.71742854873E+02  0.00000000000E+00 0. -1.
        -14    1    6    6    0    0  0.23331104668E+03  0.28321944909E+02  0.36984854012E+03  0.43820556786E+03  0.00000000000E+00 0.  1.
         -5    1    5    5    0  503 -0.47808080075E+01  0.38388719252E+02  0.83922979916E+02  0.92529489618E+02  0.47000000000E+01 0.  1.
<mgrwt>
<rscale>  2 0.29518431E+03</rscale>
<asrwt>0</asrwt>
<pdfrwt beam="1">  1       21 0.12938366E+00 0.29518699E+03</pdfrwt>
<pdfrwt beam="2">  1       21 0.18035653E-01 0.29518699E+03</pdfrwt>
<totfact> 0.11520025E+04</totfact>
</mgrwt>
</event>
<event>
12    1  0.1473662E-001  0.2008744E+03  0.7546771E-02  0.1149127E+00
         21   -1    0    0  504  503  0.00000000000E+00  0.00000000000E+00  0.44291979470E+03  0.44291979470E+03  0.00000000000E+00 0.  1.
         21   -1    0    0  502  504 -0.00000000000E+00 -0.00000000000E+00 -0.95701673009E+02  0.95701673009E+02  0.00000000000E+00 0.  1.
          6    2    1    2  502    0  0.81165920882E+02 -0.60347398760E+02  0.11312092875E+03  0.23053600672E+03  0.17355342297E+03 0.  0.
         24    2    3    3    0    0  0.60397244744E+02 -0.87518311677E+02  0.23836100855E+02  0.13481000759E+03  0.79361806880E+02 0.  0.
         -6    2    1    2    0  503 -0.81165920882E+02  0.60347398760E+02  0.23409719294E+03  0.30808546099E+03  0.17287405901E+03 0.  0.
        -24    2    5    5    0    0 -0.11134953840E+03  0.55775867456E+02  0.12232443007E+03  0.19212344055E+03  0.80240159046E+02 0.  0.
          4    1    4    4  501    0  0.59666877883E+02 -0.79128428934E+02 -0.10312473645E+02  0.99638304354E+02  0.00000000000E+00 0. -1.
         -3    1    4    4    0  501  0.73036686154E+00 -0.83898827426E+01  0.34148574500E+02  0.35171703237E+02  0.00000000000E+00 0.  1.
          5    1    3    3  502    0  0.20768676138E+02  0.27170912917E+02  0.89284827894E+02  0.95725999129E+02  0.47000000000E+01 0. -1.
         11    1    6    6    0    0 -0.73927486160E+02  0.19443935440E+02  0.11691369313E+03  0.13968590293E+03  0.00000000000E+00 0. -1.
        -12    1    6    6    0    0 -0.37422052240E+02  0.36331932016E+02  0.54107369454E+01  0.52437537625E+02  0.00000000000E+00 0.  1.
         -5    1    5    5    0  503  0.30183617518E+02  0.45715313044E+01  0.11177276287E+03  0.11596202044E+03  0.47000000000E+01 0.  1.
<mgrwt>
<rscale>  2 0.20072752E+03</rscale>
<asrwt>0</asrwt>
<pdfrwt beam="1">  1       21 0.68141506E-01 0.20087435E+03</pdfrwt>
<pdfrwt beam="2">  1       21 0.14723335E-01 0.20087435E+03</pdfrwt>
<totfact> 0.79487843E+04</totfact>
</mgrwt>
</event>
<event>
12    1  0.1473662E-001  0.2043191E+03  0.7546771E-02  0.1147115E+00
         21   -1    0    0  504  503  0.00000000000E+00  0.00000000000E+00  0.60172854946E+03  0.60172854946E+03  0.00000000000E+00 0.  1.
         21   -1    0    0  502  504 -0.00000000000E+00 -0.00000000000E+00 -0.67936414849E+02  0.67936414849E+02  0.00000000000E+00 0.  1.
          6    2    1    2  502    0 -0.11790266135E+02  0.99402988450E+02  0.27877873999E+03  0.34289573418E+03  0.17274239248E+03 0.  0.
         24    2    3    3    0    0  0.48653826431E+02  0.94313459277E+02  0.22639810642E+03  0.26261365395E+03  0.80296981398E+02 0.  0.
         -6    2    1    2    0  503  0.11790266135E+02 -0.99402988450E+02  0.25501339462E+03  0.32676923013E+03  0.17811887557E+03 0.  0.
        -24    2    5    5    0    0  0.49240863840E+02 -0.47656266850E+02  0.51217351268E+02  0.11314529010E+03  0.74046317667E+02 0.  0.
          4    1    4    4  501    0  0.89346760943E+01  0.71678805804E+02  0.19277758164E+03  0.20586615948E+03  0.00000000000E+00 0. -1.
         -3    1    4    4    0  501  0.39719150337E+02  0.22634653473E+02  0.33620524784E+02  0.56747494465E+02  0.00000000000E+00 0.  1.
          5    1    3    3  502    0 -0.60444092566E+02  0.50895291731E+01  0.52380633567E+02  0.80282080231E+02  0.47000000000E+01 0. -1.
         13    1    6    6    0    0  0.37409273946E+02  0.12522787630E+02  0.22620983221E+02  0.45475079649E+02  0.00000000000E+00 0. -1.
        -14    1    6    6    0    0  0.11831589893E+02 -0.60179054480E+02  0.28596368047E+02  0.67670210455E+02  0.00000000000E+00 0.  1.
         -5    1    5    5    0  503 -0.37450597705E+02 -0.51746721599E+02  0.20379604336E+03  0.21362394003E+03  0.47000000000E+01 0.  1.
<mgrwt>
<rscale>  2 0.20314155E+03</rscale>
<asrwt>0</asrwt>
<pdfrwt beam="1">  1       21 0.92573620E-01 0.20431911E+03</pdfrwt>
<pdfrwt beam="2">  1       21 0.10451756E-01 0.20431911E+03</pdfrwt>
<totfact> 0.73447238E+04</totfact>
</mgrwt>
</event>
<event>
12    1  0.1473662E-001  0.1933056E+03  0.7546771E-02  0.1157222E+00
         21   -1    0    0  504  503  0.00000000000E+00  0.00000000000E+00  0.57713301980E+02  0.57713301980E+02  0.00000000000E+00 0.  1.
         21   -1    0    0  502  504 -0.00000000000E+00 -0.00000000000E+00 -0.11036552044E+04  0.11036552044E+04  0.00000000000E+00 0.  1.
          6    2    1    2  502    0  0.55277366694E+02  0.40365400495E+02 -0.91231623852E+03  0.93257062294E+03  0.18078189865E+03 0.  0.
         24    2    3    3    0    0 -0.28118987868E+02  0.66807665061E+01 -0.64020004779E+03  0.64593685350E+03  0.80888858383E+02 0.  0.
         -6    2    1    2    0  503 -0.55277366694E+02 -0.40365400495E+02 -0.13362566387E+03  0.22879788341E+03  0.17264906771E+03 0.  0.
        -24    2    5    5    0    0 -0.46340515938E+02 -0.76846894668E+02 -0.14817024263E+03  0.18824666284E+03  0.73685118123E+02 0.  0.
          2    1    4    4  501    0 -0.55999707651E+02 -0.37541655188E+01 -0.41609307366E+03  0.41986129491E+03  0.00000000000E+00 0. -1.
         -1    1    4    4    0  501  0.27880719782E+02  0.10434932025E+02 -0.22410697413E+03  0.22607555859E+03  0.00000000000E+00 0.  1.
          5    1    3    3  502    0  0.83396354562E+02  0.33684633989E+02 -0.27211619073E+03  0.28663376944E+03  0.47000000000E+01 0. -1.
         13    1    6    6    0    0 -0.16777755770E+02 -0.45029209795E+02 -0.18492020242E+02  0.51488616568E+02  0.00000000000E+00 0. -1.
        -14    1    6    6    0    0 -0.29562760169E+02 -0.31817684873E+02 -0.12967822239E+03  0.13675804627E+03  0.00000000000E+00 0.  1.
         -5    1    5    5    0  503 -0.89368507557E+01  0.36481494173E+02  0.14544578757E+02  0.40551220570E+02  0.47000000000E+01 0.  1.
<mgrwt>
<rscale>  2 0.19138113E+03</rscale>
<asrwt>0</asrwt>
<pdfrwt beam="1">  1       21 0.88789703E-02 0.19330558E+03</pdfrwt>
<pdfrwt beam="2">  1       21 0.16979309E+00 0.19330558E+03</pdfrwt>
<totfact> 0.21407080E+04</totfact>
</mgrwt>
</event>
<event>
12    1  0.1473662E-001  0.1799905E+03  0.7546771E-02  0.1167990E+00
         21   -1    0    0  504  503  0.00000000000E+00  0.00000000000E+00  0.66300007309E+02  0.66300007309E+02  0.00000000000E+00 0. -1.
         21   -1    0    0  502  504 -0.00000000000E+00 -0.00000000000E+00 -0.57121936370E+03  0.57121936370E+03  0.00000000000E+00 0. -1.
          6    2    1    2  502    0 -0.44149470830E+02 -0.20252233760E+02 -0.37554793229E+03  0.41645265346E+03  0.17331253382E+03 0.  0.
         24    2    3    3    0    0 -0.16433619079E+02  0.46472340647E+02 -0.13218100207E+03  0.16254343742E+03  0.80739144513E+02 0.  0.
         -6    2    1    2    0  503  0.44149470830E+02  0.20252233760E+02 -0.12937142410E+03  0.22106671754E+03  0.17255201965E+03 0.  0.
        -24    2    5    5    0    0 -0.39425265809E+02 -0.13318379829E+02 -0.67078136534E+02  0.11145710859E+03  0.78685956993E+02 0.  0.
          2    1    4    4  501    0  0.64083074254E+01 -0.14856468209E+02 -0.13240052640E+01  0.16233731600E+02  0.00000000000E+00 0. -1.
         -1    1    4    4    0  501 -0.22841926504E+02  0.61328808856E+02 -0.13085699681E+03  0.14630970582E+03  0.00000000000E+00 0.  1.
          5    1    3    3  502    0 -0.27715851751E+02 -0.66724574406E+02 -0.24336693022E+03  0.25390921605E+03  0.47000000000E+01 0. -1.
         11    1    6    6    0    0 -0.95236454951E+01 -0.25010301914E+02  0.95179229364E+01  0.28404328585E+02  0.00000000000E+00 0. -1.
        -12    1    6    6    0    0 -0.29901620314E+02  0.11691922085E+02 -0.76596059471E+02  0.83052780001E+02  0.00000000000E+00 0.  1.
         -5    1    5    5    0  503  0.83574736639E+02  0.33570613589E+02 -0.62293287561E+02  0.10960960896E+03  0.47000000000E+01 0.  1.
<mgrwt>
<rscale>  2 0.17980713E+03</rscale>
<asrwt>0</asrwt>
<pdfrwt beam="1">  1       21 0.10200001E-01 0.17999045E+03</pdfrwt>
<pdfrwt beam="2">  1       21 0.87879901E-01 0.17999045E+03</pdfrwt>
<totfact> 0.87435470E+04</totfact>
</mgrwt>
</event>
<event>
12    1  0.1473662E-001  0.1895026E+03  0.7546771E-02  0.1158951E+00
         21   -1    0    0  504  503  0.00000000000E+00  0.00000000000E+00  0.73601342242E+02  0.73601342242E+02  0.00000000000E+00 0. -1.
         21   -1    0    0  502  504 -0.00000000000E+00 -0.00000000000E+00 -0.56687528179E+03  0.56687528179E+03  0.00000000000E+00 0. -1.
          6    2    1    2  502    0 -0.65238767270E+02  0.45860290387E+02 -0.12667775805E+03  0.22779756736E+03  0.17171259220E+03 0.  0.
         24    2    3    3    0    0  0.12708093084E+02  0.29505412617E+01 -0.84911452557E+00  0.73616189944E+02  0.72445987486E+02 0.  0.
         -6    2    1    2    0  503  0.65238767270E+02 -0.45860290387E+02 -0.36659618150E+03  0.41267905668E+03  0.17190689498E+03 0.  0.
        -24    2    5    5    0    0  0.56109933365E+02 -0.96012003066E+02 -0.25087423136E+03  0.28613977567E+03  0.81064553955E+02 0.  0.
          4    1    4    4  501    0 -0.26301421957E+02  0.14738243294E+02  0.94273339805E+01  0.31588846740E+02  0.00000000000E+00 0. -1.
         -3    1    4    4    0  501  0.39009515041E+02 -0.11787702032E+02 -0.10276448506E+02  0.42027343205E+02  0.00000000000E+00 0.  1.
          5    1    3    3  502    0 -0.77946860354E+02  0.42909749126E+02 -0.12582864353E+03  0.15418137741E+03  0.47000000000E+01 0. -1.
         13    1    6    6    0    0  0.19758422787E+02 -0.53676012015E+02 -0.44827027208E+02  0.72670295893E+02  0.00000000000E+00 0. -1.
        -14    1    6    6    0    0  0.36351510578E+02 -0.42335991050E+02 -0.20604720415E+03  0.21346947978E+03  0.00000000000E+00 0.  1.
         -5    1    5    5    0  503  0.91288339051E+01  0.50151712678E+02 -0.11572195014E+03  0.12653928101E+03  0.47000000000E+01 0.  1.
<mgrwt>
<rscale>  2 0.18945855E+03</rscale>
<asrwt>0</asrwt>
<pdfrwt beam="1">  1       21 0.11323283E-01 0.18950262E+03</pdfrwt>
<pdfrwt beam="2">  1       21 0.87211586E-01 0.18950262E+03</pdfrwt>
<totfact> 0.73634256E+04</totfact>
</mgrwt>
</event>
<event>
12    1  0.1473662E-001  0.2439075E+03  0.7546771E-02  0.1117456E+00
         21   -1    0    0  504  503  0.00000000000E+00  0.00000000000E+00  0.25580800438E+03  0.25580800438E+03  0.00000000000E+00 0. -1.
         21   -1    0    0  502  504 -0.00000000000E+00 -0.00000000000E+00 -0.54940587780E+03  0.54940587780E+03  0.00000000000E+00 0.  1.
          6    2    1    2  502    0 -0.14905108152E+03  0.81167438489E+02 -0.45340035537E+03  0.51484243686E+03  0.17517555359E+03 0.  0.
         24    2    3    3    0    0 -0.51783555723E+02 -0.46057672563E+01 -0.29721971592E+03  0.31178457187E+03  0.78532222600E+02 0.  0.
         -6    2    1    2    0  503  0.14905108152E+03 -0.81167438489E+02  0.15980248195E+03  0.29037144531E+03  0.17313106319E+03 0.  0.
        -24    2    5    5    0    0  0.13508069110E+03 -0.11300943162E+03  0.16578152166E+03  0.25477757995E+03  0.80063584612E+02 0.  0.
          4    1    4    4  501    0 -0.38873468575E+02 -0.38365649504E+02 -0.13588475318E+03  0.14645045499E+03  0.00000000000E+00 0. -1.
         -3    1    4    4    0  501 -0.12910087148E+02  0.33759882248E+02 -0.16133496275E+03  0.16533411688E+03  0.00000000000E+00 0.  1.
          5    1    3    3  502    0 -0.97267525799E+02  0.85773205746E+02 -0.15618063944E+03  0.20305786499E+03  0.47000000000E+01 0. -1.
         11    1    6    6    0    0  0.13150924304E+03 -0.77069978377E+02  0.10865101969E+03  0.18718842553E+03  0.00000000000E+00 0. -1.
        -12    1    6    6    0    0  0.35714480560E+01 -0.35939453240E+02  0.57130501972E+02  0.67589154426E+02  0.00000000000E+00 0.  1.
         -5    1    5    5    0  503  0.13970390427E+02  0.31841993128E+02 -0.59790397162E+01  0.35593865356E+02  0.47000000000E+01 0.  1.
<mgrwt>
<rscale>  2 0.24354059E+03</rscale>
<asrwt>0</asrwt>
<pdfrwt beam="1">  1       21 0.39355078E-01 0.24390747E+03</pdfrwt>
<pdfrwt beam="2">  1       21 0.84523979E-01 0.24390747E+03</pdfrwt>
<totfact> 0.72985698E+03</totfact>
</mgrwt>
</event>
<event>
12    1  0.1473662E-001  0.2419735E+03  0.7546771E-02  0.1118569E+00
         21   -1    0    0  504  503  0.00000000000E+00  0.00000000000E+00  0.25655500782E+03  0.25655500782E+03  0.00000000000E+00 0. -1.
         21   -1    0    0  502  504 -0.00000000000E+00 -0.00000000000E+00 -0.23104067651E+03  0.23104067651E+03  0.00000000000E+00 0. -1.
          6    2    1    2  502    0 -0.13009674168E+03  0.10825452111E+03 -0.16369366856E+02  0.24252655118E+03  0.17293631290E+03 0.  0.
         24    2    3    3    0    0 -0.11502452279E+03  0.89707440921E+02 -0.71770500697E+02  0.18200761533E+03  0.81839485999E+02 0.  0.
         -6    2    1    2    0  503  0.13009674168E+03 -0.10825452111E+03  0.41883698162E+02  0.24506913315E+03  0.17222204363E+03 0.  0.
        -24    2    5    5    0    0  0.13495507532E+03 -0.31269213414E+02  0.67840302964E+01  0.16019029190E+03  0.80151547026E+02 0.  0.
          2    1    4    4  501    0 -0.74898260441E+02  0.98940426633E+02 -0.41301158023E+02  0.13078510272E+03  0.00000000000E+00 0. -1.
         -1    1    4    4    0  501 -0.40126262349E+02 -0.92329857117E+01 -0.30469342674E+02  0.51222512611E+02  0.00000000000E+00 0.  1.
          5    1    3    3  502    0 -0.15072218890E+02  0.18547080189E+02  0.55401133841E+02  0.60518935852E+02  0.47000000000E+01 0. -1.
         11    1    6    6    0    0 -0.54205914200E+01 -0.17765112082E+02 -0.30571831295E+01  0.18823612494E+02  0.00000000000E+00 0. -1.
        -12    1    6    6    0    0  0.14037566674E+03 -0.13504101332E+02  0.98412134259E+01  0.14136667941E+03  0.00000000000E+00 0.  1.
         -5    1    5    5    0  503 -0.48583336384E+01 -0.76985307696E+02  0.35099667865E+02  0.84878841245E+02  0.47000000000E+01 0.  1.
<mgrwt>
<rscale>  2 0.24184590E+03</rscale>
<asrwt>0</asrwt>
<pdfrwt beam="1">  1       21 0.39470001E-01 0.24197349E+03</pdfrwt>
<pdfrwt beam="2">  1       21 0.35544720E-01 0.24197349E+03</pdfrwt>
<totfact> 0.46164254E+04</totfact>
</mgrwt>
</event>
<event>
12    1  0.1473662E-001  0.2176099E+03  0.7546771E-02  0.1135686E+00
         21   -1    0    0  504  503  0.00000000000E+00  0.00000000000E+00  0.15260953148E+04  0.15260953148E+04  0.00000000000E+00 0. -1.
         21   -1    0    0  502  504 -0.00000000000E+00 -0.00000000000E+00 -0.32783596599E+02  0.32783596599E+02  0.00000000000E+00 0.  1.
          6    2    1    2  502    0 -0.10283555960E+03  0.82102329443E+02  0.92721016657E+03  0.95239309014E+03  0.17325692002E+03 0.  0.
         24    2    3    3    0    0 -0.51663419106E+02  0.35508128237E+02  0.22756354839E+03  0.24931621818E+03  0.80271240481E+02 0.  0.
         -6    2    1    2    0  503  0.10283555960E+03 -0.82102329443E+02  0.56610155160E+03  0.60648582123E+03  0.17331514593E+03 0.  0.
        -24    2    5    5    0    0  0.98529394830E+02  0.59448498947E+01  0.37405888293E+03  0.39512516871E+03  0.80377037523E+02 0.  0.
          2    1    4    4  501    0 -0.22875036274E+02 -0.24114890304E+02  0.52352280926E+02  0.62012551448E+02  0.00000000000E+00 0. -1.
         -1    1    4    4    0  501 -0.28788382833E+02  0.59623018541E+02  0.17521126746E+03  0.18730366673E+03  0.00000000000E+00 0.  1.
          5    1    3    3  502    0 -0.51172140498E+02  0.46594201206E+02  0.69964661819E+03  0.70307687196E+03  0.47000000000E+01 0. -1.
         13    1    6    6    0    0  0.16785563271E+02  0.34456494150E+02  0.15276068303E+03  0.15749549646E+03  0.00000000000E+00 0. -1.
        -14    1    6    6    0    0  0.81743831559E+02 -0.28511644256E+02  0.22129819990E+03  0.23762967225E+03  0.00000000000E+00 0.  1.
         -5    1    5    5    0  503  0.43061647741E+01 -0.88047179338E+02  0.19204266867E+03  0.21136065252E+03  0.47000000000E+01 0.  1.
<mgrwt>
<rscale>  2 0.21759834E+03</rscale>
<asrwt>0</asrwt>
<pdfrwt beam="1">  1       21 0.23478384E+00 0.21760994E+03</pdfrwt>
<pdfrwt beam="2">  1       21 0.50436314E-02 0.21760994E+03</pdfrwt>
<totfact> 0.21265569E+04</totfact>
</mgrwt>
</event>
<event>
12    1  0.1473662E-001  0.2206486E+03  0.7546771E-02  0.1133682E+00
         21   -1    0    0  504  503  0.00000000000E+00  0.00000000000E+00  0.62093986467E+03  0.62093986467E+03  0.00000000000E+00 0. -1.
         21   -1    0    0  502  504 -0.00000000000E+00 -0.00000000000E+00 -0.10856840416E+03  0.10856840416E+03  0.00000000000E+00 0. -1.
          6    2    1    2  502    0 -0.11436183686E+03  0.71126245935E+02  0.61602742231E+02  0.22763356106E+03  0.17287153519E+03 0.  0.
         24    2    3    3    0    0 -0.75918797123E+02  0.41426799840E+02  0.10771923637E+03  0.16048636876E+03  0.81685966787E+02 0.  0.
         -6    2    1    2    0  503  0.11436183686E+03 -0.71126245935E+02  0.45076871828E+03  0.50187470777E+03  0.17478046897E+03 0.  0.
        -24    2    5    5    0    0  0.89562271808E+02 -0.11711285007E+03  0.30319926195E+03  0.34525855079E+03  0.74410041420E+02 0.  0.
          4    1    4    4  501    0 -0.77618875047E+02  0.56962095528E+02  0.10822298038E+03  0.14485021082E+03  0.00000000000E+00 0. -1.
         -3    1    4    4    0  501  0.17000779239E+01 -0.15535295688E+02 -0.50374401074E+00  0.15636157939E+02  0.00000000000E+00 0.  1.
          5    1    3    3  502    0 -0.38443039742E+02  0.29699446095E+02 -0.46116494141E+02  0.67147192308E+02  0.47000000000E+01 0. -1.
         11    1    6    6    0    0  0.40363021196E+02 -0.15417964309E+02  0.14190084791E+03  0.14833319838E+03  0.00000000000E+00 0. -1.
        -12    1    6    6    0    0  0.49199250612E+02 -0.10169488576E+03  0.16129841403E+03  0.19692535241E+03  0.00000000000E+00 0.  1.
         -5    1    5    5    0  503  0.24799565057E+02  0.45986604135E+02  0.14756945633E+03  0.15661615698E+03  0.47000000000E+01 0.  1.
<mgrwt>
<rscale>  2 0.22027033E+03</rscale>
<asrwt>0</asrwt>
<pdfrwt beam="1">  1       21 0.95529208E-01 0.22064856E+03</pdfrwt>
<pdfrwt beam="2">  1       21 0.16702832E-01 0.22064856E+03</pdfrwt>
<totfact> 0.29010482E+04</totfact>
</mgrwt>
</event>
<event>
12    1  0.1473662E-001  0.2113223E+03  0.7546771E-02  0.1140574E+00
         21   -1    0    0  504  503  0.00000000000E+00  0.00000000000E+00  0.50584531267E+03  0.50584531267E+03  0.00000000000E+00 0.  1.
         21   -1    0    0  502  504 -0.00000000000E+00 -0.00000000000E+00 -0.10587327613E+03  0.10587327613E+03  0.00000000000E+00 0. -1.
          6    2    1    2  502    0  0.50338425497E+02  0.10986294629E+03  0.32494251401E+03  0.38747196456E+03  0.17304063643E+03 0.  0.
         24    2    3    3    0    0  0.88469141413E+02  0.41340910186E+02  0.15230962369E+03  0.19780534717E+03  0.79955450505E+02 0.  0.
         -6    2    1    2    0  503 -0.50338425497E+02 -0.10986294629E+03  0.75029522536E+02  0.22424662424E+03  0.17335886242E+03 0.  0.
        -24    2    5    5    0    0 -0.44629637138E+01 -0.68271200070E+02 -0.24345483748E+02  0.10706337790E+03  0.78670130959E+02 0.  0.
          2    1    4    4  501    0  0.54159532456E+02  0.19591466844E+02  0.22576472847E+02  0.61860954205E+02  0.00000000000E+00 0. -1.
         -1    1    4    4    0  501  0.34309608956E+02  0.21749443341E+02  0.12973315084E+03  0.13594439297E+03  0.00000000000E+00 0.  1.
          5    1    3    3  502    0 -0.38130715915E+02  0.68522036108E+02  0.17263289032E+03  0.18966661738E+03  0.47000000000E+01 0. -1.
         13    1    6    6    0    0  0.71917694857E+01 -0.40505883205E+02  0.25808078839E+02  0.48564442300E+02  0.00000000000E+00 0. -1.
        -14    1    6    6    0    0 -0.11654733200E+02 -0.27765316865E+02 -0.50153562588E+02  0.58498935604E+02  0.00000000000E+00 0.  1.
         -5    1    5    5    0  503 -0.45875461784E+02 -0.41591746223E+02  0.99375006284E+02  0.11718324634E+03  0.47000000000E+01 0.  1.
<mgrwt>
<rscale>  2 0.21125704E+03</rscale>
<asrwt>0</asrwt>
<pdfrwt beam="1">  1       21 0.77822354E-01 0.21132231E+03</pdfrwt>
<pdfrwt beam="2">  1       21 0.16288197E-01 0.21132231E+03</pdfrwt>
<totfact> 0.48937943E+04</totfact>
</mgrwt>
</event>
<event>
12    1  0.1473662E-001  0.1896555E+03  0.7546771E-02  0.1159091E+00
         21   -1    0    0  504  503  0.00000000000E+00  0.00000000000E+00  0.38909091692E+02  0.38909091692E+02  0.00000000000E+00 0.  1.
         21   -1    0    0  502  504 -0.00000000000E+00 -0.00000000000E+00 -0.10278969373E+04  0.10278969373E+04  0.00000000000E+00 0.  1.
          6    2    1    2  502    0 -0.65276036715E+02  0.42488193590E+02 -0.66756816571E+03  0.69360393112E+03  0.17138538395E+03 0.  0.
         24    2    3    3    0    0 -0.50882507599E+02 -0.37179581182E+02 -0.46274968517E+03  0.47331587428E+03  0.76936953937E+02 0.  0.
         -6    2    1    2    0  503  0.65276036715E+02 -0.42488193590E+02 -0.32141967993E+03  0.37320209791E+03  0.17292480351E+03 0.  0.
        -24    2    5    5    0    0 -0.28010267357E+02 -0.43672965749E+02 -0.18720201237E+03  0.20967775569E+03  0.78919356178E+02 0.  0.
          4    1    4    4  501    0  0.60407539566E+01 -0.21817934720E+02 -0.36098076613E+02  0.42609671660E+02  0.00000000000E+00 0. -1.
         -3    1    4    4    0  501 -0.56923261555E+02 -0.15361646461E+02 -0.42665160856E+03  0.43070620262E+03  0.00000000000E+00 0.  1.
          5    1    3    3  502    0 -0.14393529116E+02  0.79667774771E+02 -0.20481848054E+03  0.22028805684E+03  0.47000000000E+01 0. -1.
         13    1    6    6    0    0 -0.25547886531E+02  0.82052259869E+01 -0.17088357308E+02  0.31812453461E+02  0.00000000000E+00 0. -1.
        -14    1    6    6    0    0 -0.24623808255E+01 -0.51878191736E+02 -0.17011365506E+03  0.17786530223E+03  0.00000000000E+00 0.  1.
         -5    1    5    5    0  503  0.93286304072E+02  0.11847721594E+01 -0.13421766756E+03  0.16352434222E+03  0.47000000000E+01 0.  1.
<mgrwt>
<rscale>  2 0.18930385E+03</rscale>
<asrwt>0</asrwt>
<pdfrwt beam="1">  1       21 0.59860150E-02 0.18965546E+03</pdfrwt>
<pdfrwt beam="2">  1       21 0.15813797E+00 0.18965546E+03</pdfrwt>
<totfact> 0.51510784E+04</totfact>
</mgrwt>
</event>
<event>
12    1  0.1473662E-001  0.1815349E+03  0.7546771E-02  0.1166669E+00
         21   -1    0    0  504  503  0.00000000000E+00  0.00000000000E+00  0.11330257826E+04  0.11330257826E+04  0.00000000000E+00 0. -1.
         21   -1    0    0  502  504 -0.00000000000E+00 -0.00000000000E+00 -0.33746882404E+02  0.33746882404E+02  0.00000000000E+00 0.  1.
          6    2    1    2  502    0  0.18548094205E+02 -0.48105220437E+02  0.32943536802E+03  0.37614170064E+03  0.17405968293E+03 0.  0.
         24    2    3    3    0    0  0.30000842247E+02 -0.10404276936E+02  0.32538102379E+03  0.33625367880E+03  0.78647481549E+02 0.  0.
         -6    2    1    2    0  503 -0.18548094205E+02  0.48105220437E+02  0.76984353215E+03  0.79063096434E+03  0.17256915643E+03 0.  0.
        -24    2    5    5    0    0  0.31078127380E+02 -0.13834960359E+02  0.24561359076E+03  0.26040604102E+03  0.79548815846E+02 0.  0.
          4    1    4    4  501    0  0.12747786311E+01 -0.10594365963E+02  0.29207792058E+03  0.29227277900E+03  0.00000000000E+00 0. -1.
         -3    1    4    4    0  501  0.28726063616E+02  0.19008902668E+00  0.33303103203E+02  0.43980899805E+02  0.00000000000E+00 0.  1.
          5    1    3    3  502    0 -0.11452748042E+02 -0.37700943501E+02  0.40543442348E+01  0.39888021833E+02  0.47000000000E+01 0. -1.
         11    1    6    6    0    0  0.10201068074E+02 -0.21494789205E+02  0.23420871965E+03  0.23541412896E+03  0.00000000000E+00 0. -1.
        -12    1    6    6    0    0  0.20877059306E+02  0.76598288461E+01  0.11404871106E+02  0.24991912055E+02  0.00000000000E+00 0.  1.
         -5    1    5    5    0  503 -0.49626221586E+02  0.61940180796E+02  0.52422994139E+03  0.53022492332E+03  0.47000000000E+01 0.  1.
<mgrwt>
<rscale>  2 0.18117667E+03</rscale>
<asrwt>0</asrwt>
<pdfrwt beam="1">  1       21 0.17431163E+00 0.18153489E+03</pdfrwt>
<pdfrwt beam="2">  1       21 0.51918289E-02 0.18153489E+03</pdfrwt>
<totfact> 0.50578979E+04</totfact>
</mgrwt>
</event>
<event>
12    1  0.1473662E-001  0.1813099E+03  0.7546771E-02  0.1167003E+00
         21   -1    0    0  504  503  0.00000000000E+00  0.00000000000E+00  0.17484939816E+04  0.17484939816E+04  0.00000000000E+00 0. -1.
         21   -1    0    0  502  504 -0.00000000000E+00 -0.00000000000E+00 -0.40134138458E+02  0.40134138458E+02  0.00000000000E+00 0. -1.
          6    2    1    2  502    0 -0.37624364156E+02 -0.31761386905E+02  0.19704417852E+03  0.26647559641E+03  0.17250639617E+03 0.  0.
         24    2    3    3    0    0 -0.20082939015E+02 -0.64099416311E+02  0.53186882958E+02  0.11791429180E+03  0.81011579917E+02 0.  0.
         -6    2    1    2    0  503  0.37624364156E+02  0.31761386905E+02  0.15113156646E+04  0.15221525237E+04  0.17449609920E+03 0.  0.
        -24    2    5    5    0    0 -0.11107191200E+02  0.66638139784E+02  0.61814443900E+03  0.62696087900E+03  0.80083612253E+02 0.  0.
          4    1    4    4  501    0 -0.45280451576E+02 -0.60778611163E+02  0.24647365041E+02  0.79698503582E+02  0.00000000000E+00 0. -1.
         -3    1    4    4    0  501  0.25197512560E+02 -0.33208051483E+01  0.28539517918E+02  0.38215788217E+02  0.00000000000E+00 0.  1.
          5    1    3    3  502    0 -0.17541425140E+02  0.32338029406E+02  0.14385729556E+03  0.14856130461E+03  0.47000000000E+01 0. -1.
         11    1    6    6    0    0 -0.28473998893E+02  0.83591974048E+01  0.38063188964E+03  0.38178695657E+03  0.00000000000E+00 0. -1.
        -12    1    6    6    0    0  0.17366807693E+02  0.58278942379E+02  0.23751254937E+03  0.24517392243E+03  0.00000000000E+00 0.  1.
         -5    1    5    5    0  503  0.48731555355E+02 -0.34876752879E+02  0.89317122564E+03  0.89519164467E+03  0.47000000000E+01 0.  1.
<mgrwt>
<rscale>  2 0.18082943E+03</rscale>
<asrwt>0</asrwt>
<pdfrwt beam="1">  1       21 0.26899902E+00 0.18130986E+03</pdfrwt>
<pdfrwt beam="2">  1       21 0.61744842E-02 0.18130986E+03</pdfrwt>
<totfact> 0.97850994E+03</totfact>
</mgrwt>
</event>
<event>
12    1  0.1473662E-001  0.1970393E+03  0.7546771E-02  0.1152467E+00
         21   -1    0    0  504  503  0.00000000000E+00  0.00000000000E+00  0.88282896143E+03  0.88282896143E+03  0.00000000000E+00 0.  1.
         21   -1    0    0  502  504 -0.00000000000E+00 -0.00000000000E+00 -0.28854120793E+03  0.28854120793E+03  0.00000000000E+00 0.  1.
          6    2    1    2  502    0 -0.61363516921E+02 -0.71381533479E+02 -0.24240744142E+03  0.31178694173E+03  0.17201431582E+03 0.  0.
         24    2    3    3    0    0 -0.10375618556E+03 -0.68807834855E+02 -0.21446274530E+03  0.26073051882E+03  0.80537383511E+02 0.  0.
         -6    2    1    2    0  503  0.61363516921E+02  0.71381533479E+02  0.83669519492E+03  0.85958322764E+03  0.17310017766E+03 0.  0.
        -24    2    5    5    0    0  0.61977448448E+02  0.65890518394E+02  0.31224986721E+03  0.33508773680E+03  0.81246829158E+02 0.  0.
          2    1    4    4  501    0 -0.62183701994E+02 -0.15030724601E+02 -0.16411236501E+03  0.17614086358E+03  0.00000000000E+00 0. -1.
         -1    1    4    4    0  501 -0.41572483567E+02 -0.53777110253E+02 -0.50350380287E+02  0.84589655231E+02  0.00000000000E+00 0.  1.
          5    1    3    3  502    0  0.42392668640E+02 -0.25736986240E+01 -0.27944696123E+02  0.51056422911E+02  0.47000000000E+01 0. -1.
         11    1    6    6    0    0  0.62215972147E+01  0.50217784026E+02  0.22317365291E+03  0.22883840031E+03  0.00000000000E+00 0. -1.
        -12    1    6    6    0    0  0.55755851233E+02  0.15672734368E+02  0.89076214303E+02  0.10624933649E+03  0.00000000000E+00 0.  1.
         -5    1    5    5    0  503 -0.61393152675E+00  0.54910150846E+01  0.52444532770E+03  0.52449549084E+03  0.47000000000E+01 0.  1.
<mgrwt>
<rscale>  2 0.19680053E+03</rscale>
<asrwt>0</asrwt>
<pdfrwt beam="1">  1       21 0.13581984E+00 0.19703928E+03</pdfrwt>
<pdfrwt beam="2">  1       21 0.44390955E-01 0.19703928E+03</pdfrwt>
<totfact> 0.18772078E+03</totfact>
</mgrwt>
</event>
<event>
12    1  0.1473662E-001  0.1945776E+03  0.7546771E-02  0.1154559E+00
         21   -1    0    0  504  503  0.00000000000E+00  0.00000000000E+00  0.60393836829E+03  0.60393836829E+03  0.00000000000E+00 0. -1.
         21   -1    0    0  502  504 -0.00000000000E+00 -0.00000000000E+00 -0.63210328574E+02  0.63210328574E+02  0.00000000000E+00 0. -1.
          6    2    1    2  502    0  0.94044526752E+02  0.44193543955E+01  0.23325786757E+03  0.30328285435E+03  0.16943244451E+03 0.  0.
         24    2    3    3    0    0  0.10544320815E+03 -0.44271093523E+02  0.19477200747E+03  0.24000615181E+03  0.81170303363E+02 0.  0.
         -6    2    1    2    0  503 -0.94044526752E+02 -0.44193543955E+01  0.30747017215E+03  0.36386584252E+03  0.17028370704E+03 0.  0.
        -24    2    5    5    0    0 -0.96438249684E+02 -0.58690923747E+02  0.20181250564E+03  0.24496771116E+03  0.80845108344E+02 0.  0.
          2    1    4    4  501    0  0.10491114197E+03 -0.31771818580E+02  0.19866834061E+03  0.22690285526E+03  0.00000000000E+00 0. -1.
         -1    1    4    4    0  501  0.53206617852E+00 -0.12499274943E+02 -0.38963331416E+01  0.13103296550E+02  0.00000000000E+00 0.  1.
          5    1    3    3  502    0 -0.11398681397E+02  0.48690447919E+02  0.38485860098E+02  0.63276702534E+02  0.47000000000E+01 0. -1.
         11    1    6    6    0    0 -0.31521190194E+02 -0.40773111752E+02  0.15395075474E+03  0.16234798108E+03  0.00000000000E+00 0. -1.
        -12    1    6    6    0    0 -0.64917059490E+02 -0.17917811995E+02  0.47861750899E+02  0.82619730081E+02  0.00000000000E+00 0.  1.
         -5    1    5    5    0  503  0.23937229317E+01  0.54271569351E+02  0.10565766651E+03  0.11889813136E+03  0.47000000000E+01 0.  1.
<mgrwt>
<rscale>  2 0.19439120E+03</rscale>
<asrwt>0</asrwt>
<pdfrwt beam="1">  1       21 0.92913591E-01 0.19457761E+03</pdfrwt>
<pdfrwt beam="2">  1       21 0.97246664E-02 0.19457761E+03</pdfrwt>
<totfact> 0.83101104E+04</totfact>
</mgrwt>
</event>
<event>
12    1  0.1473662E-001  0.1823710E+03  0.7546771E-02  0.1166211E+00
         21   -1    0    0  504  503  0.00000000000E+00  0.00000000000E+00  0.11723085824E+04  0.11723085824E+04  0.00000000000E+00 0.  1.
         21   -1    0    0  502  504 -0.00000000000E+00 -0.00000000000E+00 -0.34827366850E+02  0.34827366850E+02  0.00000000000E+00 0.  1.
          6    2    1    2  502    0  0.36714570432E+02  0.34909296108E+02  0.29654000682E+03  0.34664696577E+03  0.17222521475E+03 0.  0.
         24    2    3    3    0    0  0.51869902709E+02  0.51939475564E+02  0.98371910433E+02  0.14711652816E+03  0.81105142660E+02 0.  0.
         -6    2    1    2    0  503 -0.36714570432E+02 -0.34909296108E+02  0.84094120869E+03  0.86048898344E+03  0.17519290942E+03 0.  0.
        -24    2    5    5    0    0  0.36660630642E+02 -0.48160198187E+02  0.35318651631E+03  0.36704573800E+03  0.79488690688E+02 0.  0.
          4    1    4    4  501    0  0.24069598782E+02  0.64335290441E+02  0.35631048814E+02  0.77381824876E+02  0.00000000000E+00 0. -1.
         -3    1    4    4    0  501  0.27800303927E+02 -0.12395814877E+02  0.62740861620E+02  0.69734703281E+02  0.00000000000E+00 0.  1.
          5    1    3    3  502    0 -0.15155332276E+02 -0.17030179455E+02  0.19816809639E+03  0.19953043761E+03  0.47000000000E+01 0. -1.
         11    1    6    6    0    0  0.15758477525E+01 -0.56357394898E+02  0.14156063312E+03  0.15237470953E+03  0.00000000000E+00 0. -1.
        -12    1    6    6    0    0  0.35084782889E+02  0.81971967111E+01  0.21162588319E+03  0.21467102846E+03  0.00000000000E+00 0.  1.
         -5    1    5    5    0  503 -0.73375201074E+02  0.13250902078E+02  0.48775469238E+03  0.49344324544E+03  0.47000000000E+01 0.  1.
<mgrwt>
<rscale>  2 0.18165452E+03</rscale>
<asrwt>0</asrwt>
<pdfrwt beam="1">  1       21 0.18035514E+00 0.18237098E+03</pdfrwt>
<pdfrwt beam="2">  1       21 0.53580573E-02 0.18237098E+03</pdfrwt>
<totfact> 0.43561597E+04</totfact>
</mgrwt>
</event>
<event>
12    1  0.1473662E-001  0.1933693E+03  0.7546771E-02  0.1156615E+00
         21   -1    0    0  504  503  0.00000000000E+00  0.00000000000E+00  0.81514968742E+02  0.81514968742E+02  0.00000000000E+00 0. -1.
         21   -1    0    0  502  504 -0.00000000000E+00 -0.00000000000E+00 -0.48080280065E+03  0.48080280065E+03  0.00000000000E+00 0. -1.
          6    2    1    2  502    0 -0.56109068354E+02 -0.63753716537E+02 -0.27724200748E+03  0.33801600256E+03  0.17372082014E+03 0.  0.
         24    2    3    3    0    0 -0.67335755888E+02 -0.69662353897E+02 -0.10010311990E+03  0.16036120808E+03  0.79423767673E+02 0.  0.
         -6    2    1    2    0  503  0.56109068354E+02  0.63753716537E+02 -0.12204582443E+03  0.22430176683E+03  0.16793848701E+03 0.  0.
        -24    2    5    5    0    0  0.48701640895E+02  0.73968030211E+02 -0.20155898007E+02  0.12152604357E+03  0.80741561311E+02 0.  0.
          2    1    4    4  501    0 -0.62911802951E+02 -0.11349255060E+02 -0.69231624727E+02  0.94232257764E+02  0.00000000000E+00 0. -1.
         -1    1    4    4    0  501 -0.44239529375E+01 -0.58313098837E+02 -0.30871495170E+02  0.66128950314E+02  0.00000000000E+00 0.  1.
          5    1    3    3  502    0  0.11226687534E+02  0.59086373600E+01 -0.17713888758E+03  0.17765479448E+03  0.47000000000E+01 0. -1.
         13    1    6    6    0    0 -0.25535215349E+01  0.63141655031E+02 -0.26952321574E+02  0.68700922196E+02  0.00000000000E+00 0. -1.
        -14    1    6    6    0    0  0.51255162430E+02  0.10826375179E+02  0.67964235668E+01  0.52825121377E+02  0.00000000000E+00 0.  1.
         -5    1    5    5    0  503  0.74074274592E+01 -0.10214313674E+02 -0.10188992642E+03  0.10277572326E+03  0.47000000000E+01 0.  1.
<mgrwt>
<rscale>  2 0.19206169E+03</rscale>
<asrwt>0</asrwt>
<pdfrwt beam="1">  1       21 0.12540764E-01 0.19336930E+03</pdfrwt>
<pdfrwt beam="2">  1       21 0.73969662E-01 0.19336930E+03</pdfrwt>
<totfact> 0.88893977E+04</totfact>
</mgrwt>
</event>
<event>
12    1  0.1473662E-001  0.2056629E+03  0.7546771E-02  0.1145104E+00
         21   -1    0    0  504  503  0.00000000000E+00  0.00000000000E+00  0.10041315818E+03  0.10041315818E+03  0.00000000000E+00 0. -1.
         21   -1    0    0  502  504 -0.00000000000E+00 -0.00000000000E+00 -0.91370128740E+03  0.91370128740E+03  0.00000000000E+00 0.  1.
          6    2    1    2  502    0 -0.93479821687E+02  0.59689908772E+02 -0.77924542630E+03  0.80592845549E+03  0.17319318312E+03 0.  0.
         24    2    3    3    0    0 -0.37994752600E+01  0.13654804830E+02 -0.88845637524E+02  0.10819229212E+03  0.60092720518E+02 0.  0.
         -6    2    1    2    0  503  0.93479821687E+02 -0.59689908772E+02 -0.34042702917E+02  0.20818599009E+03  0.17286161683E+03 0.  0.
        -24    2    5    5    0    0  0.38903056710E+02  0.31693825179E+02 -0.27709287775E+02  0.10145355709E+03  0.83708262682E+02 0.  0.
          2    1    4    4  501    0 -0.18873897717E+02  0.31509710144E+02 -0.65888479122E+02  0.75434591067E+02  0.00000000000E+00 0. -1.
         -1    1    4    4    0  501  0.15074422457E+02 -0.17854905315E+02 -0.22957158402E+02  0.32757701050E+02  0.00000000000E+00 0.  1.
          5    1    3    3  502    0 -0.89680346427E+02  0.46035103942E+02 -0.69039978878E+03  0.69773616337E+03  0.47000000000E+01 0. -1.
         11    1    6    6    0    0  0.24797282522E+02  0.24249428818E+01  0.27677614777E+02  0.37240246081E+02  0.00000000000E+00 0. -1.
        -12    1    6    6    0    0  0.14105774187E+02  0.29268882297E+02 -0.55386902552E+02  0.64213311008E+02  0.00000000000E+00 0.  1.
         -5    1    5    5    0  503  0.54576764977E+02 -0.91383733951E+02 -0.63334151419E+01  0.10673243300E+03  0.47000000000E+01 0.  1.
<mgrwt>
<rscale>  2 0.20559311E+03</rscale>
<asrwt>0</asrwt>
<pdfrwt beam="1">  1       21 0.15448178E-01 0.20566293E+03</pdfrwt>
<pdfrwt beam="2">  1       21 0.14056943E+00 0.20566293E+03</pdfrwt>
<totfact> 0.13043811E+04</totfact>
</mgrwt>
</event>
<event>
12    1  0.1473662E-001  0.1891129E+03  0.7546771E-02  0.1159378E+00
         21   -1    0    0  504  503  0.00000000000E+00  0.00000000000E+00  0.41461404222E+03  0.41461404222E+03  0.00000000000E+00 0.  1.
         21   -1    0    0  502  504 -0.00000000000E+00 -0.00000000000E+00 -0.34414358355E+03  0.34414358355E+03  0.00000000000E+00 0.  1.
          6    2    1    2  502    0  0.61637045174E+02  0.47909476089E+02 -0.29333260363E+03  0.34873767039E+03  0.17169596140E+03 0.  0.
         24    2    3    3    0    0  0.82578658180E+02  0.16213787455E+02 -0.28782166337E+03  0.31006431657E+03  0.78844459626E+02 0.  0.
         -6    2    1    2    0  503 -0.61637045174E+02 -0.47909476089E+02  0.36380306230E+03  0.41001995539E+03  0.17224764858E+03 0.  0.
        -24    2    5    5    0    0  0.32082140151E+02 -0.34691302260E+02  0.16950113971E+03  0.19384101807E+03  0.81307771796E+02 0.  0.
          4    1    4    4  501    0  0.21605283392E+02 -0.24626025157E+02 -0.15395093127E+03  0.15739796258E+03  0.00000000000E+00 0. -1.
         -3    1    4    4    0  501  0.60973374788E+02  0.40839812612E+02 -0.13387073210E+03  0.15266635399E+03  0.00000000000E+00 0.  1.
          5    1    3    3  502    0 -0.20941613005E+02  0.31695688634E+02 -0.55109402599E+01  0.38673353822E+02  0.47000000000E+01 0. -1.
         13    1    6    6    0    0  0.98150652315E+01 -0.56616746450E+02  0.76142740793E+02  0.95391343735E+02  0.00000000000E+00 0. -1.
        -14    1    6    6    0    0  0.22267074919E+02  0.21925444190E+02  0.93358398915E+02  0.98449674333E+02  0.00000000000E+00 0.  1.
         -5    1    5    5    0  503 -0.93719185325E+02 -0.13218173829E+02  0.19430192259E+03  0.21617893732E+03  0.47000000000E+01 0.  1.
<mgrwt>
<rscale>  2 0.18898721E+03</rscale>
<asrwt>0</asrwt>
<pdfrwt beam="1">  1       21 0.63786776E-01 0.18911292E+03</pdfrwt>
<pdfrwt beam="2">  1       21 0.52945167E-01 0.18911292E+03</pdfrwt>
<totfact> 0.76944027E+03</totfact>
</mgrwt>
</event>
<event>
12    1  0.1473662E-001  0.1796311E+03  0.7546771E-02  0.1168520E+00
         21   -1    0    0  504  503  0.00000000000E+00  0.00000000000E+00  0.56376280240E+03  0.56376280240E+03  0.00000000000E+00 0. -1.
         21   -1    0    0  502  504 -0.00000000000E+00 -0.00000000000E+00 -0.92607876980E+02  0.92607876980E+02  0.00000000000E+00 0. -1.
          6    2    1    2  502    0  0.18743313572E+02 -0.37939026586E+02  0.30813564321E+02  0.18079959446E+03  0.17305587556E+03 0.  0.
         24    2    3    3    0    0 -0.17751039477E+02 -0.66803970529E+02 -0.24055820099E+02  0.10870408738E+03  0.80374288504E+02 0.  0.
         -6    2    1    2    0  503 -0.18743313572E+02  0.37939026586E+02  0.44034136110E+03  0.47557108492E+03  0.17457565975E+03 0.  0.
        -24    2    5    5    0    0  0.53049531515E+02  0.27084840442E+02  0.20576905872E+03  0.22997328158E+03  0.83659807192E+02 0.  0.
          2    1    4    4  501    0 -0.19334746066E+02 -0.41790810103E+02 -0.53137293449E+02  0.70312702761E+02  0.00000000000E+00 0. -1.
         -1    1    4    4    0  501  0.15837065892E+01 -0.25013160426E+02  0.29081473350E+02  0.38391384623E+02  0.00000000000E+00 0.  1.
          5    1    3    3  502    0  0.36494353050E+02  0.28864943943E+02  0.54869384420E+02  0.72095507072E+02  0.47000000000E+01 0. -1.
         13    1    6    6    0    0  0.44751981842E+02 -0.94982848350E+01  0.17667130441E+03  0.18249851258E+03  0.00000000000E+00 0. -1.
        -14    1    6    6    0    0  0.82975496732E+01  0.36583125277E+02  0.29097754314E+02  0.47474769001E+02  0.00000000000E+00 0.  1.
         -5    1    5    5    0  503 -0.71792845088E+02  0.10854186144E+02  0.23457230238E+03  0.24559780334E+03  0.47000000000E+01 0.  1.
<mgrwt>
<rscale>  2 0.17926082E+03</rscale>
<asrwt>0</asrwt>
<pdfrwt beam="1">  1       21 0.86732736E-01 0.17963113E+03</pdfrwt>
<pdfrwt beam="2">  1       21 0.14247366E-01 0.17963113E+03</pdfrwt>
<totfact> 0.49596965E+04</totfact>
</mgrwt>
</event>
<event>
12    1  0.1473662E-001  0.1908300E+03  0.7546771E-02  0.1157752E+00
         21   -1    0    0  504  503  0.00000000000E+00  0.00000000000E+00  0.13001932115E+04  0.13001932115E+04  0.00000000000E+00 0.  1.
         21   -1    0    0  502  504 -0.00000000000E+00 -0.00000000000E+00 -0.28221698868E+02  0.28221698868E+02  0.00000000000E+00 0.  1.
          6    2    1    2  502    0  0.27783745734E+02  0.73482370780E+02  0.57532805224E+03  0.60615052967E+03  0.17390946375E+03 0.  0.
         24    2    3    3    0    0  0.62798905452E+02  0.10242189491E+03  0.45748530240E+03  0.47976793135E+03  0.80315122862E+02 0.  0.
         -6    2    1    2    0  503 -0.27783745734E+02 -0.73482370780E+02  0.69664346038E+03  0.72226438069E+03  0.17373004742E+03 0.  0.
        -24    2    5    5    0    0  0.52563874225E+02 -0.30487043650E+02  0.26629020463E+03  0.28234353221E+03  0.71519063170E+02 0.  0.
          2    1    4    4  501    0  0.37374646852E+02  0.17947660046E+01  0.80763032663E+02  0.89009846968E+02  0.00000000000E+00 0. -1.
         -1    1    4    4    0  501  0.25424258600E+02  0.10062712890E+03  0.37672226974E+03  0.39075808438E+03  0.00000000000E+00 0.  1.
          5    1    3    3  502    0 -0.35015159718E+02 -0.28939524129E+02  0.11784274984E+03  0.12638259832E+03  0.47000000000E+01 0. -1.
         13    1    6    6    0    0  0.23651866241E+02  0.13750558301E+02  0.31695547487E+02  0.41869993561E+02  0.00000000000E+00 0. -1.
        -14    1    6    6    0    0  0.28912007984E+02 -0.44237601951E+02  0.23459465714E+03  0.24047353865E+03  0.00000000000E+00 0.  1.
         -5    1    5    5    0  503 -0.80347619958E+02 -0.42995327130E+02  0.43035325575E+03  0.43992084848E+03  0.47000000000E+01 0.  1.
<mgrwt>
<rscale>  2 0.19078913E+03</rscale>
<asrwt>0</asrwt>
<pdfrwt beam="1">  1       21 0.20002968E+00 0.19083002E+03</pdfrwt>
<pdfrwt beam="2">  1       21 0.43418008E-02 0.19083002E+03</pdfrwt>
<totfact> 0.45879068E+04</totfact>
</mgrwt>
</event>
<event>
12    1  0.1473662E-001  0.2274147E+03  0.7546771E-02  0.1128617E+00
         21   -1    0    0  504  503  0.00000000000E+00  0.00000000000E+00  0.13945945626E+04  0.13945945626E+04  0.00000000000E+00 0. -1.
         21   -1    0    0  502  504 -0.00000000000E+00 -0.00000000000E+00 -0.14848238030E+03  0.14848238030E+03  0.00000000000E+00 0.  1.
          6    2    1    2  502    0 -0.13356474699E+03 -0.61533927832E+02 -0.45343587331E+02  0.23189108887E+03  0.17346893172E+03 0.  0.
         24    2    3    3    0    0 -0.11203515174E+03 -0.25741843075E+02  0.31073743229E+02  0.14467701195E+03  0.82166553777E+02 0.  0.
         -6    2    1    2    0  503  0.13356474699E+03  0.61533927832E+02  0.12914557696E+04  0.13111858540E+04  0.17240757811E+03 0.  0.
        -24    2    5    5    0    0  0.10176219035E+03 -0.86018873623E+01  0.53841780330E+03  0.55420586492E+03  0.82588582444E+02 0.  0.
          4    1    4    4  501    0  0.19013354669E+01  0.15810595211E+02 -0.72382583329E+01  0.17492352077E+02  0.00000000000E+00 0. -1.
         -3    1    4    4    0  501 -0.11393648721E+03 -0.41552438286E+02  0.38312001561E+02  0.12718465988E+03  0.00000000000E+00 0.  1.
          5    1    3    3  502    0 -0.21529595254E+02 -0.35792084757E+02 -0.76417330559E+02  0.87214076919E+02  0.47000000000E+01 0. -1.
         13    1    6    6    0    0 -0.67616106323E+01 -0.16342978574E+02  0.14311952519E+03  0.14420822035E+03  0.00000000000E+00 0. -1.
        -14    1    6    6    0    0  0.10852380098E+03  0.77410912116E+01  0.39529827811E+03  0.40999764457E+03  0.00000000000E+00 0.  1.
         -5    1    5    5    0  503  0.31802556640E+02  0.70135815194E+02  0.75303796628E+03  0.75697998906E+03  0.47000000000E+01 0.  1.
<mgrwt>
<rscale>  2 0.22721227E+03</rscale>
<asrwt>0</asrwt>
<pdfrwt beam="1">  1       21 0.21455300E+00 0.22741468E+03</pdfrwt>
<pdfrwt beam="2">  1       21 0.22843444E-01 0.22741468E+03</pdfrwt>
<totfact> 0.18867918E+03</totfact>
</mgrwt>
</event>
<event>
12    1  0.1473662E-001  0.1837137E+03  0.7546771E-02  0.1164851E+00
         21   -1    0    0  504  503  0.00000000000E+00  0.00000000000E+00  0.27394196543E+04  0.27394196543E+04  0.00000000000E+00 0.  1.
         21   -1    0    0  502  504 -0.00000000000E+00 -0.00000000000E+00 -0.18009047676E+02  0.18009047676E+02  0.00000000000E+00 0.  1.
          6    2    1    2  502    0 -0.99789359113E+01  0.59641023561E+02  0.56823145202E+03  0.59642633979E+03  0.17082378311E+03 0.  0.
         24    2    3    3    0    0 -0.18905717325E+02  0.61701054040E+02  0.16803904604E+03  0.19610149301E+03  0.77808922023E+02 0.  0.
         -6    2    1    2    0  503  0.99789359113E+01 -0.59641023561E+02  0.21531791546E+04  0.21610023622E+04  0.17347653070E+03 0.  0.
        -24    2    5    5    0    0 -0.24035387021E+01 -0.80381203716E+02  0.82885812348E+03  0.83645271637E+03  0.78615793318E+02 0.  0.
          4    1    4    4  501    0  0.88206719431E+01  0.65548569841E+02  0.14664466549E+03  0.16086975222E+03  0.00000000000E+00 0. -1.
         -3    1    4    4    0  501 -0.27726389269E+02 -0.38475158014E+01  0.21394380555E+02  0.35231740789E+02  0.00000000000E+00 0.  1.
          5    1    3    3  502    0  0.89267814142E+01 -0.20600304792E+01  0.40019240597E+03  0.40032484678E+03  0.47000000000E+01 0. -1.
         11    1    6    6    0    0  0.29783092542E+02 -0.24944007682E+02  0.16522638281E+03  0.16973212335E+03  0.00000000000E+00 0. -1.
        -12    1    6    6    0    0 -0.32186631244E+02 -0.55437196034E+02  0.66363174067E+03  0.66672059302E+03  0.00000000000E+00 0.  1.
         -5    1    5    5    0  503  0.12382474613E+02  0.20740180156E+02  0.13243210311E+04  0.13245496458E+04  0.47000000000E+01 0.  1.
<mgrwt>
<rscale>  2 0.18308481E+03</rscale>
<asrwt>0</asrwt>
<pdfrwt beam="1">  1       21 0.42144885E+00 0.18371374E+03</pdfrwt>
<pdfrwt beam="2">  1       21 0.27706249E-02 0.18371374E+03</pdfrwt>
<totfact> 0.46651229E+03</totfact>
</mgrwt>
</event>
<event>
12    1  0.1473662E-001  0.2199066E+03  0.7546771E-02  0.1134151E+00
         21   -1    0    0  504  503  0.00000000000E+00  0.00000000000E+00  0.92785497267E+02  0.92785497267E+02  0.00000000000E+00 0. -1.
         21   -1    0    0  502  504 -0.00000000000E+00 -0.00000000000E+00 -0.91807598599E+03  0.91807598599E+03  0.00000000000E+00 0.  1.
          6    2    1    2  502    0 -0.13292160546E+03 -0.10744035425E+02 -0.74544880720E+03  0.77690933858E+03  0.17352408686E+03 0.  0.
         24    2    3    3    0    0 -0.10792130118E+03  0.35325425338E+02 -0.67315237251E+03  0.68748744585E+03  0.81301775326E+02 0.  0.
         -6    2    1    2    0  503  0.13292160546E+03  0.10744035425E+02 -0.79841681520E+02  0.23395214467E+03  0.17485801209E+03 0.  0.
        -24    2    5    5    0    0  0.13522616437E+03  0.56813536822E+02 -0.38317152179E+02  0.17170998462E+03  0.80636351427E+02 0.  0.
          2    1    4    4  501    0 -0.35299277716E+02 -0.39927574026E+01 -0.41339626983E+03  0.41491982000E+03  0.00000000000E+00 0. -1.
         -1    1    4    4    0  501 -0.72622023462E+02  0.39318182741E+02 -0.25975610267E+03  0.27256762585E+03  0.00000000000E+00 0.  1.
          5    1    3    3  502    0 -0.25000304287E+02 -0.46069460763E+02 -0.72296434698E+02  0.89421892730E+02  0.47000000000E+01 0. -1.
         11    1    6    6    0    0  0.15246255820E+02  0.19339350389E+02  0.21329997870E+02  0.32579557995E+02  0.00000000000E+00 0. -1.
        -12    1    6    6    0    0  0.11997990855E+03  0.37474186433E+02 -0.59647150049E+02  0.13913042663E+03  0.00000000000E+00 0.  1.
         -5    1    5    5    0  503 -0.23045589069E+01 -0.46069501398E+02 -0.41524529341E+02  0.62242160051E+02  0.47000000000E+01 0.  1.
<mgrwt>
<rscale>  2 0.21964133E+03</rscale>
<asrwt>0</asrwt>
<pdfrwt beam="1">  1       21 0.14274692E-01 0.21990660E+03</pdfrwt>
<pdfrwt beam="2">  1       21 0.14124246E+00 0.21990660E+03</pdfrwt>
<totfact> 0.14738725E+04</totfact>
</mgrwt>
</event>
<event>
12    1  0.1473662E-001  0.2429951E+03  0.7546771E-02  0.1118228E+00
         21   -1    0    0  504  503  0.00000000000E+00  0.00000000000E+00  0.20155082671E+03  0.20155082671E+03  0.00000000000E+00 0. -1.
         21   -1    0    0  502  504 -0.00000000000E+00 -0.00000000000E+00 -0.28998379587E+03  0.28998379587E+03  0.00000000000E+00 0. -1.
          6    2    1    2  502    0 -0.27821820592E+02 -0.16814511680E+03 -0.47483174917E+02  0.24759090636E+03  0.17320441971E+03 0.  0.
         24    2    3    3    0    0  0.46722203691E+02 -0.56893637179E+02 -0.13691796522E+02  0.10939665710E+03  0.79751570671E+02 0.  0.
         -6    2    1    2    0  503  0.27821820592E+02  0.16814511680E+03 -0.40949794239E+02  0.24394371621E+03  0.16966088832E+03 0.  0.
        -24    2    5    5    0    0 -0.32852427277E+02  0.15168757013E+03 -0.45911659716E+02  0.18070665978E+03  0.80365511769E+02 0.  0.
          2    1    4    4  501    0 -0.21714395001E+01 -0.27767127745E+01  0.26084836343E+02  0.26321929458E+02  0.00000000000E+00 0. -1.
         -1    1    4    4    0  501  0.48893643191E+02 -0.54116924405E+02 -0.39776632865E+02  0.83074727647E+02  0.00000000000E+00 0.  1.
          5    1    3    3  502    0 -0.74544024283E+02 -0.11125147962E+03 -0.33791378394E+02  0.13819424926E+03  0.47000000000E+01 0. -1.
         13    1    6    6    0    0  0.10500856534E+02  0.22522812921E+01 -0.20369327613E+02  0.23027163663E+02  0.00000000000E+00 0. -1.
        -14    1    6    6    0    0 -0.43353283811E+02  0.14943528884E+03 -0.25542332104E+02  0.15767949612E+03  0.00000000000E+00 0.  1.
         -5    1    5    5    0  503  0.60674247869E+02  0.16457546669E+02  0.49618654773E+01  0.63237056429E+02  0.47000000000E+01 0.  1.
<mgrwt>
<rscale>  2 0.24236438E+03</rscale>
<asrwt>0</asrwt>
<pdfrwt beam="1">  1       21 0.31007820E-01 0.24299507E+03</pdfrwt>
<pdfrwt beam="2">  1       21 0.44612891E-01 0.24299507E+03</pdfrwt>
<totfact> 0.47090823E+04</totfact>
</mgrwt>
</event>
<event>
12    1  0.1473662E-001  0.1790597E+03  0.7546771E-02  0.1168912E+00
         21   -1    0    0  504  503  0.00000000000E+00  0.00000000000E+00  0.12046385090E+03  0.12046385090E+03  0.00000000000E+00 0.  1.
         21   -1    0    0  502  504 -0.00000000000E+00 -0.00000000000E+00 -0.42630320113E+03  0.42630320113E+03  0.00000000000E+00 0.  1.
          6    2    1    2  502    0 -0.13532283881E+02  0.42904659456E+02 -0.32131644815E+03  0.36784049897E+03  0.17331601287E+03 0.  0.
         24    2    3    3    0    0 -0.26508934878E+02  0.90441812797E+02 -0.27185658599E+03  0.29786520058E+03  0.77040439009E+02 0.  0.
         -6    2    1    2    0  503  0.13532283881E+02 -0.42904659456E+02  0.15477097923E+02  0.17892655306E+03  0.17248547278E+03 0.  0.
        -24    2    5    5    0    0 -0.35295571307E+02 -0.70748315454E+02  0.34443305672E+02  0.11941827080E+03  0.82603151276E+02 0.  0.
          4    1    4    4  501    0 -0.13781753364E+02  0.55973556041E+02 -0.61377706442E+02  0.84203316738E+02  0.00000000000E+00 0. -1.
         -3    1    4    4    0  501 -0.12727181514E+02  0.34468256757E+02 -0.21047887954E+03  0.21366188384E+03  0.00000000000E+00 0.  1.
          5    1    3    3  502    0  0.12976650997E+02 -0.47537153342E+02 -0.49459862167E+02  0.69975298388E+02  0.47000000000E+01 0. -1.
         11    1    6    6    0    0 -0.69877666588E+01 -0.25184366195E+02 -0.27187718546E+02  0.37712772681E+02  0.00000000000E+00 0. -1.
        -12    1    6    6    0    0 -0.28307804648E+02 -0.45563949259E+02  0.61631024218E+02  0.81705498115E+02  0.00000000000E+00 0.  1.
         -5    1    5    5    0  503  0.48827855188E+02  0.27843655999E+02 -0.18966207749E+02  0.59508282264E+02  0.47000000000E+01 0.  1.
<mgrwt>
<rscale>  2 0.17885841E+03</rscale>
<asrwt>0</asrwt>
<pdfrwt beam="1">  1       21 0.18532900E-01 0.17905969E+03</pdfrwt>
<pdfrwt beam="2">  1       21 0.65585109E-01 0.17905969E+03</pdfrwt>
<totfact> 0.57209025E+04</totfact>
</mgrwt>
</event>
<event>
12    1  0.1473662E-001  0.2031246E+03  0.7546771E-02  0.1149640E+00
         21   -1    0    0  504  503  0.00000000000E+00  0.00000000000E+00  0.46286502807E+03  0.46286502807E+03  0.00000000000E+00 0. -1.
         21   -1    0    0  502  504 -0.00000000000E+00 -0.00000000000E+00 -0.12995303220E+03  0.12995303220E+03  0.00000000000E+00 0. -1.
          6    2    1    2  502    0  0.72484114279E+02 -0.35036123358E+02 -0.12866362306E+02  0.19179152812E+03  0.17360002942E+03 0.  0.
         24    2    3    3    0    0  0.61080165616E+02 -0.32088793321E+01  0.55348522803E+02  0.11551319530E+03  0.80862573376E+02 0.  0.
         -6    2    1    2    0  503 -0.72484114279E+02  0.35036123358E+02  0.34577835818E+03  0.40102653215E+03  0.18648895339E+03 0.  0.
        -24    2    5    5    0    0 -0.52187145761E+02  0.84085579987E+02  0.15474413013E+03  0.20269856535E+03  0.85715107427E+02 0.  0.
          4    1    4    4  501    0  0.26578991988E+02 -0.16543406606E+02  0.69250624272E+02  0.75998526823E+02  0.00000000000E+00 0. -1.
         -3    1    4    4    0  501  0.34501173628E+02  0.13334527274E+02 -0.13902101469E+02  0.39514668474E+02  0.00000000000E+00 0.  1.
          5    1    3    3  502    0  0.11403948663E+02 -0.31827244026E+02 -0.68214885109E+02  0.76278332820E+02  0.47000000000E+01 0. -1.
         13    1    6    6    0    0 -0.26906793091E+02  0.19119847848E+02  0.12067444848E+03  0.12510742029E+03  0.00000000000E+00 0. -1.
        -14    1    6    6    0    0 -0.25280352670E+02  0.64965732139E+02  0.34069681645E+02  0.77591145055E+02  0.00000000000E+00 0.  1.
         -5    1    5    5    0  503 -0.20296968518E+02 -0.49049456629E+02  0.19103422805E+03  0.19832796680E+03  0.47000000000E+01 0.  1.
<mgrwt>
<rscale>  2 0.20011719E+03</rscale>
<asrwt>0</asrwt>
<pdfrwt beam="1">  1       21 0.71210003E-01 0.20312461E+03</pdfrwt>
<pdfrwt beam="2">  1       21 0.19992775E-01 0.20312461E+03</pdfrwt>
<totfact> 0.40986784E+04</totfact>
</mgrwt>
</event>
<event>
12    1  0.1473662E-001  0.1941396E+03  0.7546771E-02  0.1154843E+00
         21   -1    0    0  504  503  0.00000000000E+00  0.00000000000E+00  0.29973771256E+03  0.29973771256E+03  0.00000000000E+00 0.  1.
         21   -1    0    0  502  504 -0.00000000000E+00 -0.00000000000E+00 -0.39049681713E+03  0.39049681713E+03  0.00000000000E+00 0.  1.
          6    2    1    2  502    0 -0.76771791026E+02  0.41287843133E+02 -0.32966068213E+03  0.38257855062E+03  0.17346927153E+03 0.  0.
         24    2    3    3    0    0  0.18969849829E+02  0.56483089763E+01 -0.21609853099E+03  0.22975482746E+03  0.75478122991E+02 0.  0.
         -6    2    1    2    0  503  0.76771791026E+02 -0.41287843133E+02  0.23890157756E+03  0.30765597906E+03  0.17314630751E+03 0.  0.
        -24    2    5    5    0    0  0.97148823929E+02  0.16914281161E+02  0.19003457894E+03  0.22883476176E+03  0.80797401570E+02 0.  0.
          4    1    4    4  501    0  0.31582032767E+02 -0.25158640022E+02 -0.79596408611E+02  0.89252284145E+02  0.00000000000E+00 0. -1.
         -3    1    4    4    0  501 -0.12612182938E+02  0.30806948998E+02 -0.13650212238E+03  0.14050254332E+03  0.00000000000E+00 0.  1.
          5    1    3    3  502    0 -0.95741640855E+02  0.35639534157E+02 -0.11356215114E+03  0.15282372316E+03  0.47000000000E+01 0. -1.
         11    1    6    6    0    0  0.25225076566E+01 -0.14804719649E+02  0.97415936488E+00  0.15049643026E+02  0.00000000000E+00 0. -1.
        -12    1    6    6    0    0  0.94626316273E+02  0.31719000810E+02  0.18906041958E+03  0.21378511874E+03  0.00000000000E+00 0.  1.
         -5    1    5    5    0  503 -0.20377032903E+02 -0.58202124294E+02  0.48866998618E+02  0.78821217298E+02  0.47000000000E+01 0.  1.
<mgrwt>
<rscale>  2 0.19406742E+03</rscale>
<asrwt>0</asrwt>
<pdfrwt beam="1">  1       21 0.46113494E-01 0.19413959E+03</pdfrwt>
<pdfrwt beam="2">  1       21 0.60076433E-01 0.19413959E+03</pdfrwt>
<totfact> 0.11633767E+04</totfact>
</mgrwt>
</event>
<event>
12    1  0.1473662E-001  0.1792934E+03  0.7546771E-02  0.1168843E+00
         21   -1    0    0  504  503  0.00000000000E+00  0.00000000000E+00  0.58843784179E+03  0.58843784179E+03  0.00000000000E+00 0. -1.
         21   -1    0    0  502  504 -0.00000000000E+00 -0.00000000000E+00 -0.12909332588E+03  0.12909332588E+03  0.00000000000E+00 0. -1.
          6    2    1    2  502    0  0.42785975077E+02  0.12703097191E+02 -0.43218492714E+02  0.18442873587E+03  0.17364939436E+03 0.  0.
         24    2    3    3    0    0 -0.36823472847E+02  0.36342897814E+02 -0.15657072739E+02  0.96803247321E+02  0.80305357176E+02 0.  0.
         -6    2    1    2    0  503 -0.42785975077E+02 -0.12703097191E+02  0.50256300862E+03  0.53310243180E+03  0.17215288792E+03 0.  0.
        -24    2    5    5    0    0 -0.73797718599E+02 -0.42257500147E+02  0.45130882106E+03  0.46613771935E+03  0.79830582191E+02 0.  0.
          2    1    4    4  501    0  0.61893352268E+01  0.34642586096E+02 -0.34980111229E+02  0.49618795064E+02  0.00000000000E+00 0. -1.
         -1    1    4    4    0  501 -0.43012808074E+02  0.17003117172E+01  0.19323038490E+02  0.47184452257E+02  0.00000000000E+00 0.  1.
          5    1    3    3  502    0  0.79609447924E+02 -0.23639800623E+02 -0.27561419975E+02  0.87625488548E+02  0.47000000000E+01 0. -1.
         11    1    6    6    0    0 -0.26325375248E+00  0.11367914817E+02  0.17199441011E+03  0.17236988106E+03  0.00000000000E+00 0. -1.
        -12    1    6    6    0    0 -0.73534464846E+02 -0.53625414964E+02  0.27931441095E+03  0.29376783829E+03  0.00000000000E+00 0.  1.
         -5    1    5    5    0  503  0.31011743522E+02  0.29554402956E+02  0.51254187563E+02  0.66964712447E+02  0.47000000000E+01 0.  1.
<mgrwt>
<rscale>  2 0.17893004E+03</rscale>
<asrwt>0</asrwt>
<pdfrwt beam="1">  1       21 0.90528897E-01 0.17929339E+03</pdfrwt>
<pdfrwt beam="2">  1       21 0.19860512E-01 0.17929339E+03</pdfrwt>
<totfact> 0.24429166E+04</totfact>
</mgrwt>
</event>
<event>
12    1  0.1473662E-001  0.1994379E+03  0.7546771E-02  0.1150271E+00
         21   -1    0    0  504  503  0.00000000000E+00  0.00000000000E+00  0.76963327016E+02  0.76963327016E+02  0.00000000000E+00 0. -1.
         21   -1    0    0  502  504 -0.00000000000E+00 -0.00000000000E+00 -0.54775275256E+03  0.54775275256E+03  0.00000000000E+00 0.  1.
          6    2    1    2  502    0  0.75607577503E+02 -0.62615250801E+02 -0.31031325595E+03  0.36873152729E+03  0.17329583662E+03 0.  0.
         24    2    3    3    0    0  0.22122664370E+02  0.24812073264E+02 -0.20172367253E+03  0.21933955778E+03  0.79450300752E+02 0.  0.
         -6    2    1    2    0  503 -0.75607577503E+02  0.62615250801E+02 -0.16047616960E+03  0.25598455229E+03  0.17360390144E+03 0.  0.
        -24    2    5    5    0    0 -0.46004596255E+02  0.40379258798E+01 -0.12477216776E+02  0.94017211355E+02  0.80937181631E+02 0.  0.
          4    1    4    4  501    0  0.11559226439E+02  0.39406247462E+02 -0.42497600287E+02  0.59097496436E+02  0.00000000000E+00 0. -1.
         -3    1    4    4    0  501  0.10563437931E+02 -0.14594174198E+02 -0.15922607225E+03  0.16024206135E+03  0.00000000000E+00 0.  1.
          5    1    3    3  502    0  0.53484913134E+02 -0.87427324065E+02 -0.10858958341E+03  0.14939196950E+03  0.47000000000E+01 0. -1.
         13    1    6    6    0    0  0.13671158580E+02 -0.58791968780E+00  0.21279595244E+02  0.25299553360E+02  0.00000000000E+00 0. -1.
        -14    1    6    6    0    0 -0.59675754836E+02  0.46258455676E+01 -0.33756812020E+02  0.68717657994E+02  0.00000000000E+00 0.  1.
         -5    1    5    5    0  503 -0.29602981248E+02  0.58577324921E+02 -0.14799895282E+03  0.16196734093E+03  0.47000000000E+01 0.  1.
<mgrwt>
<rscale>  2 0.19937088E+03</rscale>
<asrwt>0</asrwt>
<pdfrwt beam="1">  1       21 0.11840511E-01 0.19943794E+03</pdfrwt>
<pdfrwt beam="2">  1       21 0.84269659E-01 0.19943794E+03</pdfrwt>
<totfact> 0.73225636E+04</totfact>
</mgrwt>
</event>
<event>
12    1  0.1473662E-001  0.1941177E+03  0.7546771E-02  0.1154836E+00
         21   -1    0    0  504  503  0.00000000000E+00  0.00000000000E+00  0.58100785166E+02  0.58100785166E+02  0.00000000000E+00 0. -1.
         21   -1    0    0  502  504 -0.00000000000E+00 -0.00000000000E+00 -0.79102166426E+03  0.79102166426E+03  0.00000000000E+00 0. -1.
          6    2    1    2  502    0  0.84742443443E+02  0.21377785883E+02 -0.54686149536E+03  0.58023629747E+03  0.17314264161E+03 0.  0.
         24    2    3    3    0    0  0.67349568573E+02 -0.54300802260E+02 -0.31964161816E+03  0.34006818261E+03  0.77401958966E+02 0.  0.
         -6    2    1    2    0  503 -0.84742443443E+02 -0.21377785883E+02 -0.18605938374E+03  0.26888615196E+03  0.17333025411E+03 0.  0.
        -24    2    5    5    0    0 -0.10654433948E+02 -0.67989276554E+02 -0.10769007944E+03  0.15130425680E+03  0.80992383758E+02 0.  0.
          4    1    4    4  501    0  0.76997749938E+02 -0.29778963402E+02 -0.28391762578E+03  0.29567661116E+03  0.00000000000E+00 0. -1.
         -3    1    4    4    0  501 -0.96481813658E+01 -0.24521838859E+02 -0.35723992385E+02  0.44391571459E+02  0.00000000000E+00 0.  1.
          5    1    3    3  502    0  0.17392874870E+02  0.75678588143E+02 -0.22721987720E+03  0.24016811486E+03  0.47000000000E+01 0. -1.
         13    1    6    6    0    0 -0.10119128018E+02 -0.19496001619E+02  0.99095476284E+01  0.24097509522E+02  0.00000000000E+00 0. -1.
        -14    1    6    6    0    0 -0.53530593042E+00 -0.48493274934E+02 -0.11759962707E+03  0.12720674728E+03  0.00000000000E+00 0.  1.
         -5    1    5    5    0  503 -0.74088009495E+02  0.46611490671E+02 -0.78369304300E+02  0.11758189516E+03  0.47000000000E+01 0.  1.
<mgrwt>
<rscale>  2 0.19407578E+03</rscale>
<asrwt>0</asrwt>
<pdfrwt beam="1">  1       21 0.89385829E-02 0.19411767E+03</pdfrwt>
<pdfrwt beam="2">  1       21 0.12169563E+00 0.19411767E+03</pdfrwt>
<totfact> 0.50383782E+04</totfact>
</mgrwt>
</event>
<event>
12    1  0.1473662E-001  0.2152755E+03  0.7546771E-02  0.1137652E+00
         21   -1    0    0  504  503  0.00000000000E+00  0.00000000000E+00  0.37959681372E+03  0.37959681372E+03  0.00000000000E+00 0.  1.
         21   -1    0    0  502  504 -0.00000000000E+00 -0.00000000000E+00 -0.38561623945E+03  0.38561623945E+03  0.00000000000E+00 0. -1.
          6    2    1    2  502    0 -0.12612290815E+03  0.64549908669E+01 -0.31965223369E+03  0.38538433226E+03  0.17434126930E+03 0.  0.
         24    2    3    3    0    0 -0.13161909525E+03 -0.17828048265E+02 -0.15677173538E+03  0.22054495350E+03  0.80132851929E+02 0.  0.
         -6    2    1    2    0  503  0.12612290815E+03 -0.64549908669E+01  0.31363280796E+03  0.37982872091E+03  0.17307704681E+03 0.  0.
        -24    2    5    5    0    0  0.64596579549E+02  0.58407005232E+02  0.22260301284E+03  0.25215303314E+03  0.80280473630E+02 0.  0.
          4    1    4    4  501    0 -0.37271772349E+02  0.28879052472E+02 -0.30548935746E+02  0.56182044827E+02  0.00000000000E+00 0. -1.
         -3    1    4    4    0  501 -0.94347322902E+02 -0.46707100737E+02 -0.12622279964E+03  0.16436290867E+03  0.00000000000E+00 0.  1.
          5    1    3    3  502    0  0.54961871058E+01  0.24283039132E+02 -0.16288049830E+03  0.16483937876E+03  0.47000000000E+01 0. -1.
         11    1    6    6    0    0 -0.38662699168E+01  0.43423650592E+01 -0.54594472105E+01  0.79755715294E+01  0.00000000000E+00 0. -1.
        -12    1    6    6    0    0  0.68462849466E+02  0.54064640173E+02  0.22806246005E+03  0.24417746161E+03  0.00000000000E+00 0.  1.
         -5    1    5    5    0  503  0.61526328596E+02 -0.64861996099E+02  0.91029795119E+02  0.12767568777E+03  0.47000000000E+01 0.  1.
<mgrwt>
<rscale>  2 0.21501939E+03</rscale>
<asrwt>0</asrwt>
<pdfrwt beam="1">  1       21 0.58399509E-01 0.21527548E+03</pdfrwt>
<pdfrwt beam="2">  1       21 0.59325576E-01 0.21527548E+03</pdfrwt>
<totfact> 0.71725920E+03</totfact>
</mgrwt>
</event>
<event>
12    1  0.1473662E-001  0.2707157E+03  0.7546771E-02  0.1100897E+00
         21   -1    0    0  504  503  0.00000000000E+00  0.00000000000E+00  0.55214706692E+03  0.55214706692E+03  0.00000000000E+00 0. -1.
         21   -1    0    0  502  504 -0.00000000000E+00 -0.00000000000E+00 -0.11104464533E+04  0.11104464533E+04  0.00000000000E+00 0.  1.
          6    2    1    2  502    0  0.31952684799E+02  0.20586255031E+03 -0.10592085168E+04  0.10932105898E+04  0.17258721789E+03 0.  0.
         24    2    3    3    0    0  0.21952556382E+02  0.17889839935E+03 -0.57942260743E+03  0.61254056068E+03  0.83599213271E+02 0.  0.
         -6    2    1    2    0  503 -0.31952684799E+02 -0.20586255031E+03  0.50090913044E+03  0.56938293045E+03  0.17287741568E+03 0.  0.
        -24    2    5    5    0    0 -0.46064581779E+02 -0.61633707491E+02  0.12901462806E+03  0.17022291788E+03  0.80065023109E+02 0.  0.
          4    1    4    4  501    0  0.35147521166E+02  0.16912078097E+03 -0.44886734541E+03  0.48095642274E+03  0.00000000000E+00 0. -1.
         -3    1    4    4    0  501 -0.13194964785E+02  0.97776183783E+01 -0.13055526202E+03  0.13158413794E+03  0.00000000000E+00 0.  1.
          5    1    3    3  502    0  0.10000128417E+02  0.26964150958E+02 -0.47978590941E+03  0.48067002910E+03  0.47000000000E+01 0. -1.
         11    1    6    6    0    0 -0.39061997215E+02 -0.74023212756E+02  0.13140058986E+03  0.15579278119E+03  0.00000000000E+00 0. -1.
        -12    1    6    6    0    0 -0.70025845636E+01  0.12389505265E+02 -0.23859618061E+01  0.14430136695E+02  0.00000000000E+00 0.  1.
         -5    1    5    5    0  503  0.14111896980E+02 -0.14422884282E+03  0.37189450238E+03  0.39916001257E+03  0.47000000000E+01 0.  1.
<mgrwt>
<rscale>  2 0.27066933E+03</rscale>
<asrwt>0</asrwt>
<pdfrwt beam="1">  1       21 0.84945704E-01 0.27071565E+03</pdfrwt>
<pdfrwt beam="2">  1       21 0.17083791E+00 0.27071565E+03</pdfrwt>
<totfact> 0.23223137E+02</totfact>
</mgrwt>
</event>
<event>
12    1  0.1473662E-001  0.2224474E+03  0.7546771E-02  0.1132492E+00
         21   -1    0    0  504  503  0.00000000000E+00  0.00000000000E+00  0.34189886336E+03  0.34189886336E+03  0.00000000000E+00 0. -1.
         21   -1    0    0  502  504 -0.00000000000E+00 -0.00000000000E+00 -0.14390498117E+03  0.14390498117E+03  0.00000000000E+00 0. -1.
          6    2    1    2  502    0  0.13935803514E+03  0.57406735703E+01  0.83134944241E+02  0.23747480944E+03  0.17328949441E+03 0.  0.
         24    2    3    3    0    0  0.22439733104E+02 -0.33516280282E+02  0.68865103562E+02  0.11323022755E+03  0.80323093047E+02 0.  0.
         -6    2    1    2    0  503 -0.13935803514E+03 -0.57406735703E+01  0.11485893794E+03  0.24832903509E+03  0.17035585330E+03 0.  0.
        -24    2    5    5    0    0 -0.13909637157E+03 -0.54838863488E+02  0.98474885589E+02  0.19635569680E+03  0.80642141846E+02 0.  0.
          4    1    4    4  501    0 -0.28480913395E+02  0.26519602975E+00  0.17725600713E+02  0.33547424303E+02  0.00000000000E+00 0. -1.
         -3    1    4    4    0  501  0.50920646499E+02 -0.33781476312E+02  0.51139502849E+02  0.79682803247E+02  0.00000000000E+00 0.  1.
          5    1    3    3  502    0  0.11691830203E+03  0.39256953852E+02  0.14269840679E+02  0.12424458189E+03  0.47000000000E+01 0. -1.
         13    1    6    6    0    0 -0.10942386294E+03 -0.16246297220E+02  0.34325825222E+02  0.11582653509E+03  0.00000000000E+00 0. -1.
        -14    1    6    6    0    0 -0.29672508630E+02 -0.38592566268E+02  0.64149060367E+02  0.80529161708E+02  0.00000000000E+00 0.  1.
         -5    1    5    5    0  503 -0.26166356352E+00  0.49098189918E+02  0.16384052355E+02  0.51973338286E+02  0.47000000000E+01 0.  1.
<mgrwt>
<rscale>  2 0.22187583E+03</rscale>
<asrwt>0</asrwt>
<pdfrwt beam="1">  1       21 0.52599825E-01 0.22244745E+03</pdfrwt>
<pdfrwt beam="2">  1       21 0.22139228E-01 0.22244745E+03</pdfrwt>
<totfact> 0.64509158E+04</totfact>
</mgrwt>
</event>
<event>
12    1  0.1473662E-001  0.1872854E+03  0.7546771E-02  0.1161288E+00
         21   -1    0    0  504  503  0.00000000000E+00  0.00000000000E+00  0.61446718520E+02  0.61446718520E+02  0.00000000000E+00 0. -1.
         21   -1    0    0  502  504 -0.00000000000E+00 -0.00000000000E+00 -0.70650211197E+03  0.70650211197E+03  0.00000000000E+00 0. -1.
          6    2    1    2  502    0  0.70014206391E+02 -0.16182190246E+02 -0.15245262222E+03  0.24149041320E+03  0.17295075967E+03 0.  0.
         24    2    3    3    0    0 -0.48867219556E+01  0.38941705828E+02 -0.93723824156E+02  0.13139974735E+03  0.83315075983E+02 0.  0.
         -6    2    1    2    0  503 -0.70014206391E+02  0.16182190246E+02 -0.49260277123E+03  0.52645841729E+03  0.17128082942E+03 0.  0.
        -24    2    5    5    0    0 -0.92491899842E+02 -0.30471317979E+02 -0.30646706521E+03  0.33319593363E+03  0.87259471539E+02 0.  0.
          4    1    4    4  501    0  0.32517476425E+01  0.38022341095E+02 -0.85525072351E+00  0.38170718343E+02  0.00000000000E+00 0. -1.
         -3    1    4    4    0  501 -0.81384695981E+01  0.91936473336E+00 -0.92868573433E+02  0.93229029011E+02  0.00000000000E+00 0.  1.
          5    1    3    3  502    0  0.74900928347E+02 -0.55123896074E+02 -0.58728798062E+02  0.11009066585E+03  0.47000000000E+01 0. -1.
         13    1    6    6    0    0 -0.33575596827E+02 -0.53409214296E+02 -0.10999853394E+03  0.12680513532E+03  0.00000000000E+00 0. -1.
        -14    1    6    6    0    0 -0.58916303016E+02  0.22937896317E+02 -0.19646853127E+03  0.20639079832E+03  0.00000000000E+00 0.  1.
         -5    1    5    5    0  503  0.22477693451E+02  0.46653508225E+02 -0.18613570602E+03  0.19326248366E+03  0.47000000000E+01 0.  1.
<mgrwt>
<rscale>  2 0.18689894E+03</rscale>
<asrwt>0</asrwt>
<pdfrwt beam="1">  1       21 0.94533412E-02 0.18728539E+03</pdfrwt>
<pdfrwt beam="2">  1       21 0.10869263E+00 0.18728539E+03</pdfrwt>
<totfact> 0.60390842E+04</totfact>
</mgrwt>
</event>
<event>
12    1  0.1473662E-001  0.1950580E+03  0.7546771E-02  0.1154080E+00
         21   -1    0    0  504  503  0.00000000000E+00  0.00000000000E+00  0.76722583008E+03  0.76722583008E+03  0.00000000000E+00 0. -1.
         21   -1    0    0  502  504 -0.00000000000E+00 -0.00000000000E+00 -0.51580332367E+02  0.51580332367E+02  0.00000000000E+00 0. -1.
          6    2    1    2  502    0 -0.14460533006E+02 -0.87819920726E+02  0.27544481057E+03  0.33751659987E+03  0.17356890859E+03 0.  0.
         24    2    3    3    0    0  0.53760777586E+01 -0.20619741367E+02  0.25220931107E+03  0.26354813585E+03  0.73443906324E+02 0.  0.
         -6    2    1    2    0  503  0.14460533006E+02  0.87819920726E+02  0.44020068714E+03  0.48128956257E+03  0.17303627536E+03 0.  0.
        -24    2    5    5    0    0 -0.88910126923E+01  0.11187112370E+03  0.39899128795E+03  0.42795983697E+03  0.10658975454E+03 0.  0.
          4    1    4    4  501    0  0.15014762296E+02 -0.46191574792E+02  0.14538898582E+03  0.15328751374E+03  0.00000000000E+00 0. -1.
         -3    1    4    4    0  501 -0.96386845374E+01  0.25571833425E+02  0.10682032524E+03  0.11026062211E+03  0.00000000000E+00 0.  1.
          5    1    3    3  502    0 -0.19836610765E+02 -0.67200179359E+02  0.23235499503E+02  0.73968464021E+02  0.47000000000E+01 0. -1.
         13    1    6    6    0    0  0.63349733039E+01  0.91842469358E+02  0.39080594509E+03  0.40150274941E+03  0.00000000000E+00 0. -1.
        -14    1    6    6    0    0 -0.15225985996E+02  0.20028654346E+02  0.81853428587E+01  0.26457087560E+02  0.00000000000E+00 0.  1.
         -5    1    5    5    0  503  0.23351545699E+02 -0.24051202977E+02  0.41209399189E+02  0.53329725601E+02  0.47000000000E+01 0.  1.
<mgrwt>
<rscale>  2 0.19493941E+03</rscale>
<asrwt>0</asrwt>
<pdfrwt beam="1">  1       21 0.11803473E+00 0.19505797E+03</pdfrwt>
<pdfrwt beam="2">  1       21 0.79354363E-02 0.19505797E+03</pdfrwt>
<totfact> 0.66873653E+04</totfact>
</mgrwt>
</event>
<event>
12    1  0.1473662E-001  0.2005072E+03  0.7546771E-02  0.1149577E+00
         21   -1    0    0  504  503  0.00000000000E+00  0.00000000000E+00  0.10249254521E+04  0.10249254521E+04  0.00000000000E+00 0. -1.
         21   -1    0    0  502  504 -0.00000000000E+00 -0.00000000000E+00 -0.42424302388E+02  0.42424302388E+02  0.00000000000E+00 0.  1.
          6    2    1    2  502    0 -0.28761127587E+02 -0.95238203721E+02  0.33775956126E+03  0.39214988221E+03  0.17263397983E+03 0.  0.
         24    2    3    3    0    0  0.50121333017E+02 -0.53379859084E+02  0.16925581424E+03  0.20138781479E+03  0.80919490327E+02 0.  0.
         -6    2    1    2    0  503  0.28761127587E+02  0.95238203721E+02  0.64474158847E+03  0.67519987229E+03  0.17408513356E+03 0.  0.
        -24    2    5    5    0    0  0.46018283285E+02  0.15809615114E+02  0.50661405476E+03  0.51486267860E+03  0.77834124971E+02 0.  0.
          2    1    4    4  501    0  0.47433012042E+02 -0.24742034863E+02  0.16353164804E+03  0.17206004426E+03  0.00000000000E+00 0. -1.
         -1    1    4    4    0  501  0.26883209754E+01 -0.28637824220E+02  0.57241661980E+01  0.29327770533E+02  0.00000000000E+00 0.  1.
          5    1    3    3  502    0 -0.78882460604E+02 -0.41858344637E+02  0.16850374702E+03  0.19076206742E+03  0.47000000000E+01 0. -1.
         11    1    6    6    0    0 -0.91197056193E+00  0.19626558559E+02  0.36694182553E+03  0.36746746361E+03  0.00000000000E+00 0. -1.
        -12    1    6    6    0    0  0.46930253847E+02 -0.38169434449E+01  0.13967222923E+03  0.14739521499E+03  0.00000000000E+00 0.  1.
         -5    1    5    5    0  503 -0.17257155698E+02  0.79428588607E+02  0.13812753372E+03  0.16033719369E+03  0.47000000000E+01 0.  1.
<mgrwt>
<rscale>  2 0.20019184E+03</rscale>
<asrwt>0</asrwt>
<pdfrwt beam="1">  1       21 0.15768082E+00 0.20050724E+03</pdfrwt>
<pdfrwt beam="2">  1       21 0.65268165E-02 0.20050724E+03</pdfrwt>
<totfact> 0.44467925E+04</totfact>
</mgrwt>
</event>
<event>
12    1  0.1473662E-001  0.2651606E+03  0.7546771E-02  0.1104110E+00
         21   -1    0    0  504  503  0.00000000000E+00  0.00000000000E+00  0.36137710985E+03  0.36137710985E+03  0.00000000000E+00 0.  1.
         21   -1    0    0  502  504 -0.00000000000E+00 -0.00000000000E+00 -0.21055098158E+03  0.21055098158E+03  0.00000000000E+00 0. -1.
          6    2    1    2  502    0  0.60558711325E+02 -0.19149007003E+03  0.15459618901E+03  0.30693671715E+03  0.17313105510E+03 0.  0.
         24    2    3    3    0    0  0.68194936258E+02 -0.21457950850E+03  0.13338272103E+03  0.27432482785E+03  0.82269350946E+02 0.  0.
         -6    2    1    2    0  503 -0.60558711325E+02  0.19149007003E+03 -0.37700607319E+01  0.26499137428E+03  0.17283058365E+03 0.  0.
        -24    2    5    5    0    0 -0.38428043103E+02  0.31493816152E+02 -0.26857494832E+02  0.10176243277E+03  0.84650414902E+02 0.  0.
          4    1    4    4  501    0  0.13305706968E+02 -0.16516833421E+03  0.96829817730E+02  0.19192090576E+03  0.00000000000E+00 0. -1.
         -3    1    4    4    0  501  0.54889229290E+02 -0.49411174289E+02  0.36552903303E+02  0.82403922095E+02  0.00000000000E+00 0.  1.
          5    1    3    3  502    0 -0.76362249336E+01  0.23089438470E+02  0.21213467975E+02  0.32611889298E+02  0.47000000000E+01 0. -1.
         11    1    6    6    0    0  0.16607359298E+02  0.38914907314E+02 -0.15631608011E+02  0.45105671075E+02  0.00000000000E+00 0. -1.
        -12    1    6    6    0    0 -0.55035402400E+02 -0.74210911619E+01 -0.11225886821E+02  0.56656761700E+02  0.00000000000E+00 0.  1.
         -5    1    5    5    0  503 -0.22130668222E+02  0.15999625388E+03  0.23087434100E+02  0.16322894150E+03  0.47000000000E+01 0.  1.
<mgrwt>
<rscale>  2 0.26511161E+03</rscale>
<asrwt>0</asrwt>
<pdfrwt beam="1">  1       21 0.55596478E-01 0.26516064E+03</pdfrwt>
<pdfrwt beam="2">  1       21 0.32392459E-01 0.26516064E+03</pdfrwt>
<totfact> 0.26967732E+04</totfact>
</mgrwt>
</event>
<event>
12    1  0.1473662E-001  0.2080346E+03  0.7546771E-02  0.1143436E+00
         21   -1    0    0  504  503  0.00000000000E+00  0.00000000000E+00  0.12076278224E+03  0.12076278224E+03  0.00000000000E+00 0.  1.
         21   -1    0    0  502  504 -0.00000000000E+00 -0.00000000000E+00 -0.79580314934E+03  0.79580314934E+03  0.00000000000E+00 0. -1.
          6    2    1    2  502    0 -0.90117182669E+02 -0.69910027468E+02 -0.67774623215E+03  0.70851369714E+03  0.17217196429E+03 0.  0.
         24    2    3    3    0    0 -0.80095360408E+02 -0.11069374103E+03 -0.57864699260E+03  0.60078024137E+03  0.86233319033E+02 0.  0.
         -6    2    1    2    0  503  0.90117182669E+02  0.69910027468E+02  0.27058650416E+01  0.20805223444E+03  0.17398244738E+03 0.  0.
        -24    2    5    5    0    0  0.49797947484E+02  0.76642319511E+02  0.61690430341E+02  0.13613399318E+03  0.79830283667E+02 0.  0.
          4    1    4    4  501    0 -0.63984328463E+02 -0.94786342376E+02 -0.55968046742E+03  0.57124484295E+03  0.00000000000E+00 0. -1.
         -3    1    4    4    0  501 -0.16111031945E+02 -0.15907398652E+02 -0.18966525186E+02  0.29535398420E+02  0.00000000000E+00 0.  1.
          5    1    3    3  502    0 -0.10021822261E+02  0.40783713560E+02 -0.99099239546E+02  0.10773345577E+03  0.47000000000E+01 0. -1.
         11    1    6    6    0    0  0.36626602529E+02 -0.63053806439E+01  0.15346599169E+02  0.40209251969E+02  0.00000000000E+00 0. -1.
        -12    1    6    6    0    0  0.13171344955E+02  0.82947700155E+02  0.46343831173E+02  0.95924741213E+02  0.00000000000E+00 0.  1.
         -5    1    5    5    0  503  0.40319235185E+02 -0.67322920433E+01 -0.58984565300E+02  0.71918241258E+02  0.47000000000E+01 0.  1.
<mgrwt>
<rscale>  2 0.20765567E+03</rscale>
<asrwt>0</asrwt>
<pdfrwt beam="1">  1       21 0.18578890E-01 0.20803464E+03</pdfrwt>
<pdfrwt beam="2">  1       21 0.12243125E+00 0.20803464E+03</pdfrwt>
<totfact> 0.13163271E+04</totfact>
</mgrwt>
</event>
<event>
12    1  0.1473662E-001  0.1822784E+03  0.7546771E-02  0.1166045E+00
         21   -1    0    0  504  503  0.00000000000E+00  0.00000000000E+00  0.37825464660E+03  0.37825464660E+03  0.00000000000E+00 0.  1.
         21   -1    0    0  502  504 -0.00000000000E+00 -0.00000000000E+00 -0.97263048556E+02  0.97263048556E+02  0.00000000000E+00 0.  1.
          6    2    1    2  502    0 -0.50750085170E+02  0.18424576440E+02  0.63797808381E+02  0.19312059573E+03  0.17409873055E+03 0.  0.
         24    2    3    3    0    0 -0.86323990216E+02  0.53587106570E+02  0.36239868418E+02  0.13581931913E+03  0.82523633632E+02 0.  0.
         -6    2    1    2    0  503  0.50750085170E+02 -0.18424576440E+02  0.21719378967E+03  0.28239709943E+03  0.17222062401E+03 0.  0.
        -24    2    5    5    0    0  0.15317346049E+02 -0.53442313552E+02  0.54179362019E+02  0.11187579714E+03  0.80561087062E+02 0.  0.
          2    1    4    4  501    0 -0.72677314343E+02  0.44162768558E+02  0.61956614912E+02  0.10521864986E+03  0.00000000000E+00 0. -1.
         -1    1    4    4    0  501 -0.13646675874E+02  0.94243380117E+01 -0.25716746495E+02  0.30600669268E+02  0.00000000000E+00 0.  1.
          5    1    3    3  502    0  0.35573905046E+02 -0.35162530129E+02  0.27557939964E+02  0.57301276603E+02  0.47000000000E+01 0. -1.
         11    1    6    6    0    0  0.29316721898E+02 -0.62353636858E+02  0.62754305582E+02  0.93196293281E+02  0.00000000000E+00 0. -1.
        -12    1    6    6    0    0 -0.13999375849E+02  0.89113233063E+01 -0.85749435620E+01  0.18679503856E+02  0.00000000000E+00 0.  1.
         -5    1    5    5    0  503  0.35432739121E+02  0.35017737112E+02  0.16301442765E+03  0.17052130229E+03  0.47000000000E+01 0.  1.
<mgrwt>
<rscale>  2 0.18182846E+03</rscale>
<asrwt>0</asrwt>
<pdfrwt beam="1">  1       21 0.58193022E-01 0.18227837E+03</pdfrwt>
<pdfrwt beam="2">  1       21 0.14963546E-01 0.18227837E+03</pdfrwt>
<totfact> 0.10942885E+05</totfact>
</mgrwt>
</event>
<event>
12    1  0.1473662E-001  0.2005448E+03  0.7546771E-02  0.1150029E+00
         21   -1    0    0  504  503  0.00000000000E+00  0.00000000000E+00  0.10914146007E+03  0.10914146007E+03  0.00000000000E+00 0. -1.
         21   -1    0    0  502  504 -0.00000000000E+00 -0.00000000000E+00 -0.42120333659E+03  0.42120333659E+03  0.00000000000E+00 0. -1.
          6    2    1    2  502    0 -0.26922018744E+02 -0.89355005968E+02 -0.25659850244E+03  0.32567010750E+03  0.17750807103E+03 0.  0.
         24    2    3    3    0    0  0.11202951090E+01  0.23217398016E+02 -0.87103208570E+02  0.12022020570E+03  0.79533805921E+02 0.  0.
         -6    2    1    2    0  503  0.26922018744E+02  0.89355005968E+02 -0.55463374080E+02  0.20467468916E+03  0.17351204666E+03 0.  0.
        -24    2    5    5    0    0  0.15120124248E+02 -0.19950218303E+01  0.24471205455E+02  0.82626586769E+02  0.77432000331E+02 0.  0.
          4    1    4    4  501    0  0.16833518887E+02  0.11464319617E+02 -0.96384979462E+02  0.98513259252E+02  0.00000000000E+00 0. -1.
         -3    1    4    4    0  501 -0.15713223778E+02  0.11753078399E+02  0.92817708924E+01  0.21706946451E+02  0.00000000000E+00 0.  1.
          5    1    3    3  502    0 -0.28042313853E+02 -0.11257240398E+03 -0.16949529387E+03  0.20544990180E+03  0.47000000000E+01 0. -1.
         13    1    6    6    0    0  0.72227003248E+01  0.18966612226E+02  0.46792206898E+02  0.51004023427E+02  0.00000000000E+00 0. -1.
        -14    1    6    6    0    0  0.78974239228E+01 -0.20961634056E+02 -0.22321001443E+02  0.31622563342E+02  0.00000000000E+00 0.  1.
         -5    1    5    5    0  503  0.11801894497E+02  0.91350027798E+02 -0.79934579535E+02  0.12204810239E+03  0.47000000000E+01 0.  1.
<mgrwt>
<rscale>  2 0.19965689E+03</rscale>
<asrwt>0</asrwt>
<pdfrwt beam="1">  1       21 0.16790994E-01 0.20054483E+03</pdfrwt>
<pdfrwt beam="2">  1       21 0.64800513E-01 0.20054483E+03</pdfrwt>
<totfact> 0.69774637E+04</totfact>
</mgrwt>
</event>
<event>
12    1  0.1473662E-001  0.2297259E+03  0.7546771E-02  0.1126875E+00
         21   -1    0    0  504  503  0.00000000000E+00  0.00000000000E+00  0.11096509503E+03  0.11096509503E+03  0.00000000000E+00 0.  1.
         21   -1    0    0  502  504 -0.00000000000E+00 -0.00000000000E+00 -0.82800237324E+03  0.82800237324E+03  0.00000000000E+00 0. -1.
          6    2    1    2  502    0 -0.14973814758E+03  0.35782920511E+01 -0.66513149813E+03  0.70368592919E+03  0.17418283533E+03 0.  0.
         24    2    3    3    0    0 -0.18262033076E+01  0.63014051251E+01 -0.18832072104E+03  0.20443051785E+03  0.79272315034E+02 0.  0.
         -6    2    1    2    0  503  0.14973814758E+03 -0.35782920511E+01 -0.51905780072E+02  0.23528153907E+03  0.17386453235E+03 0.  0.
        -24    2    5    5    0    0  0.27824346528E+02  0.17408146057E+02  0.26182504515E+02  0.88914617740E+02  0.78377598179E+02 0.  0.
          4    1    4    4  501    0  0.35669312872E+02  0.18006476324E+02 -0.10392449920E+03  0.11134107331E+03  0.00000000000E+00 0. -1.
         -3    1    4    4    0  501 -0.37495516180E+02 -0.11705071199E+02 -0.84396221836E+02  0.93089444544E+02  0.00000000000E+00 0.  1.
          5    1    3    3  502    0 -0.14791194427E+03 -0.27231130740E+01 -0.47681077709E+03  0.49925541134E+03  0.47000000000E+01 0. -1.
         11    1    6    6    0    0  0.26466272564E+02  0.15109202210E+02 -0.23919586513E+02  0.38741427358E+02  0.00000000000E+00 0. -1.
        -12    1    6    6    0    0  0.13580739646E+01  0.22989438469E+01  0.50102091028E+02  0.50173190382E+02  0.00000000000E+00 0.  1.
         -5    1    5    5    0  503  0.12191380105E+03 -0.20986438108E+02 -0.78088284588E+02  0.14636692133E+03  0.47000000000E+01 0.  1.
<mgrwt>
<rscale>  2 0.22966554E+03</rscale>
<asrwt>0</asrwt>
<pdfrwt beam="1">  1       21 0.17071554E-01 0.22972587E+03</pdfrwt>
<pdfrwt beam="2">  1       21 0.12738498E+00 0.22972587E+03</pdfrwt>
<totfact> 0.13745481E+04</totfact>
</mgrwt>
</event>
<event>
12    1  0.1473662E-001  0.1927531E+03  0.7546771E-02  0.1157760E+00
         21   -1    0    0  504  503  0.00000000000E+00  0.00000000000E+00  0.26128945510E+03  0.26128945510E+03  0.00000000000E+00 0. -1.
         21   -1    0    0  502  504 -0.00000000000E+00 -0.00000000000E+00 -0.15692169788E+03  0.15692169788E+03  0.00000000000E+00 0. -1.
          6    2    1    2  502    0  0.18393583261E+02  0.63960094984E+02  0.12663769983E+03  0.22417585716E+03  0.17259342473E+03 0.  0.
         24    2    3    3    0    0 -0.38699792254E+01 -0.13178091819E+02  0.93153777654E+01  0.81934571548E+02  0.80236269284E+02 0.  0.
         -6    2    1    2    0  503 -0.18393583261E+02 -0.63960094984E+02 -0.22269942613E+02  0.19403529581E+03  0.18089922062E+03 0.  0.
        -24    2    5    5    0    0 -0.45506824279E+01 -0.10768302285E+03  0.12710548194E+02  0.13616436130E+03  0.82236446485E+02 0.  0.
          2    1    4    4  501    0 -0.19827451454E+02 -0.47867739149E+01 -0.31378695801E+02  0.37425440356E+02  0.00000000000E+00 0. -1.
         -1    1    4    4    0  501  0.15957472228E+02 -0.83913179039E+01  0.40694073566E+02  0.44509131192E+02  0.00000000000E+00 0.  1.
          5    1    3    3  502    0  0.22263562487E+02  0.77138186803E+02  0.11732232207E+03  0.14224128562E+03  0.47000000000E+01 0. -1.
         13    1    6    6    0    0  0.29677611300E+02 -0.94193847368E+02  0.10323280903E+02  0.99296584146E+02  0.00000000000E+00 0. -1.
        -14    1    6    6    0    0 -0.34228293728E+02 -0.13489175484E+02  0.23872672911E+01  0.36867777149E+02  0.00000000000E+00 0.  1.
         -5    1    5    5    0  503 -0.13842900833E+02  0.43722927868E+02 -0.34980490807E+02  0.57870934517E+02  0.47000000000E+01 0.  1.
<mgrwt>
<rscale>  2 0.19077978E+03</rscale>
<asrwt>0</asrwt>
<pdfrwt beam="1">  1       21 0.40198378E-01 0.19275307E+03</pdfrwt>
<pdfrwt beam="2">  1       21 0.24141800E-01 0.19275307E+03</pdfrwt>
<totfact> 0.96549467E+04</totfact>
</mgrwt>
</event>
<event>
12    1  0.1473662E-001  0.2533598E+03  0.7546771E-02  0.1111637E+00
         21   -1    0    0  504  503  0.00000000000E+00  0.00000000000E+00  0.11332888680E+03  0.11332888680E+03  0.00000000000E+00 0. -1.
         21   -1    0    0  502  504 -0.00000000000E+00 -0.00000000000E+00 -0.60603541710E+03  0.60603541710E+03  0.00000000000E+00 0.  1.
          6    2    1    2  502    0  0.12442912911E+03  0.13182040525E+03 -0.34402992388E+03  0.42560265984E+03  0.17297921299E+03 0.  0.
         24    2    3    3    0    0  0.10830358887E+03  0.64030302951E+02 -0.31425684450E+03  0.34968127107E+03  0.87693101002E+02 0.  0.
         -6    2    1    2    0  503 -0.12442912911E+03 -0.13182040525E+03 -0.14867660641E+03  0.29376164406E+03  0.17700831283E+03 0.  0.
        -24    2    5    5    0    0 -0.10881581409E+03 -0.71006284771E+02 -0.27290448789E+02  0.15701800757E+03  0.83827872659E+02 0.  0.
          2    1    4    4  501    0  0.12184495148E+03  0.52223823980E+02 -0.29459546801E+03  0.32304799917E+03  0.00000000000E+00 0. -1.
         -1    1    4    4    0  501 -0.13541362606E+02  0.11806478971E+02 -0.19661376487E+02  0.26633271903E+02  0.00000000000E+00 0.  1.
          5    1    3    3  502    0  0.16125540243E+02  0.67790102298E+02 -0.29773079383E+02  0.75921388775E+02  0.47000000000E+01 0. -1.
         11    1    6    6    0    0 -0.10061188008E+03 -0.19873142096E+02 -0.13614156180E+02  0.10345548530E+03  0.00000000000E+00 0. -1.
        -12    1    6    6    0    0 -0.82039340113E+01 -0.51133142675E+02 -0.13676292609E+02  0.53562522277E+02  0.00000000000E+00 0.  1.
         -5    1    5    5    0  503 -0.15613315023E+02 -0.60814120478E+02 -0.12138615762E+03  0.13674363648E+03  0.47000000000E+01 0.  1.
<mgrwt>
<rscale>  2 0.25265727E+03</rscale>
<asrwt>0</asrwt>
<pdfrwt beam="1">  1       21 0.17435213E-01 0.25335976E+03</pdfrwt>
<pdfrwt beam="2">  1       21 0.93236219E-01 0.25335976E+03</pdfrwt>
<totfact> 0.27923126E+04</totfact>
</mgrwt>
</event>
<event>
12    1  0.1473662E-001  0.1797557E+03  0.7546771E-02  0.1168101E+00
         21   -1    0    0  504  503  0.00000000000E+00  0.00000000000E+00  0.17194971985E+02  0.17194971985E+02  0.00000000000E+00 0.  1.
         21   -1    0    0  502  504 -0.00000000000E+00 -0.00000000000E+00 -0.24166492541E+04  0.24166492541E+04  0.00000000000E+00 0.  1.
          6    2    1    2  502    0  0.46712947197E+02 -0.12579232163E+02 -0.17743913677E+04  0.17834476025E+04  0.17285915875E+03 0.  0.
         24    2    3    3    0    0  0.11072190080E+02  0.75784101751E+00 -0.16743576703E+04  0.16763169734E+04  0.80260946008E+02 0.  0.
         -6    2    1    2    0  503 -0.46712947197E+02  0.12579232163E+02 -0.62506291450E+03  0.65039662361E+03  0.17312361021E+03 0.  0.
        -24    2    5    5    0    0 -0.47128552756E+02 -0.36687478670E+02 -0.21726196553E+03  0.23960338425E+03  0.81485879172E+02 0.  0.
          2    1    4    4  501    0 -0.14930588387E+01  0.29818196728E+02 -0.27765975522E+03  0.27926026168E+03  0.00000000000E+00 0. -1.
         -1    1    4    4    0  501  0.12565248919E+02 -0.29060355710E+02 -0.13966979151E+04  0.13970567118E+04  0.00000000000E+00 0.  1.
          5    1    3    3  502    0  0.35640757117E+02 -0.13337073180E+02 -0.10003369732E+03  0.10713062908E+03  0.47000000000E+01 0. -1.
         11    1    6    6    0    0 -0.18518271192E+02  0.52415368228E+01 -0.16721949217E+03  0.16832337519E+03  0.00000000000E+00 0. -1.
        -12    1    6    6    0    0 -0.28610281564E+02 -0.41929015493E+02 -0.50042473362E+02  0.71280009060E+02  0.00000000000E+00 0.  1.
         -5    1    5    5    0  503  0.41560555919E+00  0.49266710833E+02 -0.40780094897E+03  0.41079323936E+03  0.47000000000E+01 0.  1.
<mgrwt>
<rscale>  2 0.17969202E+03</rscale>
<asrwt>0</asrwt>
<pdfrwt beam="1">  1       21 0.26453798E-02 0.17975573E+03</pdfrwt>
<pdfrwt beam="2">  1       21 0.37179226E+00 0.17975573E+03</pdfrwt>
<totfact> 0.10265664E+04</totfact>
</mgrwt>
</event>
<event>
12    1  0.1473662E-001  0.2435452E+03  0.7546771E-02  0.1117679E+00
         21   -1    0    0  504  503  0.00000000000E+00  0.00000000000E+00  0.16945985410E+03  0.16945985410E+03  0.00000000000E+00 0. -1.
         21   -1    0    0  502  504 -0.00000000000E+00 -0.00000000000E+00 -0.61010933576E+03  0.61010933576E+03  0.00000000000E+00 0.  1.
          6    2    1    2  502    0 -0.14555284612E+03  0.89304807452E+02 -0.47613958001E+03  0.53481131643E+03  0.17364695473E+03 0.  0.
         24    2    3    3    0    0 -0.14246431651E+03  0.24188708543E+02 -0.40970299284E+03  0.44161498890E+03  0.79284809225E+02 0.  0.
         -6    2    1    2    0  503  0.14555284612E+03 -0.89304807452E+02  0.35490098354E+02  0.24475787342E+03  0.17171455930E+03 0.  0.
        -24    2    5    5    0    0  0.44453774632E+02  0.14523652576E+02  0.37175545884E+02  0.99753383493E+02  0.79885178496E+02 0.  0.
          4    1    4    4  501    0 -0.10026381917E+03 -0.13479157325E+02 -0.31958304888E+03  0.33521313556E+03  0.00000000000E+00 0. -1.
         -3    1    4    4    0  501 -0.42200497336E+02  0.37667865867E+02 -0.90119943961E+02  0.10640185334E+03  0.00000000000E+00 0.  1.
          5    1    3    3  502    0 -0.30885296117E+01  0.65116098910E+02 -0.66436587163E+02  0.93196327536E+02  0.47000000000E+01 0. -1.
         13    1    6    6    0    0  0.67465212811E+02  0.10761343971E+02  0.33703539755E+02  0.76179328270E+02  0.00000000000E+00 0. -1.
        -14    1    6    6    0    0 -0.23011438179E+02  0.37623086043E+01  0.34720061284E+01  0.23574055223E+02  0.00000000000E+00 0.  1.
         -5    1    5    5    0  503  0.10109907149E+03 -0.10382846003E+03 -0.16854475297E+01  0.14500448993E+03  0.47000000000E+01 0.  1.
<mgrwt>
<rscale>  2 0.24320093E+03</rscale>
<asrwt>0</asrwt>
<pdfrwt beam="1">  1       21 0.26070746E-01 0.24354516E+03</pdfrwt>
<pdfrwt beam="2">  1       21 0.93862976E-01 0.24354516E+03</pdfrwt>
<totfact> 0.12908199E+04</totfact>
</mgrwt>
</event>
<event>
12    1  0.1473662E-001  0.2901240E+03  0.7546771E-02  0.1090395E+00
         21   -1    0    0  504  503  0.00000000000E+00  0.00000000000E+00  0.39364356580E+03  0.39364356580E+03  0.00000000000E+00 0. -1.
         21   -1    0    0  502  504 -0.00000000000E+00 -0.00000000000E+00 -0.21391933284E+03  0.21391933284E+03  0.00000000000E+00 0. -1.
          6    2    1    2  502    0  0.17215876670E+03 -0.15656704900E+03  0.10754059946E+03  0.30941378092E+03  0.17326287978E+03 0.  0.
         24    2    3    3    0    0  0.30402667923E+02 -0.66375431687E+02 -0.90836805509E+01  0.10483462250E+03  0.74684433943E+02 0.  0.
         -6    2    1    2    0  503 -0.17215876670E+03  0.15656704900E+03  0.72183633498E+02  0.29814911771E+03  0.17184451596E+03 0.  0.
        -24    2    5    5    0    0 -0.56587476937E+02  0.27409960521E+02  0.70760207315E+02  0.12476401840E+03  0.81274872297E+02 0.  0.
          4    1    4    4  501    0  0.33825859993E+02 -0.78274483794E+02 -0.20818839098E+02  0.87775325000E+02  0.00000000000E+00 0. -1.
         -3    1    4    4    0  501 -0.34231920696E+01  0.11899052107E+02  0.11735158547E+02  0.17059297498E+02  0.00000000000E+00 0.  1.
          5    1    3    3  502    0  0.14175609877E+03 -0.90191617314E+02  0.11662428001E+03  0.20457915842E+03  0.47000000000E+01 0. -1.
         11    1    6    6    0    0 -0.49990356311E+02  0.14925138699E+02 -0.44445117446E+00  0.52172723008E+02  0.00000000000E+00 0. -1.
        -12    1    6    6    0    0 -0.65971206265E+01  0.12484821822E+02  0.71204658489E+02  0.72591295395E+02  0.00000000000E+00 0.  1.
         -5    1    5    5    0  503 -0.11557128976E+03  0.12915708848E+03  0.14234261826E+01  0.17338509931E+03  0.47000000000E+01 0.  1.
<mgrwt>
<rscale>  2 0.28991252E+03</rscale>
<asrwt>0</asrwt>
<pdfrwt beam="1">  1       21 0.60560549E-01 0.29012395E+03</pdfrwt>
<pdfrwt beam="2">  1       21 0.32910667E-01 0.29012395E+03</pdfrwt>
<totfact> 0.21508689E+04</totfact>
</mgrwt>
</event>
<event>
12    1  0.1473662E-001  0.2449594E+03  0.7546771E-02  0.1116624E+00
         21   -1    0    0  504  503  0.00000000000E+00  0.00000000000E+00  0.20780412670E+03  0.20780412670E+03  0.00000000000E+00 0. -1.
         21   -1    0    0  502  504 -0.00000000000E+00 -0.00000000000E+00 -0.73043146139E+03  0.73043146139E+03  0.00000000000E+00 0. -1.
          6    2    1    2  502    0  0.39511631694E+02 -0.16913312677E+03 -0.62625887001E+03  0.67225697501E+03  0.17193628053E+03 0.  0.
         24    2    3    3    0    0 -0.15083710526E+02 -0.17067496317E+03 -0.49483949970E+03  0.52986255958E+03  0.80812995249E+02 0.  0.
         -6    2    1    2    0  503 -0.39511631694E+02  0.16913312677E+03  0.10363153532E+03  0.26597861308E+03  0.17273663160E+03 0.  0.
        -24    2    5    5    0    0 -0.55733411062E+02  0.16662649086E+03  0.13070341149E+03  0.23397227263E+03  0.82395643198E+02 0.  0.
          4    1    4    4  501    0  0.63268400826E+01 -0.16757835929E+03 -0.44384293437E+03  0.47446715987E+03  0.00000000000E+00 0. -1.
         -3    1    4    4    0  501 -0.21410550609E+02 -0.30966038839E+01 -0.50996565338E+02  0.55395399712E+02  0.00000000000E+00 0.  1.
          5    1    3    3  502    0  0.54595342220E+02  0.15418363990E+01 -0.13141937031E+03  0.14239441542E+03  0.47000000000E+01 0. -1.
         11    1    6    6    0    0 -0.23668783335E+02  0.15405569252E+03  0.87580600367E+02  0.17878402966E+03  0.00000000000E+00 0. -1.
        -12    1    6    6    0    0 -0.32064627728E+02  0.12570798344E+02  0.43122811127E+02  0.55188242967E+02  0.00000000000E+00 0.  1.
         -5    1    5    5    0  503  0.16221779368E+02  0.25066359121E+01 -0.27071876178E+02  0.32006340454E+02  0.47000000000E+01 0.  1.
<mgrwt>
<rscale>  2 0.24481839E+03</rscale>
<asrwt>0</asrwt>
<pdfrwt beam="1">  1       21 0.31969866E-01 0.24495944E+03</pdfrwt>
<pdfrwt beam="2">  1       21 0.11237407E+00 0.24495944E+03</pdfrwt>
<totfact> 0.56206728E+03</totfact>
</mgrwt>
</event>
<event>
12    1  0.1473662E-001  0.2817676E+03  0.7546771E-02  0.1095979E+00
         21   -1    0    0  504  503  0.00000000000E+00  0.00000000000E+00  0.16105039057E+03  0.16105039057E+03  0.00000000000E+00 0. -1.
         21   -1    0    0  502  504 -0.00000000000E+00 -0.00000000000E+00 -0.48320667590E+03  0.48320667590E+03  0.00000000000E+00 0. -1.
          6    2    1    2  502    0 -0.46062805978E+02 -0.21774753412E+03 -0.19433777394E+03  0.33485349962E+03  0.15755610150E+03 0.  0.
         24    2    3    3    0    0 -0.30781952610E+02 -0.12004010109E+03 -0.43395888459E+02  0.15433815473E+03  0.81116634510E+02 0.  0.
         -6    2    1    2    0  503  0.46062805978E+02  0.21774753412E+03 -0.12781851139E+03  0.30940356685E+03  0.17279243217E+03 0.  0.
        -24    2    5    5    0    0 -0.17020417816E+02  0.16034365320E+03 -0.13226819489E+03  0.22386650850E+03  0.81372947001E+02 0.  0.
          2    1    4    4  501    0 -0.55658587614E+02 -0.78595191298E+02 -0.44264783671E+02  0.10599270514E+03  0.00000000000E+00 0. -1.
         -1    1    4    4    0  501  0.24876635004E+02 -0.41444909793E+02  0.86889521205E+00  0.48345449587E+02  0.00000000000E+00 0.  1.
          5    1    3    3  502    0 -0.15280853367E+02 -0.97707433028E+02 -0.15094188548E+03  0.18051534489E+03  0.47000000000E+01 0. -1.
         11    1    6    6    0    0 -0.46949880775E+02  0.12898799429E+03 -0.10045114166E+03  0.17009593127E+03  0.00000000000E+00 0. -1.
        -12    1    6    6    0    0  0.29929462959E+02  0.31355658916E+02 -0.31817053224E+02  0.53770577224E+02  0.00000000000E+00 0.  1.
         -5    1    5    5    0  503  0.63083223794E+02  0.57403880917E+02  0.44496834951E+01  0.85537058353E+02  0.47000000000E+01 0.  1.
<mgrwt>
<rscale>  2 0.27947021E+03</rscale>
<asrwt>0</asrwt>
<pdfrwt beam="1">  1       21 0.24776983E-01 0.28176763E+03</pdfrwt>
<pdfrwt beam="2">  1       21 0.74339488E-01 0.28176763E+03</pdfrwt>
<totfact> 0.23900902E+04</totfact>
</mgrwt>
</event>
<event>
12    1  0.1473662E-001  0.2435139E+03  0.7546771E-02  0.1118477E+00
         21   -1    0    0  504  503  0.00000000000E+00  0.00000000000E+00  0.65740613448E+02  0.65740613448E+02  0.00000000000E+00 0.  1.
         21   -1    0    0  502  504 -0.00000000000E+00 -0.00000000000E+00 -0.13585544617E+04  0.13585544617E+04  0.00000000000E+00 0. -1.
          6    2    1    2  502    0  0.14058403792E+03 -0.99325774458E+02 -0.10639011027E+04  0.10900794889E+04  0.16357950551E+03 0.  0.
         24    2    3    3    0    0  0.12583166357E+03 -0.57891227221E+02 -0.50310880189E+03  0.52754544647E+03  0.77464377671E+02 0.  0.
         -6    2    1    2    0  503 -0.14058403792E+03  0.99325774458E+02 -0.22891274558E+03  0.33421558626E+03  0.17224845957E+03 0.  0.
        -24    2    5    5    0    0 -0.12076367273E+03  0.13708721757E+03 -0.19783604819E+03  0.28123800060E+03  0.81110672192E+02 0.  0.
          4    1    4    4  501    0  0.30905754939E+01 -0.15001192833E+02 -0.11830467234E+02  0.19353227076E+02  0.00000000000E+00 0. -1.
         -3    1    4    4    0  501  0.12274108807E+03 -0.42890034388E+02 -0.49127833466E+03  0.50819221940E+03  0.00000000000E+00 0.  1.
          5    1    3    3  502    0  0.14752374356E+02 -0.41434547237E+02 -0.56079230079E+03  0.56253404242E+03  0.47000000000E+01 0. -1.
         13    1    6    6    0    0  0.22322354459E+01 -0.10646826331E+01 -0.34157427148E+02  0.34246842973E+02  0.00000000000E+00 0. -1.
        -14    1    6    6    0    0 -0.12299590818E+03  0.13815190021E+03 -0.16367862104E+03  0.24699115762E+03  0.00000000000E+00 0.  1.
         -5    1    5    5    0  503 -0.19820365192E+02 -0.37761443116E+02 -0.31076697391E+02  0.52977585668E+02  0.47000000000E+01 0.  1.
<mgrwt>
<rscale>  2 0.24198636E+03</rscale>
<asrwt>0</asrwt>
<pdfrwt beam="1">  1       21 0.10113940E-01 0.24351389E+03</pdfrwt>
<pdfrwt beam="2">  1       21 0.20900839E+00 0.24351389E+03</pdfrwt>
<totfact> 0.89913947E+03</totfact>
</mgrwt>
</event>
<event>
12    1  0.1473662E-001  0.2152029E+03  0.7546771E-02  0.1138753E+00
         21   -1    0    0  504  503  0.00000000000E+00  0.00000000000E+00  0.18275417295E+04  0.18275417295E+04  0.00000000000E+00 0.  1.
         21   -1    0    0  502  504 -0.00000000000E+00 -0.00000000000E+00 -0.26166753485E+02  0.26166753485E+02  0.00000000000E+00 0. -1.
          6    2    1    2  502    0 -0.48883703460E+02 -0.11842271603E+03  0.11404409504E+04  0.11605678992E+04  0.17291249570E+03 0.  0.
         24    2    3    3    0    0  0.25948748802E+02 -0.11108669882E+03  0.77702386003E+03  0.78942401251E+03  0.80066224106E+02 0.  0.
         -6    2    1    2    0  503  0.48883703460E+02  0.11842271603E+03  0.66093402562E+03  0.69314058379E+03  0.16491369420E+03 0.  0.
        -24    2    5    5    0    0  0.85273059500E+02  0.11664501768E+03  0.45080889592E+03  0.47982859261E+03  0.78289608682E+02 0.  0.
          2    1    4    4  501    0  0.32879608762E+02 -0.24470768469E+02  0.12290433180E+03  0.12955833419E+03  0.00000000000E+00 0. -1.
         -1    1    4    4    0  501 -0.69308599604E+01 -0.86615930349E+02  0.65411952823E+03  0.65986567832E+03  0.00000000000E+00 0.  1.
          5    1    3    3  502    0 -0.74832452262E+02 -0.73360172170E+01  0.36341709032E+03  0.37114388665E+03  0.47000000000E+01 0. -1.
         13    1    6    6    0    0  0.84637369009E+02  0.82601580474E+02  0.40981530795E+03  0.42653849998E+03  0.00000000000E+00 0. -1.
        -14    1    6    6    0    0  0.63569049186E+00  0.34043437209E+02  0.40993587963E+02  0.53290092639E+02  0.00000000000E+00 0.  1.
         -5    1    5    5    0  503 -0.36389356041E+02  0.17776983522E+01  0.21012512971E+03  0.21331199118E+03  0.47000000000E+01 0.  1.
<mgrwt>
<rscale>  2 0.21359174E+03</rscale>
<asrwt>0</asrwt>
<pdfrwt beam="1">  1       21 0.28116017E+00 0.21520290E+03</pdfrwt>
<pdfrwt beam="2">  1       21 0.40256558E-02 0.21520290E+03</pdfrwt>
<totfact> 0.16634495E+04</totfact>
</mgrwt>
</event>
<event>
12    1  0.1473662E-001  0.2006199E+03  0.7546771E-02  0.1150384E+00
         21   -1    0    0  504  503  0.00000000000E+00  0.00000000000E+00  0.17073566279E+03  0.17073566279E+03  0.00000000000E+00 0.  1.
         21   -1    0    0  502  504 -0.00000000000E+00 -0.00000000000E+00 -0.24709768345E+03  0.24709768345E+03  0.00000000000E+00 0.  1.
          6    2    1    2  502    0 -0.52179011578E-01 -0.10275473845E+03  0.18299732452E+02  0.19600187303E+03  0.16590152208E+03 0.  0.
         24    2    3    3    0    0  0.13243709205E+01 -0.10011363438E+03  0.68118647104E+02  0.14587319284E+03  0.81328620794E+02 0.  0.
         -6    2    1    2    0  503  0.52179011578E-01  0.10275473845E+03 -0.94661753112E+02  0.22183147321E+03  0.17230733010E+03 0.  0.
        -24    2    5    5    0    0  0.51680486799E+02  0.54475750688E+02 -0.99475178565E+02  0.15082723468E+03  0.84941529547E+02 0.  0.
          4    1    4    4  501    0  0.38873947000E+02 -0.48725232785E+02  0.18047415271E+02  0.64892536268E+02  0.00000000000E+00 0. -1.
         -3    1    4    4    0  501 -0.37549576080E+02 -0.51388401593E+02  0.50071231834E+02  0.80980656575E+02  0.00000000000E+00 0.  1.
          5    1    3    3  502    0 -0.13765499321E+01 -0.26411040755E+01 -0.49818914653E+02  0.50128680190E+02  0.47000000000E+01 0. -1.
         11    1    6    6    0    0  0.34758776192E+02 -0.13993979366E+02 -0.57866719664E+02  0.68938822339E+02  0.00000000000E+00 0. -1.
        -12    1    6    6    0    0  0.16921710608E+02  0.68469730054E+02 -0.41608458901E+02  0.81888412341E+02  0.00000000000E+00 0.  1.
         -5    1    5    5    0  503 -0.51628307788E+02  0.48278987765E+02  0.48134254534E+01  0.71004238530E+02  0.47000000000E+01 0.  1.
<mgrwt>
<rscale>  2 0.19923715E+03</rscale>
<asrwt>0</asrwt>
<pdfrwt beam="1">  1       21 0.26267025E-01 0.20061993E+03</pdfrwt>
<pdfrwt beam="2">  1       21 0.38015028E-01 0.20061993E+03</pdfrwt>
<totfact> 0.91650331E+04</totfact>
</mgrwt>
</event>
<event>
12    1  0.1473662E-001  0.1798756E+03  0.7546771E-02  0.1168166E+00
         21   -1    0    0  504  503  0.00000000000E+00  0.00000000000E+00  0.45371126666E+02  0.45371126666E+02  0.00000000000E+00 0.  1.
         21   -1    0    0  502  504 -0.00000000000E+00 -0.00000000000E+00 -0.13144071266E+04  0.13144071266E+04  0.00000000000E+00 0. -1.
          6    2    1    2  502    0  0.95109611401E+01  0.44478943416E+02 -0.10968268159E+04  0.11114784358E+04  0.17402992326E+03 0.  0.
         24    2    3    3    0    0  0.23408184654E+02  0.79389588572E+02 -0.49047291985E+03  0.50394323243E+03  0.80897753544E+02 0.  0.
         -6    2    1    2    0  503 -0.95109611401E+01 -0.44478943416E+02 -0.17220918401E+03  0.24829981753E+03  0.17299699864E+03 0.  0.
        -24    2    5    5    0    0 -0.34858363129E+02  0.34504718029E+02 -0.10232664482E+03  0.13973385211E+03  0.81542174000E+02 0.  0.
          2    1    4    4  501    0 -0.80524269546E+01  0.83581367620E+02 -0.36101251690E+03  0.37064905767E+03  0.00000000000E+00 0. -1.
         -1    1    4    4    0  501  0.31460611608E+02 -0.41917790483E+01 -0.12946040295E+03  0.13329417476E+03  0.00000000000E+00 0.  1.
          5    1    3    3  502    0 -0.13897223513E+02 -0.34910645155E+02 -0.60635389609E+03  0.60753520332E+03  0.47000000000E+01 0. -1.
         11    1    6    6    0    0 -0.69222634476E+01  0.24490291690E+02 -0.10673876280E+03  0.10973083251E+03  0.00000000000E+00 0. -1.
        -12    1    6    6    0    0 -0.27936099681E+02  0.10014426339E+02  0.44121179859E+01  0.30003019605E+02  0.00000000000E+00 0.  1.
         -5    1    5    5    0  503  0.25347401989E+02 -0.78983661445E+02 -0.69882539195E+02  0.10856596542E+03  0.47000000000E+01 0.  1.
<mgrwt>
<rscale>  2 0.17962534E+03</rscale>
<asrwt>0</asrwt>
<pdfrwt beam="1">  1       21 0.69801728E-02 0.17987565E+03</pdfrwt>
<pdfrwt beam="2">  1       21 0.20221650E+00 0.17987565E+03</pdfrwt>
<totfact> 0.19951457E+04</totfact>
</mgrwt>
</event>
<event>
12    1  0.1473662E-001  0.1871564E+03  0.7546771E-02  0.1161273E+00
         21   -1    0    0  504  503  0.00000000000E+00  0.00000000000E+00  0.29061765300E+03  0.29061765300E+03  0.00000000000E+00 0. -1.
         21   -1    0    0  502  504 -0.00000000000E+00 -0.00000000000E+00 -0.12154469942E+03  0.12154469942E+03  0.00000000000E+00 0. -1.
          6    2    1    2  502    0 -0.35599535810E+02 -0.58475106128E+02  0.60425473855E+02  0.19575579619E+03  0.17315434983E+03 0.  0.
         24    2    3    3    0    0 -0.37008365459E+02 -0.54948874555E+02 -0.27901072378E+02  0.10722281996E+03  0.79556680124E+02 0.  0.
         -6    2    1    2    0  503  0.35599535810E+02  0.58475106128E+02  0.10864747972E+03  0.21640655623E+03  0.17418627311E+03 0.  0.
        -24    2    5    5    0    0 -0.14987443687E+02  0.94300762215E+02  0.64503551512E+02  0.14016157917E+03  0.79795381412E+02 0.  0.
          4    1    4    4  501    0 -0.55970806087E+02 -0.29043525771E+02 -0.37933203489E+02  0.73587943647E+02  0.00000000000E+00 0. -1.
         -3    1    4    4    0  501  0.18962440629E+02 -0.25905348784E+02  0.10032131111E+02  0.33634876317E+02  0.00000000000E+00 0.  1.
          5    1    3    3  502    0  0.14088296486E+01 -0.35262315723E+01  0.88326546233E+02  0.88532976227E+02  0.47000000000E+01 0. -1.
         11    1    6    6    0    0  0.20168813083E+02  0.21463668840E+02 -0.90784916898E+01  0.30820271132E+02  0.00000000000E+00 0. -1.
        -12    1    6    6    0    0 -0.35156256770E+02  0.72837093375E+02  0.73582043202E+02  0.10934130804E+03  0.00000000000E+00 0.  1.
         -5    1    5    5    0  503  0.50586979497E+02 -0.35825656088E+02  0.44143928211E+02  0.76244977058E+02  0.47000000000E+01 0.  1.
<mgrwt>
<rscale>  2 0.18691594E+03</rscale>
<asrwt>0</asrwt>
<pdfrwt beam="1">  1       21 0.44710408E-01 0.18715641E+03</pdfrwt>
<pdfrwt beam="2">  1       21 0.18699185E-01 0.18715641E+03</pdfrwt>
<totfact> 0.12586862E+05</totfact>
</mgrwt>
</event>
<event>
12    1  0.1473662E-001  0.2408544E+03  0.7546771E-02  0.1120277E+00
         21   -1    0    0  504  503  0.00000000000E+00  0.00000000000E+00  0.24071593817E+03  0.24071593817E+03  0.00000000000E+00 0.  1.
         21   -1    0    0  502  504 -0.00000000000E+00 -0.00000000000E+00 -0.35951337471E+03  0.35951337471E+03  0.00000000000E+00 0.  1.
          6    2    1    2  502    0 -0.14870825696E+03 -0.78497298630E+02 -0.23565976105E+03  0.33252116338E+03  0.16358126279E+03 0.  0.
         24    2    3    3    0    0 -0.14502389344E+03 -0.94700129568E+02 -0.14421306387E+03  0.23945830994E+03  0.80887762975E+02 0.  0.
         -6    2    1    2    0  503  0.14870825696E+03  0.78497298630E+02  0.11686232452E+03  0.26770814950E+03  0.17243804348E+03 0.  0.
        -24    2    5    5    0    0  0.20002597807E+02  0.32396089891E+02  0.92070677720E+02  0.12868590705E+03  0.81445947834E+02 0.  0.
          4    1    4    4  501    0 -0.13640480459E+03 -0.49480244771E+02 -0.10778059807E+03  0.18075182616E+03  0.00000000000E+00 0. -1.
         -3    1    4    4    0  501 -0.86190888445E+01 -0.45219884798E+02 -0.36432465796E+02  0.58706483778E+02  0.00000000000E+00 0.  1.
          5    1    3    3  502    0 -0.36843635197E+01  0.16202830938E+02 -0.91446697181E+02  0.93062853439E+02  0.47000000000E+01 0. -1.
         11    1    6    6    0    0 -0.27790577095E+02  0.15291496135E+02  0.12068029746E+02  0.33937934105E+02  0.00000000000E+00 0. -1.
        -12    1    6    6    0    0  0.47793174902E+02  0.17104593755E+02  0.80002647974E+02  0.94747972947E+02  0.00000000000E+00 0.  1.
         -5    1    5    5    0  503  0.12870565915E+03  0.46101208740E+02  0.24791646796E+02  0.13902224245E+03  0.47000000000E+01 0.  1.
<mgrwt>
<rscale>  2 0.23927407E+03</rscale>
<asrwt>0</asrwt>
<pdfrwt beam="1">  1       21 0.37033221E-01 0.24085442E+03</pdfrwt>
<pdfrwt beam="2">  1       21 0.55309750E-01 0.24085442E+03</pdfrwt>
<totfact> 0.21107958E+04</totfact>
</mgrwt>
</event>
<event>
12    1  0.1473662E-001  0.1993449E+03  0.7546771E-02  0.1150337E+00
         21   -1    0    0  504  503  0.00000000000E+00  0.00000000000E+00  0.72517112117E+03  0.72517112117E+03  0.00000000000E+00 0. -1.
         21   -1    0    0  502  504 -0.00000000000E+00 -0.00000000000E+00 -0.54850907920E+02  0.54850907920E+02  0.00000000000E+00 0. -1.
          6    2    1    2  502    0  0.97141264243E+02  0.14632139102E+02  0.31759073846E+03  0.37485975787E+03  0.17322077300E+03 0.  0.
         24    2    3    3    0    0  0.26684444932E+02 -0.11241552671E+02  0.27588486723E+03  0.28886510101E+03  0.80573907106E+02 0.  0.
         -6    2    1    2    0  503 -0.97141264243E+02 -0.14632139102E+02  0.35272947479E+03  0.40516227122E+03  0.17345852220E+03 0.  0.
        -24    2    5    5    0    0 -0.10567920592E+03  0.41963904945E+02  0.21635912140E+03  0.25719277459E+03  0.80048672725E+02 0.  0.
          4    1    4    4  501    0  0.86844597993E+01  0.34547533679E+02  0.96864342205E+02  0.10320684433E+03  0.00000000000E+00 0. -1.
         -3    1    4    4    0  501  0.17999985133E+02 -0.45789086349E+02  0.17902052503E+03  0.18565825668E+03  0.00000000000E+00 0.  1.
          5    1    3    3  502    0  0.70456819311E+02  0.25873691772E+02  0.41705871230E+02  0.85994656860E+02  0.47000000000E+01 0. -1.
         11    1    6    6    0    0 -0.28977670955E+02  0.69796287760E+01  0.14100475399E+03  0.14412064834E+03  0.00000000000E+00 0. -1.
        -12    1    6    6    0    0 -0.76701534969E+02  0.34984276169E+02  0.75354367412E+02  0.11307212625E+03  0.00000000000E+00 0.  1.
         -5    1    5    5    0  503  0.85379416813E+01 -0.56596044046E+02  0.13637035339E+03  0.14796949663E+03  0.47000000000E+01 0.  1.
<mgrwt>
<rscale>  2 0.19929316E+03</rscale>
<asrwt>0</asrwt>
<pdfrwt beam="1">  1       21 0.11156478E+00 0.19934489E+03</pdfrwt>
<pdfrwt beam="2">  1       21 0.84386017E-02 0.19934489E+03</pdfrwt>
<totfact> 0.68782222E+04</totfact>
</mgrwt>
</event>
<event>
12    1  0.1473662E-001  0.1966628E+03  0.7546771E-02  0.1153594E+00
         21   -1    0    0  504  503  0.00000000000E+00  0.00000000000E+00  0.23158970350E+03  0.23158970350E+03  0.00000000000E+00 0. -1.
         21   -1    0    0  502  504 -0.00000000000E+00 -0.00000000000E+00 -0.17493541784E+03  0.17493541784E+03  0.00000000000E+00 0.  1.
          6    2    1    2  502    0  0.12298511706E+02  0.89193978934E+02 -0.24841092816E+02  0.19364543732E+03  0.16963094127E+03 0.  0.
         24    2    3    3    0    0  0.43474051607E+02  0.11522224435E+03 -0.37365289965E+02  0.15088645695E+03  0.78768008985E+02 0.  0.
         -6    2    1    2    0  503 -0.12298511706E+02 -0.89193978934E+02  0.81495378478E+02  0.21287968402E+03  0.17484119619E+03 0.  0.
        -24    2    5    5    0    0 -0.72523590918E+02 -0.25512070216E+02  0.51408859818E+02  0.12009103025E+03  0.76605794241E+02 0.  0.
          2    1    4    4  501    0  0.27166866821E+02  0.12443433273E+03 -0.34348604833E+02  0.13191576278E+03  0.00000000000E+00 0. -1.
         -1    1    4    4    0  501  0.16307184786E+02 -0.92120883829E+01 -0.30166851318E+01  0.18970694167E+02  0.00000000000E+00 0.  1.
          5    1    3    3  502    0 -0.31175539901E+02 -0.26028265416E+02  0.12524197149E+02  0.42758980377E+02  0.47000000000E+01 0. -1.
         13    1    6    6    0    0 -0.29130321466E+02 -0.35289329692E+02  0.59313186579E+02  0.74913059749E+02  0.00000000000E+00 0. -1.
        -14    1    6    6    0    0 -0.43393269452E+02  0.97772594764E+01 -0.79043267611E+01  0.45177970496E+02  0.00000000000E+00 0.  1.
         -5    1    5    5    0  503  0.60225079211E+02 -0.63681908718E+02  0.30086518660E+02  0.92788653773E+02  0.47000000000E+01 0.  1.
<mgrwt>
<rscale>  2 0.19549818E+03</rscale>
<asrwt>0</asrwt>
<pdfrwt beam="1">  1       21 0.35629185E-01 0.19666282E+03</pdfrwt>
<pdfrwt beam="2">  1       21 0.26913141E-01 0.19666282E+03</pdfrwt>
<totfact> 0.99728855E+04</totfact>
</mgrwt>
</event>
<event>
12    1  0.1473662E-001  0.1957151E+03  0.7546771E-02  0.1153983E+00
         21   -1    0    0  504  503  0.00000000000E+00  0.00000000000E+00  0.33834430252E+03  0.33834430252E+03  0.00000000000E+00 0. -1.
         21   -1    0    0  502  504 -0.00000000000E+00 -0.00000000000E+00 -0.16604211330E+03  0.16604211330E+03  0.00000000000E+00 0.  1.
          6    2    1    2  502    0  0.89494773098E+02  0.70592913462E+01  0.23004827915E+03  0.30033001133E+03  0.17092909922E+03 0.  0.
         24    2    3    3    0    0  0.66365128760E+02 -0.57128547286E+02  0.10717015054E+03  0.15970219201E+03  0.79695343257E+02 0.  0.
         -6    2    1    2    0  503 -0.89494773098E+02 -0.70592913462E+01 -0.57746089929E+02  0.20405640448E+03  0.17391163648E+03 0.  0.
        -24    2    5    5    0    0  0.22401090317E+02 -0.94441672783E+01 -0.19717642101E+02  0.85757525675E+02  0.79840883368E+02 0.  0.
          2    1    4    4  501    0  0.59920286572E+02 -0.28244816077E+02  0.22421760822E+02  0.69935296785E+02  0.00000000000E+00 0. -1.
         -1    1    4    4    0  501  0.64448421883E+01 -0.28883731209E+02  0.84748389714E+02  0.89766895226E+02  0.00000000000E+00 0.  1.
          5    1    3    3  502    0  0.23129644338E+02  0.64187838633E+02  0.12287812861E+03  0.14062781932E+03  0.47000000000E+01 0. -1.
         11    1    6    6    0    0  0.18726829588E+02 -0.27317889148E+02  0.22313945733E+02  0.39935865936E+02  0.00000000000E+00 0. -1.
        -12    1    6    6    0    0  0.36742607292E+01  0.17873721869E+02 -0.42031587834E+02  0.45821659739E+02  0.00000000000E+00 0.  1.
         -5    1    5    5    0  503 -0.11189586342E+03  0.23848759320E+01 -0.38028447828E+02  0.11829887881E+03  0.47000000000E+01 0.  1.
<mgrwt>
<rscale>  2 0.19505038E+03</rscale>
<asrwt>0</asrwt>
<pdfrwt beam="1">  1       21 0.52052970E-01 0.19571511E+03</pdfrwt>
<pdfrwt beam="2">  1       21 0.25544941E-01 0.19571511E+03</pdfrwt>
<totfact> 0.50840863E+04</totfact>
</mgrwt>
</event>
<event>
12    1  0.1473662E-001  0.1912601E+03  0.7546771E-02  0.1157785E+00
         21   -1    0    0  504  503  0.00000000000E+00  0.00000000000E+00  0.10476780972E+03  0.10476780972E+03  0.00000000000E+00 0. -1.
         21   -1    0    0  502  504 -0.00000000000E+00 -0.00000000000E+00 -0.46377450781E+03  0.46377450781E+03  0.00000000000E+00 0. -1.
          6    2    1    2  502    0  0.41412890087E+02  0.63481722268E+02 -0.32378614523E+03  0.37605568234E+03  0.17560026154E+03 0.  0.
         24    2    3    3    0    0 -0.40577950090E+02  0.26879123759E+02 -0.11170266618E+03  0.14570000046E+03  0.79887090163E+02 0.  0.
         -6    2    1    2    0  503 -0.41412890087E+02 -0.63481722268E+02 -0.35220552861E+02  0.19248663518E+03  0.17339452371E+03 0.  0.
        -24    2    5    5    0    0  0.36831493684E+02 -0.36362201910E+01  0.97691663155E+00  0.87434198237E+02  0.79208608314E+02 0.  0.
          2    1    4    4  501    0 -0.43662867929E+02 -0.18577100160E+02 -0.49191224495E+02  0.68347137859E+02  0.00000000000E+00 0. -1.
         -1    1    4    4    0  501  0.30849178384E+01  0.45456223919E+02 -0.62511441689E+02  0.77352862605E+02  0.00000000000E+00 0.  1.
          5    1    3    3  502    0  0.81990840177E+02  0.36602598509E+02 -0.21208347904E+03  0.23035568188E+03  0.47000000000E+01 0. -1.
         13    1    6    6    0    0 -0.14404631083E+02  0.24547877427E+02 -0.40205988410E+01  0.28744684689E+02  0.00000000000E+00 0. -1.
        -14    1    6    6    0    0  0.51236124767E+02 -0.28184097618E+02  0.49975154725E+01  0.58689513549E+02  0.00000000000E+00 0.  1.
         -5    1    5    5    0  503 -0.78244383771E+02 -0.59845502077E+02 -0.36197469493E+02  0.10505243695E+03  0.47000000000E+01 0.  1.
<mgrwt>
<rscale>  2 0.19075226E+03</rscale>
<asrwt>0</asrwt>
<pdfrwt beam="1">  1       21 0.16118125E-01 0.19126005E+03</pdfrwt>
<pdfrwt beam="2">  1       21 0.71349921E-01 0.19126005E+03</pdfrwt>
<totfact> 0.61150818E+04</totfact>
</mgrwt>
</event>
<event>
12    1  0.1473662E-001  0.1763502E+03  0.7546771E-02  0.1171852E+00
         21   -1    0    0  504  503  0.00000000000E+00  0.00000000000E+00  0.10149464088E+04  0.10149464088E+04  0.00000000000E+00 0. -1.
         21   -1    0    0  502  504 -0.00000000000E+00 -0.00000000000E+00 -0.61898334387E+02  0.61898334387E+02  0.00000000000E+00 0. -1.
          6    2    1    2  502    0 -0.25861073390E+02 -0.23842948420E+02  0.90681953982E+02  0.19663185649E+03  0.17089057581E+03 0.  0.
         24    2    3    3    0    0 -0.50553874441E+01  0.21561640575E+02  0.11525280333E+03  0.14077248031E+03  0.77738158261E+02 0.  0.
         -6    2    1    2    0  503  0.25861073390E+02  0.23842948420E+02  0.86236612041E+03  0.88021288668E+03  0.17280659403E+03 0.  0.
        -24    2    5    5    0    0  0.23052065391E+02 -0.33929722901E+02  0.73095255704E+03  0.73655639808E+03  0.80876839101E+02 0.  0.
          2    1    4    4  501    0  0.32831056799E+02 -0.15362185001E+01  0.29250571469E+02  0.43998115745E+02  0.00000000000E+00 0. -1.
         -1    1    4    4    0  501 -0.37886444243E+02  0.23097859075E+02  0.86002231862E+02  0.96774364562E+02  0.00000000000E+00 0.  1.
          5    1    3    3  502    0 -0.20805685946E+02 -0.45404588995E+02 -0.24570849348E+02  0.55859376180E+02  0.47000000000E+01 0. -1.
         11    1    6    6    0    0  0.41662438817E+02  0.10055459910E+02  0.35971650997E+03  0.36226073294E+03  0.00000000000E+00 0. -1.
        -12    1    6    6    0    0 -0.18610373426E+02 -0.43985182811E+02  0.37123604706E+03  0.37429566514E+03  0.00000000000E+00 0.  1.
         -5    1    5    5    0  503  0.28090079997E+01  0.57772671321E+02  0.13141356337E+03  0.14365648860E+03  0.47000000000E+01 0.  1.
<mgrwt>
<rscale>  2 0.17587906E+03</rscale>
<asrwt>0</asrwt>
<pdfrwt beam="1">  1       21 0.15614559E+00 0.17635022E+03</pdfrwt>
<pdfrwt beam="2">  1       21 0.95228214E-02 0.17635022E+03</pdfrwt>
<totfact> 0.24031530E+04</totfact>
</mgrwt>
</event>
<event>
12    1  0.1473662E-001  0.1759847E+03  0.7546771E-02  0.1173235E+00
         21   -1    0    0  504  503  0.00000000000E+00  0.00000000000E+00  0.10867468724E+04  0.10867468724E+04  0.00000000000E+00 0. -1.
         21   -1    0    0  502  504 -0.00000000000E+00 -0.00000000000E+00 -0.54902147662E+02  0.54902147662E+02  0.00000000000E+00 0. -1.
          6    2    1    2  502    0 -0.31767377253E+02  0.16045451509E+02  0.11748291792E+03  0.21159596434E+03  0.17234846488E+03 0.  0.
         24    2    3    3    0    0 -0.15695712116E+02  0.59066587857E+02  0.12948604167E+03  0.16389605267E+03  0.79750008869E+02 0.  0.
         -6    2    1    2    0  503  0.31767377253E+02 -0.16045451509E+02  0.91436180686E+03  0.93005305577E+03  0.16635669489E+03 0.  0.
        -24    2    5    5    0    0  0.82602640510E+02 -0.44585540889E+01  0.70242568366E+03  0.71174709961E+03  0.79617949005E+02 0.  0.
          4    1    4    4  501    0 -0.47306584770E+02  0.33236529135E+02  0.60113684978E+02  0.83404046384E+02  0.00000000000E+00 0. -1.
         -3    1    4    4    0  501  0.31610872654E+02  0.25830058722E+02  0.69372356692E+02  0.80492006290E+02  0.00000000000E+00 0.  1.
          5    1    3    3  502    0 -0.16071665137E+02 -0.43021136348E+02 -0.12003123745E+02  0.47699911662E+02  0.47000000000E+01 0. -1.
         13    1    6    6    0    0 -0.61567253464E+01  0.17795452772E+02  0.21374172551E+03  0.21456958925E+03  0.00000000000E+00 0. -1.
        -14    1    6    6    0    0  0.88759365856E+02 -0.22254006861E+02  0.48868395815E+03  0.49717751035E+03  0.00000000000E+00 0.  1.
         -5    1    5    5    0  503 -0.50835263256E+02 -0.11586897420E+02  0.21193612320E+03  0.21830595617E+03  0.47000000000E+01 0.  1.
<mgrwt>
<rscale>  2 0.17450011E+03</rscale>
<asrwt>0</asrwt>
<pdfrwt beam="1">  1       21 0.16719181E+00 0.17598470E+03</pdfrwt>
<pdfrwt beam="2">  1       21 0.84464851E-02 0.17598470E+03</pdfrwt>
<totfact> 0.24662253E+04</totfact>
</mgrwt>
</event>
<event>
12    1  0.1473662E-001  0.1824952E+03  0.7546771E-02  0.1165610E+00
         21   -1    0    0  504  503  0.00000000000E+00  0.00000000000E+00  0.16495241778E+04  0.16495241778E+04  0.00000000000E+00 0.  1.
         21   -1    0    0  502  504 -0.00000000000E+00 -0.00000000000E+00 -0.79883364968E+02  0.79883364968E+02  0.00000000000E+00 0. -1.
          6    2    1    2  502    0 -0.53643762340E+02  0.25623791547E+02  0.37213262237E+02  0.18625068602E+03  0.17254060167E+03 0.  0.
         24    2    3    3    0    0 -0.45924053406E+02  0.22574884322E+02  0.91916255912E+02  0.13072233958E+03  0.77595669210E+02 0.  0.
         -6    2    1    2    0  503  0.53643762340E+02 -0.25623791547E+02  0.15324275506E+04  0.15431568567E+04  0.17165271564E+03 0.  0.
        -24    2    5    5    0    0  0.85302032301E+02 -0.25928625125E+02  0.71095636589E+03  0.72106237540E+03  0.80766730110E+02 0.  0.
          2    1    4    4  501    0 -0.16710420947E+02 -0.29084638930E+02  0.35448221301E+02  0.48802979246E+02  0.00000000000E+00 0. -1.
         -1    1    4    4    0  501 -0.29213632459E+02  0.51659523252E+02  0.56468034611E+02  0.81919360330E+02  0.00000000000E+00 0.  1.
          5    1    3    3  502    0 -0.77197089340E+01  0.30489072249E+01 -0.54702993675E+02  0.55528346440E+02  0.47000000000E+01 0. -1.
         13    1    6    6    0    0  0.18664820639E+02  0.52389057587E+01  0.27432864121E+02  0.33591422966E+02  0.00000000000E+00 0. -1.
        -14    1    6    6    0    0  0.66637211662E+02 -0.31167530884E+02  0.68352350177E+03  0.68747095243E+03  0.00000000000E+00 0.  1.
         -5    1    5    5    0  503 -0.31658269961E+02  0.30483357799E+00  0.82147118466E+03  0.82209448131E+03  0.47000000000E+01 0.  1.
<mgrwt>
<rscale>  2 0.18228501E+03</rscale>
<asrwt>0</asrwt>
<pdfrwt beam="1">  1       21 0.25377293E+00 0.18249518E+03</pdfrwt>
<pdfrwt beam="2">  1       21 0.12289750E-01 0.18249518E+03</pdfrwt>
<totfact> 0.35932945E+03</totfact>
</mgrwt>
</event>
<event>
12    1  0.1473662E-001  0.2175616E+03  0.7546771E-02  0.1135872E+00
         21   -1    0    0  504  503  0.00000000000E+00  0.00000000000E+00  0.16211786575E+03  0.16211786575E+03  0.00000000000E+00 0. -1.
         21   -1    0    0  502  504 -0.00000000000E+00 -0.00000000000E+00 -0.29337257081E+03  0.29337257081E+03  0.00000000000E+00 0. -1.
          6    2    1    2  502    0 -0.11887035680E+03  0.52174719088E+02 -0.44373246544E+02  0.22122260118E+03  0.17354564595E+03 0.  0.
         24    2    3    3    0    0 -0.49203293628E+01 -0.18869876960E+02 -0.28873071044E+02  0.85966219369E+02  0.78589151563E+02 0.  0.
         -6    2    1    2    0  503  0.11887035680E+03 -0.52174719088E+02 -0.86881458520E+02  0.23426783538E+03  0.17458713533E+03 0.  0.
        -24    2    5    5    0    0  0.37301230126E+00 -0.42081284315E+02 -0.72639069733E+02  0.11439943372E+03  0.77716294021E+02 0.  0.
          4    1    4    4  501    0 -0.33674595889E+02 -0.19951945454E+01  0.95844824072E+01  0.35068811109E+02  0.00000000000E+00 0. -1.
         -3    1    4    4    0  501  0.28754266526E+02 -0.16874682415E+02 -0.38457553452E+02  0.50897408260E+02  0.00000000000E+00 0.  1.
          5    1    3    3  502    0 -0.11395002744E+03  0.71044596049E+02 -0.15500175500E+02  0.13525638181E+03  0.47000000000E+01 0. -1.
         11    1    6    6    0    0  0.13018127473E+02 -0.87763869267E+01  0.13802530366E+02  0.20904699349E+02  0.00000000000E+00 0. -1.
        -12    1    6    6    0    0 -0.12645115171E+02 -0.33304897388E+02 -0.86441600098E+02  0.93494734372E+02  0.00000000000E+00 0.  1.
         -5    1    5    5    0  503  0.11849734450E+03 -0.10093434773E+02 -0.14242388787E+02  0.11986840166E+03  0.47000000000E+01 0.  1.
<mgrwt>
<rscale>  2 0.21735254E+03</rscale>
<asrwt>0</asrwt>
<pdfrwt beam="1">  1       21 0.24941210E-01 0.21756156E+03</pdfrwt>
<pdfrwt beam="2">  1       21 0.45134241E-01 0.21756156E+03</pdfrwt>
<totfact> 0.70886173E+04</totfact>
</mgrwt>
</event>
<event>
12    1  0.1473662E-001  0.2378674E+03  0.7546771E-02  0.1121284E+00
         21   -1    0    0  504  503  0.00000000000E+00  0.00000000000E+00  0.18702659981E+03  0.18702659981E+03  0.00000000000E+00 0. -1.
         21   -1    0    0  502  504 -0.00000000000E+00 -0.00000000000E+00 -0.64201274034E+03  0.64201274034E+03  0.00000000000E+00 0. -1.
          6    2    1    2  502    0 -0.10443692055E+03  0.12665156980E+03 -0.52904652318E+03  0.57990917136E+03  0.17162963856E+03 0.  0.
         24    2    3    3    0    0 -0.13718624272E+03  0.89174011657E+02 -0.45589407667E+03  0.49130637289E+03  0.82282886140E+02 0.  0.
         -6    2    1    2    0  503  0.10443692055E+03 -0.12665156980E+03  0.74060382650E+02  0.24913016878E+03  0.17214299350E+03 0.  0.
        -24    2    5    5    0    0  0.13480840669E+03 -0.12903923386E+03  0.49014645464E+02  0.20941232567E+03  0.81404276804E+02 0.  0.
          2    1    4    4  501    0 -0.93089467256E+02  0.81595193887E+02 -0.40522001682E+03  0.42370589636E+03  0.00000000000E+00 0. -1.
         -1    1    4    4    0  501 -0.44096775462E+02  0.75788177700E+01 -0.50674059847E+02  0.67600476524E+02  0.00000000000E+00 0.  1.
          5    1    3    3  502    0  0.32749322168E+02  0.37477558143E+02 -0.73152446511E+02  0.88602798474E+02  0.47000000000E+01 0. -1.
         13    1    6    6    0    0  0.92568246547E+02 -0.97644002905E+02 -0.41381200019E+01  0.13461187024E+03  0.00000000000E+00 0. -1.
        -14    1    6    6    0    0  0.42240160148E+02 -0.31395230953E+02  0.53152765466E+02  0.74800455430E+02  0.00000000000E+00 0.  1.
         -5    1    5    5    0  503 -0.30371486146E+02  0.23876640572E+01  0.25045737186E+02  0.39717843113E+02  0.47000000000E+01 0.  1.
<mgrwt>
<rscale>  2 0.23777454E+03</rscale>
<asrwt>0</asrwt>
<pdfrwt beam="1">  1       21 0.28773323E-01 0.23786740E+03</pdfrwt>
<pdfrwt beam="2">  1       21 0.98771192E-01 0.23786740E+03</pdfrwt>
<totfact> 0.94818953E+03</totfact>
</mgrwt>
</event>
<event>
12    1  0.1473662E-001  0.2356956E+03  0.7546771E-02  0.1122787E+00
         21   -1    0    0  504  503  0.00000000000E+00  0.00000000000E+00  0.45105998718E+03  0.45105998718E+03  0.00000000000E+00 0. -1.
         21   -1    0    0  502  504 -0.00000000000E+00 -0.00000000000E+00 -0.12311191464E+03  0.12311191464E+03  0.00000000000E+00 0. -1.
          6    2    1    2  502    0 -0.13595660296E+03 -0.84251484386E+02  0.15120964457E+03  0.27957239239E+03  0.17237707349E+03 0.  0.
         24    2    3    3    0    0 -0.74642155841E+02 -0.19701391872E+02  0.15379715731E+03  0.19038180381E+03  0.81437518096E+02 0.  0.
         -6    2    1    2    0  503  0.13595660296E+03  0.84251484386E+02  0.17673842798E+03  0.29459950943E+03  0.17311813460E+03 0.  0.
        -24    2    5    5    0    0  0.14329689357E+03  0.68488523668E+02  0.19817557534E+03  0.26659965079E+03  0.81099553371E+02 0.  0.
          4    1    4    4  501    0 -0.81500037591E+01 -0.37555428365E+02  0.83845700399E+02  0.92233043083E+02  0.00000000000E+00 0. -1.
         -3    1    4    4    0  501 -0.66492152082E+02  0.17854036492E+02  0.69951456911E+02  0.98148760724E+02  0.00000000000E+00 0.  1.
          5    1    3    3  502    0 -0.61314447120E+02 -0.64550092514E+02 -0.25875127381E+01  0.89190588581E+02  0.47000000000E+01 0. -1.
         13    1    6    6    0    0  0.52298086284E+02  0.69619192822E+02  0.10396848327E+03  0.13561477556E+03  0.00000000000E+00 0. -1.
        -14    1    6    6    0    0  0.90998807291E+02 -0.11306691544E+01  0.94207092075E+02  0.13098487523E+03  0.00000000000E+00 0.  1.
         -5    1    5    5    0  503 -0.73402906140E+01  0.15762960719E+02 -0.21437147366E+02  0.27999858645E+02  0.47000000000E+01 0.  1.
<mgrwt>
<rscale>  2 0.23555950E+03</rscale>
<asrwt>0</asrwt>
<pdfrwt beam="1">  1       21 0.69393843E-01 0.23569556E+03</pdfrwt>
<pdfrwt beam="2">  1       21 0.18940295E-01 0.23569556E+03</pdfrwt>
<totfact> 0.47284422E+04</totfact>
</mgrwt>
</event>
<event>
12    1  0.1473662E-001  0.1752436E+03  0.7546771E-02  0.1172545E+00
         21   -1    0    0  504  503  0.00000000000E+00  0.00000000000E+00  0.28868679848E+02  0.28868679848E+02  0.00000000000E+00 0.  1.
         21   -1    0    0  502  504 -0.00000000000E+00 -0.00000000000E+00 -0.12400485284E+04  0.12400485284E+04  0.00000000000E+00 0.  1.
          6    2    1    2  502    0  0.88136790499E+01 -0.24718919532E+02 -0.84539517969E+03  0.86332044127E+03  0.17303314290E+03 0.  0.
         24    2    3    3    0    0  0.42743357610E+02 -0.70523108019E+02 -0.47945851622E+03  0.49294093530E+03  0.79434208824E+02 0.  0.
         -6    2    1    2    0  503 -0.88136790499E+01  0.24718919532E+02 -0.36578466885E+03  0.40559676697E+03  0.17326744498E+03 0.  0.
        -24    2    5    5    0    0 -0.86780850400E+01  0.82328846308E+02 -0.24825322941E+03  0.27462100087E+03  0.83268722288E+02 0.  0.
          2    1    4    4  501    0  0.13106099907E+02 -0.59072935988E+02 -0.14698487910E+03  0.15895262283E+03  0.00000000000E+00 0. -1.
         -1    1    4    4    0  501  0.29637257704E+02 -0.11450172030E+02 -0.33247363712E+03  0.33398831247E+03  0.00000000000E+00 0.  1.
          5    1    3    3  502    0 -0.33929678560E+02  0.45804188487E+02 -0.36593666347E+03  0.37037950597E+03  0.47000000000E+01 0. -1.
         13    1    6    6    0    0  0.16237534824E+02  0.30414966495E+02 -0.18853851927E+03  0.19166507500E+03  0.00000000000E+00 0. -1.
        -14    1    6    6    0    0 -0.24915619864E+02  0.51913879813E+02 -0.59714710137E+02  0.82955925872E+02  0.00000000000E+00 0.  1.
         -5    1    5    5    0  503 -0.13559400991E+00 -0.57609926777E+02 -0.11753143944E+03  0.13097576610E+03  0.47000000000E+01 0.  1.
<mgrwt>
<rscale>  2 0.17518564E+03</rscale>
<asrwt>0</asrwt>
<pdfrwt beam="1">  1       21 0.44413355E-02 0.17524358E+03</pdfrwt>
<pdfrwt beam="2">  1       21 0.19077669E+00 0.17524358E+03</pdfrwt>
<totfact> 0.51228004E+04</totfact>
</mgrwt>
</event>
<event>
12    1  0.1473662E-001  0.1898263E+03  0.7546771E-02  0.1158940E+00
         21   -1    0    0  504  503  0.00000000000E+00  0.00000000000E+00  0.17654233417E+04  0.17654233417E+04  0.00000000000E+00 0.  1.
         21   -1    0    0  502  504 -0.00000000000E+00 -0.00000000000E+00 -0.26135198586E+02  0.26135198586E+02  0.00000000000E+00 0. -1.
          6    2    1    2  502    0  0.72738903942E+02 -0.13391237936E+02  0.44235596014E+03  0.48080795325E+03  0.17328363753E+03 0.  0.
         24    2    3    3    0    0 -0.14172889534E+02 -0.31698926792E+02  0.30340020278E+03  0.31582424551E+03  0.80545504192E+02 0.  0.
         -6    2    1    2    0  503 -0.72738903942E+02  0.13391237936E+02  0.12969321830E+04  0.13107505871E+04  0.17482488605E+03 0.  0.
        -24    2    5    5    0    0 -0.10166380954E+03 -0.24098690553E+02  0.73234754215E+03  0.74416427273E+03  0.80816243807E+02 0.  0.
          2    1    4    4  501    0 -0.10313504959E+02 -0.58576390842E+02  0.22989079209E+03  0.23746018243E+03  0.00000000000E+00 0. -1.
         -1    1    4    4    0  501 -0.38593845754E+01  0.26877464050E+02  0.73509410687E+02  0.78364063082E+02  0.00000000000E+00 0.  1.
          5    1    3    3  502    0  0.86911793476E+02  0.18307688856E+02  0.13895575736E+03  0.16498370774E+03  0.47000000000E+01 0. -1.
         11    1    6    6    0    0 -0.94083335404E+02  0.11634234256E+02  0.56257582958E+03  0.57050731234E+03  0.00000000000E+00 0. -1.
        -12    1    6    6    0    0 -0.75804741334E+01 -0.35732924809E+02  0.16977171257E+03  0.17365696039E+03  0.00000000000E+00 0.  1.
         -5    1    5    5    0  503  0.28924905595E+02  0.37489928489E+02  0.56458464086E+03  0.56658631434E+03  0.47000000000E+01 0.  1.
<mgrwt>
<rscale>  2 0.18947065E+03</rscale>
<asrwt>0</asrwt>
<pdfrwt beam="1">  1       21 0.27160350E+00 0.18982627E+03</pdfrwt>
<pdfrwt beam="2">  1       21 0.40208012E-02 0.18982627E+03</pdfrwt>
<totfact> 0.19380498E+04</totfact>
</mgrwt>
</event>
<event>
12    1  0.1473662E-001  0.2440358E+03  0.7546771E-02  0.1117347E+00
         21   -1    0    0  504  503  0.00000000000E+00  0.00000000000E+00  0.78724033947E+03  0.78724033947E+03  0.00000000000E+00 0.  1.
         21   -1    0    0  502  504 -0.00000000000E+00 -0.00000000000E+00 -0.13997676514E+03  0.13997676514E+03  0.00000000000E+00 0. -1.
          6    2    1    2  502    0  0.24766593953E+01 -0.17089180744E+03  0.78881326914E+01  0.24285286626E+03  0.17235181555E+03 0.  0.
         24    2    3    3    0    0 -0.35311983310E+02 -0.64075864748E+01  0.83208981529E+01  0.74017687025E+02  0.64198032032E+02 0.  0.
         -6    2    1    2    0  503 -0.24766593953E+01  0.17089180744E+03  0.63937544164E+03  0.68436423835E+03  0.17419331694E+03 0.  0.
        -24    2    5    5    0    0  0.31519437780E+02  0.17117371306E+03  0.60922921517E+03  0.63868383703E+03  0.80392114469E+02 0.  0.
          4    1    4    4  501    0 -0.38711843650E+02 -0.10710643717E+01 -0.20977868293E+02  0.44043444186E+02  0.00000000000E+00 0. -1.
         -3    1    4    4    0  501  0.33998603395E+01 -0.53365221031E+01  0.29298766446E+02  0.29974242839E+02  0.00000000000E+00 0.  1.
          5    1    3    3  502    0  0.37788642706E+02 -0.16448422096E+03 -0.43276546152E+00  0.16883517924E+03  0.47000000000E+01 0. -1.
         11    1    6    6    0    0 -0.37054817101E+01  0.22910770601E+02  0.21910930982E+02  0.31917438818E+02  0.00000000000E+00 0. -1.
        -12    1    6    6    0    0  0.35224919490E+02  0.14826294246E+03  0.58731828419E+03  0.60676639822E+03  0.00000000000E+00 0.  1.
         -5    1    5    5    0  503 -0.33996097176E+02 -0.28190562084E+00  0.30146226469E+02  0.45680401315E+02  0.47000000000E+01 0.  1.
<mgrwt>
<rscale>  2 0.24370734E+03</rscale>
<asrwt>0</asrwt>
<pdfrwt beam="1">  1       21 0.12111390E+00 0.24403577E+03</pdfrwt>
<pdfrwt beam="2">  1       21 0.21534887E-01 0.24403577E+03</pdfrwt>
<totfact> 0.10024882E+04</totfact>
</mgrwt>
</event>
<event>
12    1  0.1473662E-001  0.1948202E+03  0.7546771E-02  0.1154317E+00
         21   -1    0    0  504  503  0.00000000000E+00  0.00000000000E+00  0.39496205211E+02  0.39496205211E+02  0.00000000000E+00 0.  1.
         21   -1    0    0  502  504 -0.00000000000E+00 -0.00000000000E+00 -0.16766169585E+04  0.16766169585E+04  0.00000000000E+00 0.  1.
          6    2    1    2  502    0  0.24547354812E+02 -0.84248896459E+02 -0.13795928339E+04  0.13931959125E+04  0.17325707493E+03 0.  0.
         24    2    3    3    0    0 -0.12836983927E+02 -0.52809236805E+02 -0.12633449284E+04  0.12670146678E+04  0.79574848956E+02 0.  0.
         -6    2    1    2    0  503 -0.24547354812E+02  0.84248896459E+02 -0.25752791938E+03  0.32291725123E+03  0.17393812893E+03 0.  0.
        -24    2    5    5    0    0 -0.49194162000E+02  0.94573822508E+02 -0.26162106964E+03  0.29547798955E+03  0.86587439925E+02 0.  0.
          2    1    4    4  501    0 -0.28427132596E+02 -0.51456282009E+02 -0.49034028930E+03  0.49385164790E+03  0.00000000000E+00 0. -1.
         -1    1    4    4    0  501  0.15590148668E+02 -0.13529547961E+01 -0.77300463911E+03  0.77316301988E+03  0.00000000000E+00 0.  1.
          5    1    3    3  502    0  0.37384338739E+02 -0.31439659654E+02 -0.11624790548E+03  0.12618124469E+03  0.47000000000E+01 0. -1.
         13    1    6    6    0    0 -0.73000434588E+02  0.67467687694E+02 -0.16881620794E+03  0.19590779565E+03  0.00000000000E+00 0. -1.
        -14    1    6    6    0    0  0.23806272589E+02  0.27106134814E+02 -0.92804861697E+02  0.99570193902E+02  0.00000000000E+00 0.  1.
         -5    1    5    5    0  503  0.24646807187E+02 -0.10324926049E+02  0.40931502518E+01  0.27439261678E+02  0.47000000000E+01 0.  1.
<mgrwt>
<rscale>  2 0.19466810E+03</rscale>
<asrwt>0</asrwt>
<pdfrwt beam="1">  1       21 0.60763397E-02 0.19482023E+03</pdfrwt>
<pdfrwt beam="2">  1       21 0.25794105E+00 0.19482023E+03</pdfrwt>
<totfact> 0.11502855E+04</totfact>
</mgrwt>
</event>
<event>
12    1  0.1473662E-001  0.1884741E+03  0.7546771E-02  0.1162672E+00
         21   -1    0    0  504  503  0.00000000000E+00  0.00000000000E+00  0.13242057699E+03  0.13242057699E+03  0.00000000000E+00 0.  1.
         21   -1    0    0  502  504 -0.00000000000E+00 -0.00000000000E+00 -0.32684613957E+03  0.32684613957E+03  0.00000000000E+00 0.  1.
          6    2    1    2  502    0 -0.28362939890E+02 -0.20879629521E+02  0.10556589564E+02  0.18876954604E+03  0.18515421853E+03 0.  0.
         24    2    3    3    0    0  0.44673593857E+02  0.10903211371E+02 -0.31420436782E+02  0.98610547722E+02  0.81376816528E+02 0.  0.
         -6    2    1    2    0  503  0.28362939890E+02  0.20879629521E+02 -0.20498215214E+03  0.27049717052E+03  0.17294687413E+03 0.  0.
        -24    2    5    5    0    0  0.58371959483E+02  0.38819201440E+02 -0.20947944113E+03  0.23493475910E+03  0.79990553947E+02 0.  0.
          2    1    4    4  501    0  0.14907305522E+02 -0.24373876987E+02 -0.42435097227E+02  0.51157121830E+02  0.00000000000E+00 0. -1.
         -1    1    4    4    0  501  0.29766288335E+02  0.35277088357E+02  0.11014660444E+02  0.47453425892E+02  0.00000000000E+00 0.  1.
          5    1    3    3  502    0 -0.73036533746E+02 -0.31782840892E+02  0.41977026346E+02  0.90158998318E+02  0.47000000000E+01 0. -1.
         11    1    6    6    0    0 -0.13731356604E+02  0.20387431685E+02 -0.21125707773E+02  0.32411310585E+02  0.00000000000E+00 0. -1.
        -12    1    6    6    0    0  0.72103316087E+02  0.18431769755E+02 -0.18835373336E+03  0.20252344851E+03  0.00000000000E+00 0.  1.
         -5    1    5    5    0  503 -0.30009019593E+02 -0.17939571919E+02  0.44972889921E+01  0.35562411418E+02  0.47000000000E+01 0.  1.
<mgrwt>
<rscale>  2 0.18540562E+03</rscale>
<asrwt>0</asrwt>
<pdfrwt beam="1">  1       21 0.20372397E-01 0.18847414E+03</pdfrwt>
<pdfrwt beam="2">  1       21 0.50284021E-01 0.18847414E+03</pdfrwt>
<totfact> 0.84117871E+04</totfact>
</mgrwt>
</event>
<event>
12    1  0.1473662E-001  0.1869300E+03  0.7546771E-02  0.1161717E+00
         21   -1    0    0  504  503  0.00000000000E+00  0.00000000000E+00  0.45863404854E+03  0.45863404854E+03  0.00000000000E+00 0.  1.
         21   -1    0    0  502  504 -0.00000000000E+00 -0.00000000000E+00 -0.93346571104E+02  0.93346571104E+02  0.00000000000E+00 0.  1.
          6    2    1    2  502    0  0.71161975344E+02  0.57430348512E+01  0.62370586084E+02  0.19706070527E+03  0.17275943496E+03 0.  0.
         24    2    3    3    0    0  0.53407302418E+02 -0.36842696591E+02 -0.19294167111E+02  0.10314587764E+03  0.77827263516E+02 0.  0.
         -6    2    1    2    0  503 -0.71161975344E+02 -0.57430348512E+01  0.30291689135E+03  0.35491991438E+03  0.17062383588E+03 0.  0.
        -24    2    5    5    0    0 -0.63076922809E+02 -0.46392050017E+02  0.29050883440E+03  0.31140255709E+03  0.80282309387E+02 0.  0.
          4    1    4    4  501    0 -0.11262308119E+02 -0.34147487959E+02 -0.12486319489E+02  0.38063088320E+02  0.00000000000E+00 0. -1.
         -3    1    4    4    0  501  0.64669610537E+02 -0.26952086315E+01 -0.68078476220E+01  0.65082789321E+02  0.00000000000E+00 0.  1.
          5    1    3    3  502    0  0.17754672926E+02  0.42585731442E+02  0.81664753195E+02  0.93914827624E+02  0.47000000000E+01 0. -1.
         13    1    6    6    0    0  0.82798800996E+01 -0.15868794031E+00 -0.43154864596E+00  0.82926371294E+01  0.00000000000E+00 0. -1.
        -14    1    6    6    0    0 -0.71356802908E+02 -0.46233362076E+02  0.29094038304E+03  0.30310991996E+03  0.00000000000E+00 0.  1.
         -5    1    5    5    0  503 -0.80850525355E+01  0.40649015166E+02  0.12408056955E+02  0.43517357294E+02  0.47000000000E+01 0.  1.
<mgrwt>
<rscale>  2 0.18643508E+03</rscale>
<asrwt>0</asrwt>
<pdfrwt beam="1">  1       21 0.70559083E-01 0.18693002E+03</pdfrwt>
<pdfrwt beam="2">  1       21 0.14361011E-01 0.18693002E+03</pdfrwt>
<totfact> 0.77489084E+04</totfact>
</mgrwt>
</event>
<event>
12    1  0.1473662E-001  0.2009756E+03  0.7546771E-02  0.1149057E+00
         21   -1    0    0  504  503  0.00000000000E+00  0.00000000000E+00  0.23890828871E+02  0.23890828871E+02  0.00000000000E+00 0. -1.
         21   -1    0    0  502  504 -0.00000000000E+00 -0.00000000000E+00 -0.20819222293E+04  0.20819222293E+04  0.00000000000E+00 0. -1.
          6    2    1    2  502    0  0.10017235318E+03 -0.14652898720E+02 -0.56796163110E+03  0.60225091247E+03  0.17284831325E+03 0.  0.
         24    2    3    3    0    0  0.35172095357E+02 -0.18854889160E+02 -0.49842577524E+03  0.50685691114E+03  0.82964400848E+02 0.  0.
         -6    2    1    2    0  503 -0.10017235318E+03  0.14652898720E+02 -0.14900697694E+04  0.15035621457E+04  0.17361451760E+03 0.  0.
        -24    2    5    5    0    0 -0.35898264866E+02  0.63873741579E+02 -0.59753793211E+03  0.60735401125E+03  0.80366500397E+02 0.  0.
          2    1    4    4  501    0  0.30325191142E+02  0.29665963798E+02 -0.26705694276E+03  0.27040543134E+03  0.00000000000E+00 0. -1.
         -1    1    4    4    0  501  0.48469042152E+01 -0.48520852958E+02 -0.23136883248E+03  0.23645147979E+03  0.00000000000E+00 0.  1.
          5    1    3    3  502    0  0.65000257823E+02  0.42019904400E+01 -0.69535855861E+02  0.95394001337E+02  0.47000000000E+01 0. -1.
         11    1    6    6    0    0 -0.61875855060E+01  0.34512901242E+02 -0.50025908997E+03  0.50148637435E+03  0.00000000000E+00 0. -1.
        -12    1    6    6    0    0 -0.29710679360E+02  0.29360840337E+02 -0.97278842141E+02  0.10586763689E+03  0.00000000000E+00 0.  1.
         -5    1    5    5    0  503 -0.64274088314E+02 -0.49220842859E+02 -0.89253183726E+03  0.89620813448E+03  0.47000000000E+01 0.  1.
<mgrwt>
<rscale>  2 0.20081006E+03</rscale>
<asrwt>0</asrwt>
<pdfrwt beam="1">  1       21 0.36755111E-02 0.20097564E+03</pdfrwt>
<pdfrwt beam="2">  1       21 0.32029582E+00 0.20097564E+03</pdfrwt>
<totfact> 0.11662905E+04</totfact>
</mgrwt>
</event>
<event>
12    1  0.1473662E-001  0.2210390E+03  0.7546771E-02  0.1133547E+00
         21   -1    0    0  504  503  0.00000000000E+00  0.00000000000E+00  0.92999164164E+03  0.92999164164E+03  0.00000000000E+00 0. -1.
         21   -1    0    0  502  504 -0.00000000000E+00 -0.00000000000E+00 -0.52397834770E+02  0.52397834770E+02  0.00000000000E+00 0.  1.
          6    2    1    2  502    0  0.88680413049E+02  0.10350367227E+03  0.48026618947E+03  0.52771653730E+03  0.17103188347E+03 0.  0.
         24    2    3    3    0    0  0.49142517631E+02  0.93747154495E+02  0.17972476320E+03  0.22439216684E+03  0.82748643594E+02 0.  0.
         -6    2    1    2    0  503 -0.88680413049E+02 -0.10350367227E+03  0.39732761741E+03  0.45467293911E+03  0.17401442519E+03 0.  0.
        -24    2    5    5    0    0  0.23994687874E+01 -0.65648546270E+02  0.29223029323E+03  0.31046443385E+03  0.81695356831E+02 0.  0.
          2    1    4    4  501    0 -0.22215853143E+02  0.11090673398E+02  0.27495474524E+02  0.37047918789E+02  0.00000000000E+00 0. -1.
         -1    1    4    4    0  501  0.71358370774E+02  0.82656481097E+02  0.15222928868E+03  0.18734424805E+03  0.00000000000E+00 0.  1.
          5    1    3    3  502    0  0.39537895419E+02  0.97565177768E+01  0.30054142627E+03  0.30332437046E+03  0.47000000000E+01 0. -1.
         11    1    6    6    0    0  0.38212082411E+02 -0.12206040090E+02  0.99553610579E+02  0.10733159850E+03  0.00000000000E+00 0. -1.
        -12    1    6    6    0    0 -0.35812613623E+02 -0.53442506180E+02  0.19267668265E+03  0.20313283536E+03  0.00000000000E+00 0.  1.
         -5    1    5    5    0  503 -0.91079881837E+02 -0.37855126002E+02  0.10509732417E+03  0.14420850526E+03  0.47000000000E+01 0.  1.
<mgrwt>
<rscale>  2 0.22045160E+03</rscale>
<asrwt>0</asrwt>
<pdfrwt beam="1">  1       21 0.14307562E+00 0.22103901E+03</pdfrwt>
<pdfrwt beam="2">  1       21 0.80612060E-02 0.22103901E+03</pdfrwt>
<totfact> 0.39413207E+04</totfact>
</mgrwt>
</event>
<event>
12    1  0.1473662E-001  0.1888663E+03  0.7546771E-02  0.1159852E+00
         21   -1    0    0  504  503  0.00000000000E+00  0.00000000000E+00  0.39764478764E+02  0.39764478764E+02  0.00000000000E+00 0.  1.
         21   -1    0    0  502  504 -0.00000000000E+00 -0.00000000000E+00 -0.10252558530E+04  0.10252558530E+04  0.00000000000E+00 0.  1.
          6    2    1    2  502    0  0.26270939042E+02 -0.69713237460E+02 -0.68834126595E+03  0.71378159090E+03  0.17355219214E+03 0.  0.
         24    2    3    3    0    0 -0.48109489485E+02 -0.64624876696E+02 -0.38975472969E+03  0.40599213495E+03  0.80187072898E+02 0.  0.
         -6    2    1    2    0  503 -0.26270939042E+02  0.69713237460E+02 -0.29715010832E+03  0.35123874089E+03  0.17181492517E+03 0.  0.
        -24    2    5    5    0    0 -0.46515849265E+02 -0.11497034208E+02 -0.21293594597E+03  0.23241500692E+03  0.79869345351E+02 0.  0.
          2    1    4    4  501    0 -0.59725924673E+02 -0.13834196068E+02 -0.22431606578E+03  0.23254304640E+03  0.00000000000E+00 0. -1.
         -1    1    4    4    0  501  0.11616435188E+02 -0.50790680628E+02 -0.16543866391E+03  0.17344908855E+03  0.00000000000E+00 0.  1.
          5    1    3    3  502    0  0.74380428527E+02 -0.50883607647E+01 -0.29858653626E+03  0.30778945595E+03  0.47000000000E+01 0. -1.
         11    1    6    6    0    0 -0.29879044271E+02  0.20088271748E+02 -0.32569493808E+02  0.48549643410E+02  0.00000000000E+00 0. -1.
        -12    1    6    6    0    0 -0.16636804994E+02 -0.31585305955E+02 -0.18036645217E+03  0.18386536351E+03  0.00000000000E+00 0.  1.
         -5    1    5    5    0  503  0.20244910223E+02  0.81210271668E+02 -0.84214162349E+02  0.11882373397E+03  0.47000000000E+01 0.  1.
<mgrwt>
<rscale>  2 0.18846620E+03</rscale>
<asrwt>0</asrwt>
<pdfrwt beam="1">  1       21 0.61176116E-02 0.18886625E+03</pdfrwt>
<pdfrwt beam="2">  1       21 0.15773168E+00 0.18886625E+03</pdfrwt>
<totfact> 0.49994757E+04</totfact>
</mgrwt>
</event>
<event>
12    1  0.1473662E-001  0.1857934E+03  0.7546771E-02  0.1163812E+00
         21   -1    0    0  504  503  0.00000000000E+00  0.00000000000E+00  0.30412227824E+03  0.30412227824E+03  0.00000000000E+00 0.  1.
         21   -1    0    0  502  504 -0.00000000000E+00 -0.00000000000E+00 -0.11171043664E+03  0.11171043664E+03  0.00000000000E+00 0.  1.
          6    2    1    2  502    0  0.16061940620E+01 -0.79341678340E+02  0.12600523388E+03  0.22449169472E+03  0.16799261964E+03 0.  0.
         24    2    3    3    0    0  0.26474790208E+02 -0.22261938427E+02  0.12589030446E+03  0.16205254841E+03  0.96000787861E+02 0.  0.
         -6    2    1    2    0  503 -0.16061940620E+01  0.79341678340E+02  0.66406607716E+02  0.19134102016E+03  0.16094678209E+03 0.  0.
        -24    2    5    5    0    0 -0.63285596621E+02  0.45144604651E+02  0.49943355184E+02  0.11876749033E+03  0.74620881544E+02 0.  0.
          2    1    4    4  501    0  0.49278309026E+02 -0.92936107993E+01  0.12622053059E+03  0.13581732321E+03  0.00000000000E+00 0. -1.
         -1    1    4    4    0  501 -0.22803518818E+02 -0.12968327627E+02 -0.33022612747E+00  0.26235225199E+02  0.00000000000E+00 0.  1.
          5    1    3    3  502    0 -0.24868596145E+02 -0.57079739913E+02  0.11492941103E+00  0.62439146307E+02  0.47000000000E+01 0. -1.
         13    1    6    6    0    0 -0.16792581586E+00 -0.32676068639E+01  0.38222762473E+02  0.38362547162E+02  0.00000000000E+00 0. -1.
        -14    1    6    6    0    0 -0.63117670805E+02  0.48412211515E+02  0.11720592711E+02  0.80404943163E+02  0.00000000000E+00 0.  1.
         -5    1    5    5    0  503  0.61679402559E+02  0.34197073689E+02  0.16463252532E+02  0.72573529836E+02  0.47000000000E+01 0.  1.
<mgrwt>
<rscale>  2 0.18418632E+03</rscale>
<asrwt>0</asrwt>
<pdfrwt beam="1">  1       21 0.46788043E-01 0.18579344E+03</pdfrwt>
<pdfrwt beam="2">  1       21 0.17186221E-01 0.18579344E+03</pdfrwt>
<totfact> 0.13403488E+05</totfact>
</mgrwt>
</event>
<event>
12    1  0.1473662E-001  0.2103693E+03  0.7546771E-02  0.1141394E+00
         21   -1    0    0  504  503  0.00000000000E+00  0.00000000000E+00  0.11393870655E+03  0.11393870655E+03  0.00000000000E+00 0.  1.
         21   -1    0    0  502  504 -0.00000000000E+00 -0.00000000000E+00 -0.92298137450E+03  0.92298137450E+03  0.00000000000E+00 0. -1.
          6    2    1    2  502    0 -0.28249530749E+02  0.11632647898E+03 -0.79974857790E+03  0.82695407959E+03  0.17298952626E+03 0.  0.
         24    2    3    3    0    0 -0.45175260333E+02  0.13860198967E+03 -0.75932062539E+03  0.77756594293E+03  0.82399440347E+02 0.  0.
         -6    2    1    2    0  503  0.28249530749E+02 -0.11632647898E+03 -0.92940900442E+01  0.20996600146E+03  0.17224823936E+03 0.  0.
        -24    2    5    5    0    0  0.45908769976E+02 -0.10223947183E+02  0.25613143970E+02  0.96783843108E+02  0.80615971656E+02 0.  0.
          4    1    4    4  501    0 -0.60192841321E+02  0.13821694587E+03 -0.65217669288E+03  0.66937399188E+03  0.00000000000E+00 0. -1.
         -3    1    4    4    0  501  0.15017580988E+02  0.38504380905E+00 -0.10714393251E+03  0.10819195105E+03  0.00000000000E+00 0.  1.
          5    1    3    3  502    0  0.16925729585E+02 -0.22275510698E+02 -0.40427952512E+02  0.49388136664E+02  0.47000000000E+01 0. -1.
         13    1    6    6    0    0  0.43285905830E+01  0.32446417667E+02  0.15997131493E+02  0.36433705986E+02  0.00000000000E+00 0. -1.
        -14    1    6    6    0    0  0.41580179393E+02 -0.42670364850E+02  0.96160124765E+01  0.60350137123E+02  0.00000000000E+00 0.  1.
         -5    1    5    5    0  503 -0.17659239227E+02 -0.10610253179E+03 -0.34907234014E+02  0.11318215835E+03  0.47000000000E+01 0.  1.
<mgrwt>
<rscale>  2 0.21021689E+03</rscale>
<asrwt>0</asrwt>
<pdfrwt beam="1">  1       21 0.17529031E-01 0.21036935E+03</pdfrwt>
<pdfrwt beam="2">  1       21 0.14199714E+00 0.21036935E+03</pdfrwt>
<totfact> 0.10038999E+04</totfact>
</mgrwt>
</event>
<event>
12    1  0.1473662E-001  0.2029351E+03  0.7546771E-02  0.1147313E+00
         21   -1    0    0  504  503  0.00000000000E+00  0.00000000000E+00  0.43663784995E+03  0.43663784995E+03  0.00000000000E+00 0.  1.
         21   -1    0    0  502  504 -0.00000000000E+00 -0.00000000000E+00 -0.17965449851E+03  0.17965449851E+03  0.00000000000E+00 0.  1.
          6    2    1    2  502    0  0.67875599657E+02 -0.79171499062E+02 -0.83983329320E+02  0.21950405543E+03  0.17393564171E+03 0.  0.
         24    2    3    3    0    0 -0.10252078767E+02 -0.10088424506E+02  0.57946818175E+01  0.81813872015E+02  0.80330877555E+02 0.  0.
         -6    2    1    2    0  503 -0.67875599657E+02  0.79171499062E+02  0.34096668076E+03  0.39678829303E+03  0.17409034668E+03 0.  0.
        -24    2    5    5    0    0 -0.46560130596E+01 -0.12615913128E+02  0.83480546399E+02  0.11617673847E+03  0.79669273956E+02 0.  0.
          4    1    4    4  501    0 -0.26167242018E+02  0.20574230907E+02  0.25599857122E+02  0.41992573354E+02  0.00000000000E+00 0. -1.
         -3    1    4    4    0  501  0.15915163251E+02 -0.30662655413E+02 -0.19805175304E+02  0.39821298662E+02  0.00000000000E+00 0.  1.
          5    1    3    3  502    0  0.78127678424E+02 -0.69083074556E+02 -0.89778011137E+02  0.13769018342E+03  0.47000000000E+01 0. -1.
         11    1    6    6    0    0  0.12742264084E+00 -0.23591127160E+02  0.95998741210E+02  0.98855024308E+02  0.00000000000E+00 0. -1.
        -12    1    6    6    0    0 -0.47834357004E+01  0.10975214032E+02 -0.12518194811E+02  0.17321714161E+02  0.00000000000E+00 0.  1.
         -5    1    5    5    0  503 -0.63219586598E+02  0.91787412191E+02  0.25748613436E+03  0.28061155456E+03  0.47000000000E+01 0.  1.
<mgrwt>
<rscale>  2 0.20290196E+03</rscale>
<asrwt>0</asrwt>
<pdfrwt beam="1">  1       21 0.67175054E-01 0.20293514E+03</pdfrwt>
<pdfrwt beam="2">  1       21 0.27639154E-01 0.20293514E+03</pdfrwt>
<totfact> 0.25190718E+04</totfact>
</mgrwt>
</event>
<event>
12    1  0.1473662E-001  0.1962563E+03  0.7546771E-02  0.1154250E+00
         21   -1    0    0  504  503  0.00000000000E+00  0.00000000000E+00  0.20698907194E+03  0.20698907194E+03  0.00000000000E+00 0. -1.
         21   -1    0    0  502  504 -0.00000000000E+00 -0.00000000000E+00 -0.18152396190E+03  0.18152396190E+03  0.00000000000E+00 0.  1.
          6    2    1    2  502    0  0.84299268527E+02  0.37057053815E+02 -0.23481792259E+01  0.19029567185E+03  0.16651527518E+03 0.  0.
         24    2    3    3    0    0  0.11439228446E+03  0.27903698303E+01  0.16362262790E+02  0.14077834277E+03  0.80358180921E+02 0.  0.
         -6    2    1    2    0  503 -0.84299268527E+02 -0.37057053815E+02  0.27813289264E+02  0.19821736198E+03  0.17331171807E+03 0.  0.
        -24    2    5    5    0    0 -0.48863441173E+02 -0.97074118513E+00  0.81315864387E+02  0.12444382090E+03  0.80532083901E+02 0.  0.
          4    1    4    4  501    0  0.56454304521E+02 -0.27716976466E+02  0.35938627316E+02  0.72435517647E+02  0.00000000000E+00 0. -1.
         -3    1    4    4    0  501  0.57937979937E+02  0.30507346296E+02 -0.19576364527E+02  0.68342825120E+02  0.00000000000E+00 0.  1.
          5    1    3    3  502    0 -0.30093015931E+02  0.34266683985E+02 -0.18710442016E+02  0.49517329084E+02  0.47000000000E+01 0. -1.
         13    1    6    6    0    0  0.18225265431E+02 -0.32367339755E+01 -0.62096411334E+00  0.18520862379E+02  0.00000000000E+00 0. -1.
        -14    1    6    6    0    0 -0.67088706603E+02  0.22659927904E+01  0.81936828500E+02  0.10592295852E+03  0.00000000000E+00 0.  1.
         -5    1    5    5    0  503 -0.35435827354E+02 -0.36086312630E+02 -0.53502575123E+02  0.73773541085E+02  0.47000000000E+01 0.  1.
<mgrwt>
<rscale>  2 0.19474517E+03</rscale>
<asrwt>0</asrwt>
<pdfrwt beam="1">  1       21 0.31844472E-01 0.19625632E+03</pdfrwt>
<pdfrwt beam="2">  1       21 0.27926763E-01 0.19625632E+03</pdfrwt>
<totfact> 0.11596061E+05</totfact>
</mgrwt>
</event>
<event>
12    1  0.1473662E-001  0.2183916E+03  0.7546771E-02  0.1135294E+00
         21   -1    0    0  504  503  0.00000000000E+00  0.00000000000E+00  0.26849391227E+03  0.26849391227E+03  0.00000000000E+00 0. -1.
         21   -1    0    0  502  504 -0.00000000000E+00 -0.00000000000E+00 -0.17944586537E+03  0.17944586537E+03  0.00000000000E+00 0.  1.
          6    2    1    2  502    0  0.10022519363E+03  0.87382474936E+02  0.16956862645E+02  0.21795707942E+03  0.17186322152E+03 0.  0.
         24    2    3    3    0    0  0.97780251070E+02  0.74739770357E+02 -0.44425366714E+02  0.15506285230E+03  0.83209760151E+02 0.  0.
         -6    2    1    2    0  503 -0.10022519363E+03 -0.87382474936E+02  0.72091184251E+02  0.22998269822E+03  0.17324582613E+03 0.  0.
        -24    2    5    5    0    0 -0.45264297358E+02  0.21136260721E+02  0.12840424484E+02  0.94595259215E+02  0.79295576374E+02 0.  0.
          2    1    4    4  501    0  0.31538939698E+02  0.64716848732E+02  0.44559195364E+01  0.72130648451E+02  0.00000000000E+00 0. -1.
         -1    1    4    4    0  501  0.66241311372E+02  0.10022921625E+02 -0.48881286251E+02  0.82932203852E+02  0.00000000000E+00 0.  1.
          5    1    3    3  502    0  0.24449425643E+01  0.12642704579E+02  0.61382229359E+02  0.62894227114E+02  0.47000000000E+01 0. -1.
         13    1    6    6    0    0 -0.61740266054E+02 -0.16249672020E+01 -0.39055976270E+01  0.61885011623E+02  0.00000000000E+00 0. -1.
        -14    1    6    6    0    0  0.16475968695E+02  0.22761227923E+02  0.16746022111E+02  0.32710247592E+02  0.00000000000E+00 0.  1.
         -5    1    5    5    0  503 -0.54960896277E+02 -0.10851873566E+03  0.59250759767E+02  0.13538743901E+03  0.47000000000E+01 0.  1.
<mgrwt>
<rscale>  2 0.21811732E+03</rscale>
<asrwt>0</asrwt>
<pdfrwt beam="1">  1       21 0.41306756E-01 0.21839163E+03</pdfrwt>
<pdfrwt beam="2">  1       21 0.27607056E-01 0.21839163E+03</pdfrwt>
<totfact> 0.69878813E+04</totfact>
</mgrwt>
</event>
<event>
12    1  0.1473662E-001  0.1882256E+03  0.7546771E-02  0.1160955E+00
         21   -1    0    0  504  503  0.00000000000E+00  0.00000000000E+00  0.25693885047E+03  0.25693885047E+03  0.00000000000E+00 0. -1.
         21   -1    0    0  502  504 -0.00000000000E+00 -0.00000000000E+00 -0.18306759714E+03  0.18306759714E+03  0.00000000000E+00 0. -1.
          6    2    1    2  502    0 -0.19657596099E+02  0.70511747489E+02 -0.75958215913E+02  0.19942851990E+03  0.16924466421E+03 0.  0.
         24    2    3    3    0    0 -0.25778467171E+02 -0.16975028718E+02 -0.77977533524E+02  0.11157882600E+03  0.73597946357E+02 0.  0.
         -6    2    1    2    0  503  0.19657596099E+02 -0.70511747489E+02  0.14982946925E+03  0.24057792771E+03  0.17340859791E+03 0.  0.
        -24    2    5    5    0    0 -0.48365381231E+02 -0.25272429108E+02  0.11893319746E+03  0.15311141422E+03  0.79499018429E+02 0.  0.
          4    1    4    4  501    0 -0.44557780317E+02  0.50769818693E+01 -0.25370527397E+02  0.51525092839E+02  0.00000000000E+00 0. -1.
         -3    1    4    4    0  501  0.18779313147E+02 -0.22052010587E+02 -0.52607006127E+02  0.60053733163E+02  0.00000000000E+00 0.  1.
          5    1    3    3  502    0  0.61208710716E+01  0.87486776206E+02  0.20193176113E+01  0.87849693894E+02  0.47000000000E+01 0. -1.
         11    1    6    6    0    0 -0.16085664651E+02  0.63394903501E+01  0.10414748288E+03  0.10557289394E+03  0.00000000000E+00 0. -1.
        -12    1    6    6    0    0 -0.32279716580E+02 -0.31611919458E+02  0.14785714578E+02  0.47538520275E+02  0.00000000000E+00 0.  1.
         -5    1    5    5    0  503  0.68022977330E+02 -0.45239318381E+02  0.30896271790E+02  0.87466513495E+02  0.47000000000E+01 0.  1.
<mgrwt>
<rscale>  2 0.18726093E+03</rscale>
<asrwt>0</asrwt>
<pdfrwt beam="1">  1       21 0.39529054E-01 0.18822558E+03</pdfrwt>
<pdfrwt beam="2">  1       21 0.28164246E-01 0.18822558E+03</pdfrwt>
<totfact> 0.74455144E+04</totfact>
</mgrwt>
</event>
<event>
12    1  0.1473662E-001  0.1780804E+03  0.7546771E-02  0.1169749E+00
         21   -1    0    0  504  503  0.00000000000E+00  0.00000000000E+00  0.10134542201E+04  0.10134542201E+04  0.00000000000E+00 0.  1.
         21   -1    0    0  502  504 -0.00000000000E+00 -0.00000000000E+00 -0.17776771980E+03  0.17776771980E+03  0.00000000000E+00 0.  1.
          6    2    1    2  502    0  0.21314023863E+02 -0.37820236453E+02 -0.12284718439E+03  0.21634242173E+03  0.17270771503E+03 0.  0.
         24    2    3    3    0    0 -0.19077497270E+02  0.17611518270E+01 -0.13520324621E+03  0.15826554560E+03  0.80006328385E+02 0.  0.
         -6    2    1    2    0  503 -0.21314023863E+02  0.37820236453E+02  0.95853368469E+03  0.97487951818E+03  0.17239081291E+03 0.  0.
        -24    2    5    5    0    0  0.17925657182E+02 -0.32224782158E+02  0.32582376451E+03  0.33707861641E+03  0.78109553515E+02 0.  0.
          2    1    4    4  501    0 -0.37751458799E+02 -0.26451167970E+02 -0.58863701810E+02  0.74764779939E+02  0.00000000000E+00 0. -1.
         -1    1    4    4    0  501  0.18673961529E+02  0.28212319797E+02 -0.76339544395E+02  0.83500765661E+02  0.00000000000E+00 0.  1.
          5    1    3    3  502    0  0.40391521133E+02 -0.39581388280E+02  0.12356061819E+02  0.58076876133E+02  0.47000000000E+01 0. -1.
         13    1    6    6    0    0 -0.85636653181E+01 -0.50199539153E+02  0.15121817437E+03  0.15956273486E+03  0.00000000000E+00 0. -1.
        -14    1    6    6    0    0  0.26489322500E+02  0.17974756995E+02  0.17460559014E+03  0.17751588156E+03  0.00000000000E+00 0.  1.
         -5    1    5    5    0  503 -0.39239681045E+02  0.70045018612E+02  0.63270992018E+03  0.63780090177E+03  0.47000000000E+01 0.  1.
<mgrwt>
<rscale>  2 0.17800347E+03</rscale>
<asrwt>0</asrwt>
<pdfrwt beam="1">  1       21 0.15591603E+00 0.17808035E+03</pdfrwt>
<pdfrwt beam="2">  1       21 0.27348880E-01 0.17808035E+03</pdfrwt>
<totfact> 0.34863764E+03</totfact>
</mgrwt>
</event>
<event>
12    1  0.1473662E-001  0.1777761E+03  0.7546771E-02  0.1170468E+00
         21   -1    0    0  504  503  0.00000000000E+00  0.00000000000E+00  0.30695254541E+03  0.30695254541E+03  0.00000000000E+00 0.  1.
         21   -1    0    0  502  504 -0.00000000000E+00 -0.00000000000E+00 -0.11109826171E+03  0.11109826171E+03  0.00000000000E+00 0.  1.
          6    2    1    2  502    0  0.34512084139E+02  0.21508418053E+02  0.36969417543E+02  0.17962103055E+03  0.17100666883E+03 0.  0.
         24    2    3    3    0    0  0.58344911911E+01  0.76411617074E+02  0.15325724206E+02  0.11383877564E+03  0.82774467709E+02 0.  0.
         -6    2    1    2    0  503 -0.34512084139E+02 -0.21508418053E+02  0.15888486615E+03  0.23842977657E+03  0.17306259465E+03 0.  0.
        -24    2    5    5    0    0 -0.27031840872E+02 -0.16254170587E+02  0.72272669610E+01  0.86424255135E+02  0.80137382073E+02 0.  0.
          2    1    4    4  501    0 -0.15152733713E+02  0.37876654706E+02  0.45098463292E+02  0.60812150941E+02  0.00000000000E+00 0. -1.
         -1    1    4    4    0  501  0.20987224904E+02  0.38534962368E+02 -0.29772739086E+02  0.53026624695E+02  0.00000000000E+00 0.  1.
          5    1    3    3  502    0  0.28677592948E+02 -0.54903199021E+02  0.21643693336E+02  0.65782254912E+02  0.47000000000E+01 0. -1.
         13    1    6    6    0    0 -0.54174229752E+02 -0.71565543825E-01  0.82958653420E+01  0.54805781380E+02  0.00000000000E+00 0. -1.
        -14    1    6    6    0    0  0.27142388880E+02 -0.16182605043E+02 -0.10685983810E+01  0.31618473755E+02  0.00000000000E+00 0.  1.
         -5    1    5    5    0  503 -0.74802432669E+01 -0.52542474655E+01  0.15165759919E+03  0.15200552144E+03  0.47000000000E+01 0.  1.
<mgrwt>
<rscale>  2 0.17727382E+03</rscale>
<asrwt>0</asrwt>
<pdfrwt beam="1">  1       21 0.47223468E-01 0.17777614E+03</pdfrwt>
<pdfrwt beam="2">  1       21 0.17092040E-01 0.17777614E+03</pdfrwt>
<totfact> 0.13319782E+05</totfact>
</mgrwt>
</event>
<event>
12    1  0.1473662E-001  0.4692113E+03  0.7546771E-02  0.1022187E+00
         21   -1    0    0  504  503  0.00000000000E+00  0.00000000000E+00  0.31991977087E+03  0.31991977087E+03  0.00000000000E+00 0. -1.
         21   -1    0    0  502  504 -0.00000000000E+00 -0.00000000000E+00 -0.82771034313E+03  0.82771034313E+03  0.00000000000E+00 0.  1.
          6    2    1    2  502    0  0.41918405501E+03  0.11920935720E+03 -0.49012710730E+03  0.67808643910E+03  0.17219319025E+03 0.  0.
         24    2    3    3    0    0  0.28780049066E+03  0.16837699596E+02 -0.35070797622E+03  0.46082765016E+03  0.79078492760E+02 0.  0.
         -6    2    1    2    0  503 -0.41918405501E+03 -0.11920935720E+03 -0.17663464958E+02  0.46954367490E+03  0.17387674320E+03 0.  0.
        -24    2    5    5    0    0 -0.27271716563E+03 -0.72643044299E+01 -0.10234604044E+02  0.28498603486E+03  0.81761056704E+02 0.  0.
          2    1    4    4  501    0  0.11289400720E+03 -0.29836812331E+02 -0.11813648168E+03  0.16610695510E+03  0.00000000000E+00 0. -1.
         -1    1    4    4    0  501  0.17490648346E+03  0.46674511927E+02 -0.23257149454E+03  0.29472069506E+03  0.00000000000E+00 0.  1.
          5    1    3    3  502    0  0.13138356435E+03  0.10237165761E+03 -0.13941913108E+03  0.21725878894E+03  0.47000000000E+01 0. -1.
         13    1    6    6    0    0 -0.14640441363E+03 -0.40721241662E+02  0.12016585590E+02  0.15243644637E+03  0.00000000000E+00 0. -1.
        -14    1    6    6    0    0 -0.12631275200E+03  0.33456937232E+02 -0.22251189635E+02  0.13254958849E+03  0.00000000000E+00 0.  1.
         -5    1    5    5    0  503 -0.14646688938E+03 -0.11194505277E+03 -0.74288609132E+01  0.18455764004E+03  0.47000000000E+01 0.  1.
<mgrwt>
<rscale>  2 0.46905593E+03</rscale>
<asrwt>0</asrwt>
<pdfrwt beam="1">  1       21 0.49218427E-01 0.46921132E+03</pdfrwt>
<pdfrwt beam="2">  1       21 0.12734005E+00 0.46921132E+03</pdfrwt>
<totfact> 0.15217726E+03</totfact>
</mgrwt>
</event>
<event>
12    1  0.1473662E-001  0.2694321E+03  0.7546771E-02  0.1101694E+00
         21   -1    0    0  504  503  0.00000000000E+00  0.00000000000E+00  0.10889279689E+03  0.10889279689E+03  0.00000000000E+00 0. -1.
         21   -1    0    0  502  504 -0.00000000000E+00 -0.00000000000E+00 -0.11918418693E+04  0.11918418693E+04  0.00000000000E+00 0.  1.
          6    2    1    2  502    0 -0.13592629494E+03 -0.15515484049E+03 -0.97347988843E+03  0.10099131605E+04  0.17237318936E+03 0.  0.
         24    2    3    3    0    0 -0.58162407313E+02 -0.15095162904E+03 -0.53458446029E+03  0.56413723468E+03  0.79378929428E+02 0.  0.
         -6    2    1    2    0  503  0.13592629494E+03  0.15515484049E+03 -0.10946918399E+03  0.29082150569E+03  0.17333396592E+03 0.  0.
        -24    2    5    5    0    0  0.14515113771E+03  0.64014102746E+02 -0.71827109715E+02  0.19167137933E+03  0.80075750611E+02 0.  0.
          4    1    4    4  501    0  0.11724894495E+02  0.15743600426E+01 -0.25300998849E+02  0.27930132531E+02  0.00000000000E+00 0. -1.
         -3    1    4    4    0  501 -0.69887301808E+02 -0.15252598908E+03 -0.50928346144E+03  0.53620710215E+03  0.00000000000E+00 0.  1.
          5    1    3    3  502    0 -0.77763887631E+02 -0.42032114476E+01 -0.43889542814E+03  0.44577592583E+03  0.47000000000E+01 0. -1.
         11    1    6    6    0    0  0.91485570252E+02  0.12105217583E+02 -0.65814624672E+01  0.92517357859E+02  0.00000000000E+00 0. -1.
        -12    1    6    6    0    0  0.53665567461E+02  0.51908885163E+02 -0.65245647248E+02  0.99154021474E+02  0.00000000000E+00 0.  1.
         -5    1    5    5    0  503 -0.92248427699E+01  0.91140737739E+02 -0.37642074276E+02  0.99150126352E+02  0.47000000000E+01 0.  1.
<mgrwt>
<rscale>  2 0.26927767E+03</rscale>
<asrwt>0</asrwt>
<pdfrwt beam="1">  1       21 0.16752738E-01 0.26943208E+03</pdfrwt>
<pdfrwt beam="2">  1       21 0.18336029E+00 0.26943208E+03</pdfrwt>
<totfact> 0.52183423E+03</totfact>
</mgrwt>
</event>
<event>
12    1  0.1473662E-001  0.2104665E+03  0.7546771E-02  0.1141287E+00
         21   -1    0    0  504  503  0.00000000000E+00  0.00000000000E+00  0.31137834916E+03  0.31137834916E+03  0.00000000000E+00 0. -1.
         21   -1    0    0  502  504 -0.00000000000E+00 -0.00000000000E+00 -0.18761186506E+03  0.18761186506E+03  0.00000000000E+00 0. -1.
          6    2    1    2  502    0  0.67391134140E+02  0.98805054067E+02 -0.61252219634E+02  0.21876158984E+03  0.17262906797E+03 0.  0.
         24    2    3    3    0    0  0.51590877729E+02 -0.10413499687E+02 -0.75844063580E+01  0.95958231706E+02  0.79877402135E+02 0.  0.
         -6    2    1    2    0  503 -0.67391134140E+02 -0.98805054067E+02  0.18501870374E+03  0.28022862438E+03  0.17318243998E+03 0.  0.
        -24    2    5    5    0    0 -0.73608937571E+02 -0.97936060510E+02  0.20882964308E+03  0.25515937905E+03  0.80540308235E+02 0.  0.
          4    1    4    4  501    0  0.64638742048E+02 -0.15161383337E+02 -0.27347884419E+02  0.71804883542E+02  0.00000000000E+00 0. -1.
         -3    1    4    4    0  501 -0.13047864319E+02  0.47478836497E+01  0.19763478061E+02  0.24153348164E+02  0.00000000000E+00 0.  1.
          5    1    3    3  502    0  0.15800256411E+02  0.10921855375E+03 -0.53667813276E+02  0.12280335813E+03  0.47000000000E+01 0. -1.
         13    1    6    6    0    0 -0.90569532425E+02 -0.77085712397E+02  0.18001267282E+03  0.21575358545E+03  0.00000000000E+00 0. -1.
        -14    1    6    6    0    0  0.16960594854E+02 -0.20850348113E+02  0.28816970254E+02  0.39405793595E+02  0.00000000000E+00 0.  1.
         -5    1    5    5    0  503  0.62178034309E+01 -0.86899355661E+00 -0.23810939336E+02  0.25069245329E+02  0.47000000000E+01 0.  1.
<mgrwt>
<rscale>  2 0.21035266E+03</rscale>
<asrwt>0</asrwt>
<pdfrwt beam="1">  1       21 0.47904362E-01 0.21046653E+03</pdfrwt>
<pdfrwt beam="2">  1       21 0.28863364E-01 0.21046653E+03</pdfrwt>
<totfact> 0.47430881E+04</totfact>
</mgrwt>
</event>
<event>
12    1  0.1473662E-001  0.1779952E+03  0.7546771E-02  0.1169795E+00
         21   -1    0    0  504  503  0.00000000000E+00  0.00000000000E+00  0.30959505241E+02  0.30959505241E+02  0.00000000000E+00 0.  1.
         21   -1    0    0  502  504 -0.00000000000E+00 -0.00000000000E+00 -0.18223612814E+04  0.18223612814E+04  0.00000000000E+00 0.  1.
          6    2    1    2  502    0  0.31310664310E+02 -0.74097253143E+01 -0.15094170481E+04  0.15198576394E+04  0.17490613835E+03 0.  0.
         24    2    3    3    0    0 -0.46567935803E+02  0.13358698652E+02 -0.70421206292E+03  0.71061505405E+03  0.81927394739E+02 0.  0.
         -6    2    1    2    0  503 -0.31310664310E+02  0.74097253143E+01 -0.28198472813E+03  0.33346314731E+03  0.17506290865E+03 0.  0.
        -24    2    5    5    0    0 -0.78090334058E+02 -0.72229003057E+01 -0.25181561355E+03  0.27571614125E+03  0.80361786662E+02 0.  0.
          2    1    4    4  501    0 -0.31092924281E+02 -0.24615613224E+02 -0.15929410332E+03  0.16415635750E+03  0.00000000000E+00 0. -1.
         -1    1    4    4    0  501 -0.15475011521E+02  0.37974311876E+02 -0.54491795960E+03  0.54645869655E+03  0.00000000000E+00 0.  1.
          5    1    3    3  502    0  0.77878600113E+02 -0.20768423967E+02 -0.80520498514E+03  0.80924258531E+03  0.47000000000E+01 0. -1.
         13    1    6    6    0    0 -0.49864075393E+02  0.33611148861E+02 -0.16628280399E+03  0.17682224477E+03  0.00000000000E+00 0. -1.
        -14    1    6    6    0    0 -0.28226258666E+02 -0.40834049167E+02 -0.85532809557E+02  0.98893896476E+02  0.00000000000E+00 0.  1.
         -5    1    5    5    0  503  0.46779669748E+02  0.14632625620E+02 -0.30169114582E+02  0.57747006061E+02  0.47000000000E+01 0.  1.
<mgrwt>
<rscale>  2 0.17795662E+03</rscale>
<asrwt>0</asrwt>
<pdfrwt beam="1">  1       21 0.47630013E-02 0.17799518E+03</pdfrwt>
<pdfrwt beam="2">  1       21 0.28036324E+00 0.17799518E+03</pdfrwt>
<totfact> 0.13130891E+04</totfact>
</mgrwt>
</event>
<event>
12    1  0.1473662E-001  0.3557215E+03  0.7546771E-02  0.1060338E+00
         21   -1    0    0  504  503  0.00000000000E+00  0.00000000000E+00  0.42073416034E+03  0.42073416034E+03  0.00000000000E+00 0. -1.
         21   -1    0    0  502  504 -0.00000000000E+00 -0.00000000000E+00 -0.33639682821E+03  0.33639682821E+03  0.00000000000E+00 0.  1.
          6    2    1    2  502    0  0.12257720980E+03  0.28623184444E+03  0.16604451053E+03  0.39214623352E+03  0.17103814735E+03 0.  0.
         24    2    3    3    0    0  0.11771195401E+03  0.30281716315E+03  0.16711676300E+03  0.37420234219E+03  0.80901433912E+02 0.  0.
         -6    2    1    2    0  503 -0.12257720980E+03 -0.28623184444E+03 -0.81707178400E+02  0.36498475504E+03  0.17199990486E+03 0.  0.
        -24    2    5    5    0    0 -0.46858403452E+02 -0.25579597379E+03 -0.75574631641E+02  0.28301294289E+03  0.82204079659E+02 0.  0.
          2    1    4    4  501    0  0.12520784097E+03  0.29043000185E+03  0.14537579127E+03  0.34808147050E+03  0.00000000000E+00 0. -1.
         -1    1    4    4    0  501 -0.74958869619E+01  0.12387161302E+02  0.21740971722E+02  0.26120871690E+02  0.00000000000E+00 0.  1.
          5    1    3    3  502    0  0.48652557885E+01 -0.16585318709E+02 -0.10722524657E+01  0.17943891326E+02  0.47000000000E+01 0. -1.
         11    1    6    6    0    0 -0.54838015047E+01 -0.92511865488E+02  0.11514436822E+02  0.93386827713E+02  0.00000000000E+00 0. -1.
        -12    1    6    6    0    0 -0.41374601948E+02 -0.16328410830E+03 -0.87089068462E+02  0.18962611518E+03  0.00000000000E+00 0.  1.
         -5    1    5    5    0  503 -0.75718806349E+02 -0.30435870653E+02 -0.61325467597E+01  0.81971812149E+02  0.47000000000E+01 0.  1.
<mgrwt>
<rscale>  2 0.35560547E+03</rscale>
<asrwt>0</asrwt>
<pdfrwt beam="1">  1       21 0.64728332E-01 0.35572153E+03</pdfrwt>
<pdfrwt beam="2">  1       21 0.51753359E-01 0.35572153E+03</pdfrwt>
<totfact> 0.71410161E+03</totfact>
</mgrwt>
</event>
<event>
12    1  0.1473662E-001  0.2304935E+03  0.7546771E-02  0.1126360E+00
         21   -1    0    0  504  503  0.00000000000E+00  0.00000000000E+00  0.75211416175E+03  0.75211416175E+03  0.00000000000E+00 0.  1.
         21   -1    0    0  502  504 -0.00000000000E+00 -0.00000000000E+00 -0.12729828937E+03  0.12729828937E+03  0.00000000000E+00 0. -1.
          6    2    1    2  502    0 -0.43331383765E+02  0.14521026584E+03  0.18606347767E+02  0.23086234050E+03  0.17316926390E+03 0.  0.
         24    2    3    3    0    0 -0.86878553931E+02  0.14310093941E+03  0.67742566086E+01  0.18544325125E+03  0.79482997473E+02 0.  0.
         -6    2    1    2    0  503  0.43331383765E+02 -0.14521026584E+03  0.60620952461E+03  0.64855011062E+03  0.17367679215E+03 0.  0.
        -24    2    5    5    0    0  0.30148115673E+02 -0.10399973133E+03  0.22712783178E+03  0.26697819531E+03  0.89249379874E+02 0.  0.
          4    1    4    4  501    0 -0.72128092650E+02  0.15178654250E+03  0.39840925849E+01  0.16809964077E+03  0.00000000000E+00 0. -1.
         -3    1    4    4    0  501 -0.14750461281E+02 -0.86856030906E+01  0.27901640237E+01  0.17343610476E+02  0.00000000000E+00 0.  1.
          5    1    3    3  502    0  0.43547170166E+02  0.21093264331E+01  0.11832091159E+02  0.45419089254E+02  0.47000000000E+01 0. -1.
         11    1    6    6    0    0 -0.11859129616E+02 -0.97015173575E+02  0.15776451878E+03  0.18558616933E+03  0.00000000000E+00 0. -1.
        -12    1    6    6    0    0  0.42007245289E+02 -0.69845577524E+01  0.69363312993E+02  0.81392025980E+02  0.00000000000E+00 0.  1.
         -5    1    5    5    0  503  0.13183268092E+02 -0.41210534515E+02  0.37908169284E+03  0.38157191531E+03  0.47000000000E+01 0.  1.
<mgrwt>
<rscale>  2 0.23039791E+03</rscale>
<asrwt>0</asrwt>
<pdfrwt beam="1">  1       21 0.11570987E+00 0.23049351E+03</pdfrwt>
<pdfrwt beam="2">  1       21 0.19584353E-01 0.23049351E+03</pdfrwt>
<totfact> 0.13529403E+04</totfact>
</mgrwt>
</event>
<event>
12    1  0.1473662E-001  0.2856177E+03  0.7546771E-02  0.1092810E+00
         21   -1    0    0  504  503  0.00000000000E+00  0.00000000000E+00  0.72487187254E+03  0.72487187254E+03  0.00000000000E+00 0. -1.
         21   -1    0    0  502  504 -0.00000000000E+00 -0.00000000000E+00 -0.15035553107E+03  0.15035553107E+03  0.00000000000E+00 0.  1.
          6    2    1    2  502    0  0.11057873662E+03  0.19688231218E+03  0.66931847295E+02  0.29335530893E+03  0.17489186160E+03 0.  0.
         24    2    3    3    0    0  0.88959063822E+02  0.83701712776E+02 -0.19038847356E+02  0.14951404687E+03  0.84096853356E+02 0.  0.
         -6    2    1    2    0  503 -0.11057873662E+03 -0.19688231218E+03  0.50758449418E+03  0.58187209467E+03  0.17303992021E+03 0.  0.
        -24    2    5    5    0    0 -0.10439312718E+03 -0.72403189738E+02  0.34823315488E+03  0.37951534775E+03  0.81396696098E+02 0.  0.
          2    1    4    4  501    0  0.64360293354E+02  0.36808418219E+01 -0.53657557953E+01  0.64688386071E+02  0.00000000000E+00 0. -1.
         -1    1    4    4    0  501  0.24598770467E+02  0.80020870954E+02 -0.13673091561E+02  0.84825660797E+02  0.00000000000E+00 0.  1.
          5    1    3    3  502    0  0.21619672802E+02  0.11318059940E+03  0.85970694651E+02  0.14384126206E+03  0.47000000000E+01 0. -1.
         11    1    6    6    0    0 -0.13143752666E+02 -0.36866455587E+02  0.18555362734E+03  0.18963660618E+03  0.00000000000E+00 0. -1.
        -12    1    6    6    0    0 -0.91249374512E+02 -0.35536734151E+02  0.16267952753E+03  0.18987874157E+03  0.00000000000E+00 0.  1.
         -5    1    5    5    0  503 -0.61856094466E+01 -0.12447912244E+03  0.15935133930E+03  0.20235674692E+03  0.47000000000E+01 0.  1.
<mgrwt>
<rscale>  2 0.28533471E+03</rscale>
<asrwt>0</asrwt>
<pdfrwt beam="1">  1       21 0.11151875E+00 0.28561769E+03</pdfrwt>
<pdfrwt beam="2">  1       21 0.23131621E-01 0.28561769E+03</pdfrwt>
<totfact> 0.10494843E+04</totfact>
</mgrwt>
</event>
<event>
12    1  0.1473662E-001  0.1889206E+03  0.7546771E-02  0.1160095E+00
         21   -1    0    0  504  503  0.00000000000E+00  0.00000000000E+00  0.37348670524E+03  0.37348670524E+03  0.00000000000E+00 0.  1.
         21   -1    0    0  502  504 -0.00000000000E+00 -0.00000000000E+00 -0.13746634166E+03  0.13746634166E+03  0.00000000000E+00 0.  1.
          6    2    1    2  502    0 -0.10021735703E+02  0.72513496982E+02 -0.26069630289E+02  0.18787079727E+03  0.17104726952E+03 0.  0.
         24    2    3    3    0    0  0.26051737975E+02  0.10732367385E+03 -0.16749935311E+02  0.13666542029E+03  0.78738889700E+02 0.  0.
         -6    2    1    2    0  503  0.10021735703E+02 -0.72513496982E+02  0.26208999387E+03  0.32308224963E+03  0.17416180038E+03 0.  0.
        -24    2    5    5    0    0  0.65570782998E+02 -0.79594466614E+02  0.15742382418E+03  0.20428437985E+03  0.79467230574E+02 0.  0.
          4    1    4    4  501    0 -0.12704842528E+02  0.89243891350E+02  0.15288534931E+01  0.90156655661E+02  0.00000000000E+00 0. -1.
         -3    1    4    4    0  501  0.38756580503E+02  0.18079782498E+02 -0.18278788804E+02  0.46508764632E+02  0.00000000000E+00 0.  1.
          5    1    3    3  502    0 -0.36073473678E+02 -0.34810176866E+02 -0.93196949778E+01  0.51205376975E+02  0.47000000000E+01 0. -1.
         13    1    6    6    0    0  0.29669211093E+02 -0.48946960301E+02  0.22775897740E+02  0.61602017235E+02  0.00000000000E+00 0. -1.
        -14    1    6    6    0    0  0.35901571905E+02 -0.30647506313E+02  0.13464792644E+03  0.14268236262E+03  0.00000000000E+00 0.  1.
         -5    1    5    5    0  503 -0.55549047295E+02  0.70809696321E+01  0.10466616969E+03  0.11879786978E+03  0.47000000000E+01 0.  1.
<mgrwt>
<rscale>  2 0.18819961E+03</rscale>
<asrwt>0</asrwt>
<pdfrwt beam="1">  1       21 0.57459493E-01 0.18892055E+03</pdfrwt>
<pdfrwt beam="2">  1       21 0.21148668E-01 0.18892055E+03</pdfrwt>
<totfact> 0.59198331E+04</totfact>
</mgrwt>
</event>
<event>
12    1  0.1473662E-001  0.2451076E+03  0.7546771E-02  0.1116550E+00
         21   -1    0    0  504  503  0.00000000000E+00  0.00000000000E+00  0.39188327415E+03  0.39188327415E+03  0.00000000000E+00 0.  1.
         21   -1    0    0  502  504 -0.00000000000E+00 -0.00000000000E+00 -0.16796875106E+03  0.16796875106E+03  0.00000000000E+00 0. -1.
          6    2    1    2  502    0 -0.11591178787E+03 -0.13001335836E+03  0.28172623398E+02  0.24672131604E+03  0.17244910890E+03 0.  0.
         24    2    3    3    0    0 -0.32695920535E+02  0.28245860323E+01  0.82806458899E+00  0.87533958055E+02  0.81144972832E+02 0.  0.
         -6    2    1    2    0  503  0.11591178787E+03  0.13001335836E+03  0.19574189970E+03  0.31313070917E+03  0.17145534057E+03 0.  0.
        -24    2    5    5    0    0  0.28413281134E+02  0.12932309633E+03  0.14131948300E+03  0.20997861476E+03  0.81166770223E+02 0.  0.
          2    1    4    4  501    0 -0.26383959402E+02 -0.29307046394E+02 -0.24245626867E+02  0.46291108263E+02  0.00000000000E+00 0. -1.
         -1    1    4    4    0  501 -0.63119611324E+01  0.32131632426E+02  0.25073691456E+02  0.41242849792E+02  0.00000000000E+00 0.  1.
          5    1    3    3  502    0 -0.83215867340E+02 -0.13283794439E+03  0.27344558809E+02  0.15918735799E+03  0.47000000000E+01 0. -1.
         13    1    6    6    0    0  0.31337224003E+02  0.24254178751E+02  0.83750204435E+01  0.40502194540E+02  0.00000000000E+00 0. -1.
        -14    1    6    6    0    0 -0.29239428695E+01  0.10506891758E+03  0.13294446256E+03  0.16947642022E+03  0.00000000000E+00 0.  1.
         -5    1    5    5    0  503  0.87498506741E+02  0.69026202205E+00  0.54422416691E+02  0.10315209441E+03  0.47000000000E+01 0.  1.
<mgrwt>
<rscale>  2 0.24493282E+03</rscale>
<asrwt>0</asrwt>
<pdfrwt beam="1">  1       21 0.60289734E-01 0.24510755E+03</pdfrwt>
<pdfrwt beam="2">  1       21 0.25841346E-01 0.24510755E+03</pdfrwt>
<totfact> 0.35537954E+04</totfact>
</mgrwt>
</event>
<event>
12    1  0.1473662E-001  0.2498186E+03  0.7546771E-02  0.1114461E+00
         21   -1    0    0  504  503  0.00000000000E+00  0.00000000000E+00  0.31779899294E+03  0.31779899294E+03  0.00000000000E+00 0. -1.
         21   -1    0    0  502  504 -0.00000000000E+00 -0.00000000000E+00 -0.20272637996E+03  0.20272637996E+03  0.00000000000E+00 0.  1.
          6    2    1    2  502    0  0.12838422786E+03 -0.12480839659E+03  0.12001387340E+03  0.27715093264E+03  0.17421154907E+03 0.  0.
         24    2    3    3    0    0 -0.32357826822E+01 -0.18787097401E+02  0.42893316855E+02  0.91317638260E+02  0.78330384323E+02 0.  0.
         -6    2    1    2    0  503 -0.12838422786E+03  0.12480839659E+03 -0.49412604232E+01  0.24337444027E+03  0.16476363767E+03 0.  0.
        -24    2    5    5    0    0 -0.13125542489E+03  0.14745089306E+03  0.11119989251E+02  0.21507284738E+03  0.84634053991E+02 0.  0.
          4    1    4    4  501    0  0.21870416274E+02  0.21641241913E+02  0.27594601260E+02  0.41329414201E+02  0.00000000000E+00 0. -1.
         -3    1    4    4    0  501 -0.25106198956E+02 -0.40428339314E+02  0.15298715595E+02  0.49988224059E+02  0.00000000000E+00 0.  1.
          5    1    3    3  502    0  0.13162001055E+03 -0.10602129919E+03  0.77120556542E+02  0.18583329438E+03  0.47000000000E+01 0. -1.
         13    1    6    6    0    0 -0.50130573059E+02  0.21322450243E+02  0.32738373839E+02  0.63557236891E+02  0.00000000000E+00 0. -1.
        -14    1    6    6    0    0 -0.81124851827E+02  0.12612844281E+03 -0.21618384588E+02  0.15151561049E+03  0.00000000000E+00 0.  1.
         -5    1    5    5    0  503  0.28711970218E+01 -0.22642496469E+02 -0.16061249674E+02  0.28301592884E+02  0.47000000000E+01 0.  1.
<mgrwt>
<rscale>  2 0.24817891E+03</rscale>
<asrwt>0</asrwt>
<pdfrwt beam="1">  1       21 0.48892153E-01 0.24981855E+03</pdfrwt>
<pdfrwt beam="2">  1       21 0.31188674E-01 0.24981855E+03</pdfrwt>
<totfact> 0.38380465E+04</totfact>
</mgrwt>
</event>
<event>
12    1  0.1473662E-001  0.2172128E+03  0.7546771E-02  0.1136625E+00
         21   -1    0    0  504  503  0.00000000000E+00  0.00000000000E+00  0.32390040123E+03  0.32390040123E+03  0.00000000000E+00 0. -1.
         21   -1    0    0  502  504 -0.00000000000E+00 -0.00000000000E+00 -0.15185492962E+03  0.15185492962E+03  0.00000000000E+00 0. -1.
          6    2    1    2  502    0 -0.70726274941E+02 -0.10369737563E+03  0.14277203311E+03  0.25993320343E+03  0.17727398322E+03 0.  0.
         24    2    3    3    0    0 -0.94124818239E+02 -0.57567234426E+02  0.36360378282E+02  0.14152284899E+03  0.80828038380E+02 0.  0.
         -6    2    1    2    0  503  0.70726274941E+02  0.10369737563E+03  0.29273438506E+02  0.21582212742E+03  0.17310951679E+03 0.  0.
        -24    2    5    5    0    0 -0.95788829598E+01  0.97052673589E+02  0.42796175603E+02  0.13398066562E+03  0.81291633426E+02 0.  0.
          4    1    4    4  501    0 -0.56561368311E+02 -0.49672584017E+02  0.60156867506E+02  0.96360794394E+02  0.00000000000E+00 0. -1.
         -3    1    4    4    0  501 -0.37563449927E+02 -0.78946504092E+01 -0.23796489224E+02  0.45162054592E+02  0.00000000000E+00 0.  1.
          5    1    3    3  502    0  0.23398543298E+02 -0.46130141205E+02  0.10641165483E+03  0.11841035444E+03  0.47000000000E+01 0. -1.
         13    1    6    6    0    0 -0.44510479399E+02  0.54814721549E+02  0.34350828406E+02  0.78522709372E+02  0.00000000000E+00 0. -1.
        -14    1    6    6    0    0  0.34931596440E+02  0.42237952039E+02  0.84453471971E+01  0.55457956251E+02  0.00000000000E+00 0.  1.
         -5    1    5    5    0  503  0.80305157901E+02  0.66447020423E+01 -0.13522737096E+02  0.81841461798E+02  0.47000000000E+01 0.  1.
<mgrwt>
<rscale>  2 0.21636154E+03</rscale>
<asrwt>0</asrwt>
<pdfrwt beam="1">  1       21 0.49830831E-01 0.21721284E+03</pdfrwt>
<pdfrwt beam="2">  1       21 0.23362297E-01 0.21721284E+03</pdfrwt>
<totfact> 0.65401339E+04</totfact>
</mgrwt>
</event>
<event>
12    1  0.1473662E-001  0.1826414E+03  0.7546771E-02  0.1165361E+00
         21   -1    0    0  504  503  0.00000000000E+00  0.00000000000E+00  0.91434546063E+02  0.91434546063E+02  0.00000000000E+00 0. -1.
         21   -1    0    0  502  504 -0.00000000000E+00 -0.00000000000E+00 -0.50437794949E+03  0.50437794949E+03  0.00000000000E+00 0. -1.
          6    2    1    2  502    0  0.23313069806E+02  0.51870491897E+02 -0.36375088011E+03  0.40702897268E+03  0.17356219251E+03 0.  0.
         24    2    3    3    0    0  0.81402029479E+02  0.31266898024E+02 -0.21146883528E+03  0.24267950815E+03  0.81057794587E+02 0.  0.
         -6    2    1    2    0  503 -0.23313069806E+02 -0.51870491897E+02 -0.49192523322E+02  0.18878352288E+03  0.17316254504E+03 0.  0.
        -24    2    5    5    0    0 -0.55526896325E+02 -0.91525745069E+02 -0.35783463415E+02  0.13575369532E+03  0.75421557349E+02 0.  0.
          4    1    4    4  501    0  0.64804649380E+02 -0.17701115230E+02 -0.12593637549E+03  0.14273381776E+03  0.00000000000E+00 0. -1.
         -3    1    4    4    0  501  0.16597380099E+02  0.48968013254E+02 -0.85532459797E+02  0.99945690388E+02  0.00000000000E+00 0.  1.
          5    1    3    3  502    0 -0.58088959672E+02  0.20603593873E+02 -0.15228204482E+03  0.16434946453E+03  0.47000000000E+01 0. -1.
         13    1    6    6    0    0  0.16853698430E+02 -0.76130665650E+01 -0.13037219332E+02  0.22626865033E+02  0.00000000000E+00 0. -1.
        -14    1    6    6    0    0 -0.72380594755E+02 -0.83912678504E+02 -0.22746244083E+02  0.11312683029E+03  0.00000000000E+00 0.  1.
         -5    1    5    5    0  503  0.32213826518E+02  0.39655253172E+02 -0.13409059908E+02  0.53029827557E+02  0.47000000000E+01 0.  1.
<mgrwt>
<rscale>  2 0.18254639E+03</rscale>
<asrwt>0</asrwt>
<pdfrwt beam="1">  1       21 0.14066854E-01 0.18264140E+03</pdfrwt>
<pdfrwt beam="2">  1       21 0.77596606E-01 0.18264140E+03</pdfrwt>
<totfact> 0.65233360E+04</totfact>
</mgrwt>
</event>
<event>
12    1  0.1473662E-001  0.1825109E+03  0.7546771E-02  0.1165810E+00
         21   -1    0    0  504  503  0.00000000000E+00  0.00000000000E+00  0.82258276453E+03  0.82258276453E+03  0.00000000000E+00 0. -1.
         21   -1    0    0  502  504 -0.00000000000E+00 -0.00000000000E+00 -0.69484413474E+02  0.69484413474E+02  0.00000000000E+00 0. -1.
          6    2    1    2  502    0  0.53575925988E+02 -0.22346515363E+02  0.85505542100E+02  0.19997587249E+03  0.17119989852E+03 0.  0.
         24    2    3    3    0    0  0.32219231862E+01 -0.29786781482E+01  0.11099416964E+03  0.14012272846E+03  0.85413230966E+02 0.  0.
         -6    2    1    2    0  503 -0.53575925988E+02  0.22346515363E+02  0.66759280896E+03  0.69209130552E+03  0.17303314715E+03 0.  0.
        -24    2    5    5    0    0  0.45326319030E+01  0.57772428279E+02  0.54441664045E+03  0.55128626905E+03  0.64566816777E+02 0.  0.
          4    1    4    4  501    0 -0.28479325497E+02 -0.52552585303E+01  0.49019727711E+01  0.29372079600E+02  0.00000000000E+00 0. -1.
         -3    1    4    4    0  501  0.31701248683E+02  0.22765803821E+01  0.10609219687E+03  0.11075064886E+03  0.00000000000E+00 0.  1.
          5    1    3    3  502    0  0.50354002801E+02 -0.19367837215E+02 -0.25488627536E+02  0.59853144029E+02  0.47000000000E+01 0. -1.
         11    1    6    6    0    0  0.20598347321E+02  0.39145517790E+02  0.48452566274E+03  0.48654062660E+03  0.00000000000E+00 0. -1.
        -12    1    6    6    0    0 -0.16065715418E+02  0.18626910490E+02  0.59890977704E+02  0.64745642453E+02  0.00000000000E+00 0.  1.
         -5    1    5    5    0  503 -0.58108557891E+02 -0.35425912916E+02  0.12317616851E+03  0.14080503647E+03  0.47000000000E+01 0.  1.
<mgrwt>
<rscale>  2 0.18207503E+03</rscale>
<asrwt>0</asrwt>
<pdfrwt beam="1">  1       21 0.12655119E+00 0.18251087E+03</pdfrwt>
<pdfrwt beam="2">  1       21 0.10689910E-01 0.18251087E+03</pdfrwt>
<totfact> 0.33544271E+04</totfact>
</mgrwt>
</event>
<event>
12    1  0.1473662E-001  0.2535595E+03  0.7546771E-02  0.1111185E+00
         21   -1    0    0  504  503  0.00000000000E+00  0.00000000000E+00  0.15245739064E+03  0.15245739064E+03  0.00000000000E+00 0.  1.
         21   -1    0    0  502  504 -0.00000000000E+00 -0.00000000000E+00 -0.58810102016E+03  0.58810102016E+03  0.00000000000E+00 0. -1.
          6    2    1    2  502    0 -0.13390107583E+03 -0.12660498106E+03 -0.41568935299E+03  0.48691893092E+03  0.17416683887E+03 0.  0.
         24    2    3    3    0    0 -0.11537330346E+03 -0.85987884718E+02 -0.16171046399E+03  0.22900345461E+03  0.74748863460E+02 0.  0.
         -6    2    1    2    0  503  0.13390107583E+03  0.12660498106E+03 -0.19954276529E+02  0.25363947988E+03  0.17313720937E+03 0.  0.
        -24    2    5    5    0    0  0.64147545676E+02  0.49356994835E+02 -0.74691917590E+02  0.13594875938E+03  0.79700452123E+02 0.  0.
          2    1    4    4  501    0 -0.12129403041E+03 -0.82231386596E+02 -0.12800149138E+03  0.19457292861E+03  0.00000000000E+00 0. -1.
         -1    1    4    4    0  501  0.59207269460E+01 -0.37564981224E+01 -0.33708972615E+02  0.34430525998E+02  0.00000000000E+00 0.  1.
          5    1    3    3  502    0 -0.18527772369E+02 -0.40617096337E+02 -0.25397888900E+03  0.25791547631E+03  0.47000000000E+01 0. -1.
         13    1    6    6    0    0  0.87013301010E+01 -0.33446248372E+01 -0.56572536744E+02  0.57335430359E+02  0.00000000000E+00 0. -1.
        -14    1    6    6    0    0  0.55446215575E+02  0.52701619673E+02 -0.18119380846E+02  0.78613329022E+02  0.00000000000E+00 0.  1.
         -5    1    5    5    0  503  0.69753530152E+02  0.77247986220E+02  0.54737641060E+02  0.11769072050E+03  0.47000000000E+01 0.  1.
<mgrwt>
<rscale>  2 0.25338276E+03</rscale>
<asrwt>0</asrwt>
<pdfrwt beam="1">  1       21 0.23454983E-01 0.25355947E+03</pdfrwt>
<pdfrwt beam="2">  1       21 0.90477081E-01 0.25355947E+03</pdfrwt>
<totfact> 0.17142619E+04</totfact>
</mgrwt>
</event>
<event>
12    1  0.1473662E-001  0.1826398E+03  0.7546771E-02  0.1165671E+00
         21   -1    0    0  504  503  0.00000000000E+00  0.00000000000E+00  0.18266753232E+03  0.18266753232E+03  0.00000000000E+00 0.  1.
         21   -1    0    0  502  504 -0.00000000000E+00 -0.00000000000E+00 -0.19035663167E+03  0.19035663167E+03  0.00000000000E+00 0.  1.
          6    2    1    2  502    0 -0.31097100849E+02 -0.35433734534E+02 -0.45330458241E+02  0.18818116152E+03  0.17645033263E+03 0.  0.
         24    2    3    3    0    0 -0.71614101751E+02 -0.49423049739E+02 -0.70875644312E+02  0.13806155624E+03  0.80414046913E+02 0.  0.
         -6    2    1    2    0  503  0.31097100849E+02  0.35433734534E+02  0.37641358899E+02  0.18484300246E+03  0.17472116196E+03 0.  0.
        -24    2    5    5    0    0  0.40417244165E+02 -0.41521183169E+02  0.46114749444E+01  0.10045113281E+03  0.81924368190E+02 0.  0.
          4    1    4    4  501    0 -0.52288470050E+02  0.85077388010E+01 -0.51774594220E+02  0.74074788737E+02  0.00000000000E+00 0. -1.
         -3    1    4    4    0  501 -0.19325631701E+02 -0.57930788540E+02 -0.19101050092E+02  0.63986767508E+02  0.00000000000E+00 0.  1.
          5    1    3    3  502    0  0.40517000902E+02  0.13989315205E+02  0.25545186071E+02  0.50119605279E+02  0.47000000000E+01 0. -1.
         13    1    6    6    0    0  0.58081710266E+02 -0.14884191972E+02  0.22239714480E+02  0.63950208274E+02  0.00000000000E+00 0. -1.
        -14    1    6    6    0    0 -0.17664466101E+02 -0.26636991197E+02 -0.17628239535E+02  0.36500924533E+02  0.00000000000E+00 0.  1.
         -5    1    5    5    0  503 -0.93201433157E+01  0.76954917703E+02  0.33029883954E+02  0.84391869657E+02  0.47000000000E+01 0.  1.
<mgrwt>
<rscale>  2 0.18222086E+03</rscale>
<asrwt>0</asrwt>
<pdfrwt beam="1">  1       21 0.28102697E-01 0.18263981E+03</pdfrwt>
<pdfrwt beam="2">  1       21 0.29285636E-01 0.18263981E+03</pdfrwt>
<totfact> 0.13555607E+05</totfact>
</mgrwt>
</event>
<event>
12    1  0.1473662E-001  0.2103503E+03  0.7546771E-02  0.1141338E+00
         21   -1    0    0  504  503  0.00000000000E+00  0.00000000000E+00  0.46207792836E+03  0.46207792836E+03  0.00000000000E+00 0.  1.
         21   -1    0    0  502  504 -0.00000000000E+00 -0.00000000000E+00 -0.10923705203E+03  0.10923705203E+03  0.00000000000E+00 0. -1.
          6    2    1    2  502    0  0.10389989657E+03  0.58826077044E+02  0.75564328899E+02  0.22327830595E+03  0.17288012684E+03 0.  0.
         24    2    3    3    0    0 -0.66754756524E+01  0.87989083816E+00  0.57358206347E+02  0.97031617532E+02  0.77973295316E+02 0.  0.
         -6    2    1    2    0  503 -0.10389989657E+03 -0.58826077044E+02  0.27727654743E+03  0.34803667444E+03  0.17318067777E+03 0.  0.
        -24    2    5    5    0    0 -0.11604847503E+03 -0.64834318216E+02  0.13712601905E+03  0.20715393055E+03  0.80240067716E+02 0.  0.
          4    1    4    4  501    0 -0.20432042223E+02 -0.25585277485E+02  0.58656576141E+02  0.67176399859E+02  0.00000000000E+00 0. -1.
         -3    1    4    4    0  501  0.13756566571E+02  0.26465168323E+02 -0.12983697944E+01  0.29855217673E+02  0.00000000000E+00 0.  1.
          5    1    3    3  502    0  0.11057537222E+03  0.57946186206E+02  0.18206122552E+02  0.12624668841E+03  0.47000000000E+01 0. -1.
         13    1    6    6    0    0 -0.50572354239E+02 -0.39999848414E+02  0.14728800567E+02  0.66139915728E+02  0.00000000000E+00 0. -1.
        -14    1    6    6    0    0 -0.65476120787E+02 -0.24834469802E+02  0.12239721848E+03  0.14101401482E+03  0.00000000000E+00 0.  1.
         -5    1    5    5    0  503  0.12148578460E+02  0.60082411717E+01  0.14015052838E+03  0.14088274389E+03  0.47000000000E+01 0.  1.
<mgrwt>
<rscale>  2 0.21028842E+03</rscale>
<asrwt>0</asrwt>
<pdfrwt beam="1">  1       21 0.71088911E-01 0.21035029E+03</pdfrwt>
<pdfrwt beam="2">  1       21 0.16805701E-01 0.21035029E+03</pdfrwt>
<totfact> 0.56583367E+04</totfact>
</mgrwt>
</event>
<event>
12    1  0.1473662E-001  0.2064988E+03  0.7546771E-02  0.1144433E+00
         21   -1    0    0  504  503  0.00000000000E+00  0.00000000000E+00  0.10114506693E+04  0.10114506693E+04  0.00000000000E+00 0. -1.
         21   -1    0    0  502  504 -0.00000000000E+00 -0.00000000000E+00 -0.71703153878E+02  0.71703153878E+02  0.00000000000E+00 0.  1.
          6    2    1    2  502    0  0.10305645074E+03  0.48294070817E+02  0.81810638570E+03  0.84376525341E+03  0.17230436798E+03 0.  0.
         24    2    3    3    0    0  0.29982997039E+02 -0.98357155200E+01  0.18633294110E+03  0.20511153112E+03  0.79718591609E+02 0.  0.
         -6    2    1    2    0  503 -0.10305645074E+03 -0.48294070817E+02  0.12164112977E+03  0.23938856982E+03  0.17192258023E+03 0.  0.
        -24    2    5    5    0    0 -0.34954427090E+02 -0.56559231387E+02  0.42273116353E+01  0.10332133205E+03  0.78972582990E+02 0.  0.
          4    1    4    4  501    0  0.33072954600E+02 -0.33445733522E+02  0.16961812577E+03  0.17601916375E+03  0.00000000000E+00 0. -1.
         -3    1    4    4    0  501 -0.30899575615E+01  0.23610018002E+02  0.16714815331E+02  0.29092367373E+02  0.00000000000E+00 0.  1.
          5    1    3    3  502    0  0.73073453704E+02  0.58129786337E+02  0.63177344460E+03  0.63865372229E+03  0.47000000000E+01 0. -1.
         13    1    6    6    0    0 -0.87657161048E+01  0.32877271872E+01  0.31253331509E+02  0.32625414316E+02  0.00000000000E+00 0. -1.
        -14    1    6    6    0    0 -0.26188710985E+02 -0.59846958575E+02 -0.27026019873E+02  0.70695917732E+02  0.00000000000E+00 0.  1.
         -5    1    5    5    0  503 -0.68102023652E+02  0.82651605700E+01  0.11741381814E+03  0.13606723777E+03  0.47000000000E+01 0.  1.
<mgrwt>
<rscale>  2 0.20641912E+03</rscale>
<asrwt>0</asrwt>
<pdfrwt beam="1">  1       21 0.15560778E+00 0.20649878E+03</pdfrwt>
<pdfrwt beam="2">  1       21 0.11031255E-01 0.20649878E+03</pdfrwt>
<totfact> 0.18319265E+04</totfact>
</mgrwt>
</event>
<event>
12    1  0.1473662E-001  0.2571678E+03  0.7546771E-02  0.1109625E+00
         21   -1    0    0  504  503  0.00000000000E+00  0.00000000000E+00  0.34564225436E+03  0.34564225436E+03  0.00000000000E+00 0.  1.
         21   -1    0    0  502  504 -0.00000000000E+00 -0.00000000000E+00 -0.41118116482E+03  0.41118116482E+03  0.00000000000E+00 0.  1.
          6    2    1    2  502    0  0.16849227551E+03  0.75458098903E+02 -0.31162712433E+03  0.40088148074E+03  0.17178744247E+03 0.  0.
         24    2    3    3    0    0  0.96169616639E+02  0.46924482029E+02 -0.91011079687E+02  0.16691938247E+03  0.90158535032E+02 0.  0.
         -6    2    1    2    0  503 -0.16849227551E+03 -0.75458098903E+02  0.24608821386E+03  0.35594193844E+03  0.17902983813E+03 0.  0.
        -24    2    5    5    0    0 -0.11762209932E+03  0.23442928516E+02  0.12480564357E+03  0.19131891482E+03  0.81498155525E+02 0.  0.
          2    1    4    4  501    0  0.68585387555E+02 -0.15747624453E+02 -0.35763176220E+02  0.78936353066E+02  0.00000000000E+00 0. -1.
         -1    1    4    4    0  501  0.27584229084E+02  0.62672106482E+02 -0.55247903467E+02  0.87983029401E+02  0.00000000000E+00 0.  1.
          5    1    3    3  502    0  0.72322658868E+02  0.28533616874E+02 -0.22061604464E+03  0.23396209828E+03  0.47000000000E+01 0. -1.
         11    1    6    6    0    0  0.79777751871E+01  0.17517561809E+02  0.15588669068E+02  0.24769264664E+02  0.00000000000E+00 0. -1.
        -12    1    6    6    0    0 -0.12559987451E+03  0.59253667065E+01  0.10921697451E+03  0.16654965016E+03  0.00000000000E+00 0.  1.
         -5    1    5    5    0  503 -0.50870176188E+02 -0.98901027419E+02  0.12128257029E+03  0.16462302362E+03  0.47000000000E+01 0.  1.
<mgrwt>
<rscale>  2 0.25591152E+03</rscale>
<asrwt>0</asrwt>
<pdfrwt beam="1">  1       21 0.53175731E-01 0.25716776E+03</pdfrwt>
<pdfrwt beam="2">  1       21 0.63258641E-01 0.25716776E+03</pdfrwt>
<totfact> 0.74268709E+03</totfact>
</mgrwt>
</event>
<event>
12    1  0.1473662E-001  0.1837983E+03  0.7546771E-02  0.1164767E+00
         21   -1    0    0  504  503  0.00000000000E+00  0.00000000000E+00  0.89120404904E+03  0.89120404904E+03  0.00000000000E+00 0. -1.
         21   -1    0    0  502  504 -0.00000000000E+00 -0.00000000000E+00 -0.46308416395E+02  0.46308416395E+02  0.00000000000E+00 0. -1.
          6    2    1    2  502    0 -0.54989264441E+02 -0.29748000018E+02  0.21446037443E+03  0.28083108224E+03  0.17018837166E+03 0.  0.
         24    2    3    3    0    0 -0.30695881185E+01 -0.54841770281E+02  0.19805822617E+03  0.22069398419E+03  0.80384896366E+02 0.  0.
         -6    2    1    2    0  503  0.54989264441E+02  0.29748000018E+02  0.63043525822E+03  0.65668138319E+03  0.17283825246E+03 0.  0.
        -24    2    5    5    0    0  0.55491346420E+02  0.25433845178E+02  0.63846931251E+03  0.64641006163E+03  0.80478163212E+02 0.  0.
          2    1    4    4  501    0  0.77793681281E+01  0.16006260836E+02  0.84909766498E+02  0.86754754343E+02  0.00000000000E+00 0. -1.
         -1    1    4    4    0  501 -0.10848956247E+02 -0.70848031117E+02  0.11314845967E+03  0.13393922984E+03  0.00000000000E+00 0.  1.
          5    1    3    3  502    0 -0.51919676323E+02  0.25093770263E+02  0.16402148257E+02  0.60137098059E+02  0.47000000000E+01 0. -1.
         11    1    6    6    0    0  0.23541416294E+02  0.46565217244E+02  0.50080194589E+03  0.50351276721E+03  0.00000000000E+00 0. -1.
        -12    1    6    6    0    0  0.31949930126E+02 -0.21131372066E+02  0.13766736661E+03  0.14289729441E+03  0.00000000000E+00 0.  1.
         -5    1    5    5    0  503 -0.50208197891E+00  0.43141548395E+01 -0.80340542889E+01  0.10271321561E+02  0.47000000000E+01 0.  1.
<mgrwt>
<rscale>  2 0.18317273E+03</rscale>
<asrwt>0</asrwt>
<pdfrwt beam="1">  1       21 0.13710830E+00 0.18379832E+03</pdfrwt>
<pdfrwt beam="2">  1       21 0.71243724E-02 0.18379832E+03</pdfrwt>
<totfact> 0.55665177E+04</totfact>
</mgrwt>
</event>
<event>
12    1  0.1473662E-001  0.1966605E+03  0.7546771E-02  0.1153318E+00
         21   -1    0    0  504  503  0.00000000000E+00  0.00000000000E+00  0.33793293741E+03  0.33793293741E+03  0.00000000000E+00 0. -1.
         21   -1    0    0  502  504 -0.00000000000E+00 -0.00000000000E+00 -0.12778666465E+03  0.12778666465E+03  0.00000000000E+00 0. -1.
          6    2    1    2  502    0 -0.15994440983E+02 -0.86737328577E+02  0.25337089282E+02  0.19828597641E+03  0.17577307540E+03 0.  0.
         24    2    3    3    0    0 -0.47080536064E+02 -0.14032914900E+01  0.47630961456E+02  0.10465184839E+03  0.80403698789E+02 0.  0.
         -6    2    1    2    0  503  0.15994440983E+02  0.86737328577E+02  0.18480918348E+03  0.26743362566E+03  0.17200907978E+03 0.  0.
        -24    2    5    5    0    0 -0.55282442087E+02  0.41782883969E+02  0.12526954704E+03  0.16414589910E+03  0.80308523715E+02 0.  0.
          4    1    4    4  501    0 -0.98731156137E+01 -0.31523569266E+02 -0.51086527830E+01  0.33426219716E+02  0.00000000000E+00 0. -1.
         -3    1    4    4    0  501 -0.37207420450E+02  0.30120277776E+02  0.52739614239E+02  0.71225628674E+02  0.00000000000E+00 0.  1.
          5    1    3    3  502    0  0.31086095081E+02 -0.85334037087E+02 -0.22293872173E+02  0.93634128016E+02  0.47000000000E+01 0. -1.
         13    1    6    6    0    0  0.11396679760E+02  0.36581487728E+02  0.35772576906E+02  0.52419145477E+02  0.00000000000E+00 0. -1.
        -14    1    6    6    0    0 -0.66679121847E+02  0.52013962410E+01  0.89496970133E+02  0.11172675363E+03  0.00000000000E+00 0.  1.
         -5    1    5    5    0  503  0.71276883070E+02  0.44954444607E+02  0.59539636437E+02  0.10328772656E+03  0.47000000000E+01 0.  1.
<mgrwt>
<rscale>  2 0.19581588E+03</rscale>
<asrwt>0</asrwt>
<pdfrwt beam="1">  1       21 0.51989682E-01 0.19666052E+03</pdfrwt>
<pdfrwt beam="2">  1       21 0.19659487E-01 0.19666052E+03</pdfrwt>
<totfact> 0.83562923E+04</totfact>
</mgrwt>
</event>
<event>
12    1  0.1473662E-001  0.1923579E+03  0.7546771E-02  0.1156494E+00
         21   -1    0    0  504  503  0.00000000000E+00  0.00000000000E+00  0.57245359584E+02  0.57245359584E+02  0.00000000000E+00 0. -1.
         21   -1    0    0  502  504 -0.00000000000E+00 -0.00000000000E+00 -0.69176428146E+03  0.69176428146E+03  0.00000000000E+00 0. -1.
          6    2    1    2  502    0  0.81817597415E+02 -0.14809065319E+01 -0.41494789415E+03  0.45709697310E+03  0.17337697549E+03 0.  0.
         24    2    3    3    0    0 -0.16759548991E+02  0.29996745266E+02 -0.19208939385E+03  0.21134039128E+03  0.81152563397E+02 0.  0.
         -6    2    1    2    0  503 -0.81817597415E+02  0.14809065319E+01 -0.21957102773E+03  0.29191266794E+03  0.17408405199E+03 0.  0.
        -24    2    5    5    0    0 -0.38766515228E+02  0.54302552322E+02 -0.62493674175E+02  0.12062662957E+03  0.78700156025E+02 0.  0.
          4    1    4    4  501    0 -0.97403662551E+01  0.51143167003E+02 -0.70019972162E+02  0.87254196274E+02  0.00000000000E+00 0. -1.
         -3    1    4    4    0  501 -0.70191827355E+01 -0.21146421737E+02 -0.12206942169E+03  0.12408619500E+03  0.00000000000E+00 0.  1.
          5    1    3    3  502    0  0.98577146405E+02 -0.31477651798E+02 -0.22285850029E+03  0.24575658182E+03  0.47000000000E+01 0. -1.
         13    1    6    6    0    0 -0.46079367419E+02  0.63117690066E+02 -0.71603807728E+02  0.10599177412E+03  0.00000000000E+00 0. -1.
        -14    1    6    6    0    0  0.73128521906E+01 -0.88151377447E+01  0.91101335523E+01  0.14634855447E+02  0.00000000000E+00 0.  1.
         -5    1    5    5    0  503 -0.43051082186E+02 -0.52821645790E+02 -0.15707735355E+03  0.17128603837E+03  0.47000000000E+01 0.  1.
<mgrwt>
<rscale>  2 0.19219780E+03</rscale>
<asrwt>0</asrwt>
<pdfrwt beam="1">  1       21 0.88069784E-02 0.19235792E+03</pdfrwt>
<pdfrwt beam="2">  1       21 0.10642527E+00 0.19235792E+03</pdfrwt>
<totfact> 0.71781296E+04</totfact>
</mgrwt>
</event>
<event>
12    1  0.1473662E-001  0.2461087E+03  0.7546771E-02  0.1115803E+00
         21   -1    0    0  504  503  0.00000000000E+00  0.00000000000E+00  0.77605687600E+02  0.77605687600E+02  0.00000000000E+00 0. -1.
         21   -1    0    0  502  504 -0.00000000000E+00 -0.00000000000E+00 -0.95556304601E+03  0.95556304601E+03  0.00000000000E+00 0.  1.
          6    2    1    2  502    0  0.17376409008E+03 -0.23423695410E+02 -0.66034227621E+03  0.70471372699E+03  0.17270462282E+03 0.  0.
         24    2    3    3    0    0  0.81468732182E+02 -0.62624996704E+02 -0.47278506236E+03  0.49198156303E+03  0.89224988864E+02 0.  0.
         -6    2    1    2    0  503 -0.17376409008E+03  0.23423695410E+02 -0.21761508219E+03  0.32845500662E+03  0.17257965948E+03 0.  0.
        -24    2    5    5    0    0 -0.70921037595E+02 -0.46239887234E+02 -0.73311938142E+02  0.13799452365E+03  0.80622128089E+02 0.  0.
          4    1    4    4  501    0 -0.19163928093E+02 -0.15804713930E+02 -0.75328973183E+02  0.79318972026E+02  0.00000000000E+00 0. -1.
         -3    1    4    4    0  501  0.10063266027E+03 -0.46820282774E+02 -0.39745608917E+03  0.41266259100E+03  0.00000000000E+00 0.  1.
          5    1    3    3  502    0  0.92295357896E+02  0.39201301294E+02 -0.18755721386E+03  0.21273216396E+03  0.47000000000E+01 0. -1.
         11    1    6    6    0    0  0.16208959796E+02  0.29998424026E+01 -0.68223267077E+01  0.17840223480E+02  0.00000000000E+00 0. -1.
        -12    1    6    6    0    0 -0.87129997391E+02 -0.49239729636E+02 -0.66489611434E+02  0.12015430017E+03  0.00000000000E+00 0.  1.
         -5    1    5    5    0  503 -0.10284305248E+03  0.69663582644E+02 -0.14430314405E+03  0.19046048297E+03  0.47000000000E+01 0.  1.
<mgrwt>
<rscale>  2 0.24608682E+03</rscale>
<asrwt>0</asrwt>
<pdfrwt beam="1">  1       21 0.11939337E-01 0.24610875E+03</pdfrwt>
<pdfrwt beam="2">  1       21 0.14700970E+00 0.24610875E+03</pdfrwt>
<totfact> 0.18048833E+04</totfact>
</mgrwt>
</event>
<event>
12    1  0.1473662E-001  0.2089174E+03  0.7546771E-02  0.1142456E+00
         21   -1    0    0  504  503  0.00000000000E+00  0.00000000000E+00  0.16754198937E+03  0.16754198937E+03  0.00000000000E+00 0.  1.
         21   -1    0    0  502  504 -0.00000000000E+00 -0.00000000000E+00 -0.53013963932E+03  0.53013963932E+03  0.00000000000E+00 0.  1.
          6    2    1    2  502    0 -0.10173219079E+03  0.56979167650E+02 -0.43013381258E+03  0.47811926704E+03  0.17316718109E+03 0.  0.
         24    2    3    3    0    0 -0.12987935283E+03  0.17737045379E+02 -0.27111587746E+03  0.31186343833E+03  0.81066245043E+02 0.  0.
         -6    2    1    2    0  503  0.10173219079E+03 -0.56979167650E+02  0.67536162626E+02  0.21956236165E+03  0.17335060774E+03 0.  0.
        -24    2    5    5    0    0  0.10179430271E+03 -0.21604927879E+02 -0.12781582608E+02  0.13167396141E+03  0.79660594315E+02 0.  0.
          4    1    4    4  501    0 -0.73995647994E+02 -0.21459250500E+02 -0.90926712106E+02  0.11917853132E+03  0.00000000000E+00 0. -1.
         -3    1    4    4    0  501 -0.55883704836E+02  0.39196295879E+02 -0.18018916535E+03  0.19268490700E+03  0.00000000000E+00 0.  1.
          5    1    3    3  502    0  0.28147162044E+02  0.39242122271E+02 -0.15901793512E+03  0.16625582871E+03  0.47000000000E+01 0. -1.
         13    1    6    6    0    0  0.58642110818E+02 -0.51907406994E+02 -0.69311682097E+01  0.78621353047E+02  0.00000000000E+00 0. -1.
        -14    1    6    6    0    0  0.43152191890E+02  0.30302479115E+02 -0.58504143980E+01  0.53052608362E+02  0.00000000000E+00 0.  1.
         -5    1    5    5    0  503 -0.62111921465E-01 -0.35374239771E+02  0.80317745234E+02  0.87888400240E+02  0.47000000000E+01 0.  1.
<mgrwt>
<rscale>  2 0.20887939E+03</rscale>
<asrwt>0</asrwt>
<pdfrwt beam="1">  1       21 0.25775691E-01 0.20891744E+03</pdfrwt>
<pdfrwt beam="2">  1       21 0.81559944E-01 0.20891744E+03</pdfrwt>
<totfact> 0.18622535E+04</totfact>
</mgrwt>
</event>
<event>
12    1  0.1473662E-001  0.2164005E+03  0.7546771E-02  0.1137245E+00
         21   -1    0    0  504  503  0.00000000000E+00  0.00000000000E+00  0.77093936427E+02  0.77093936427E+02  0.00000000000E+00 0. -1.
         21   -1    0    0  502  504 -0.00000000000E+00 -0.00000000000E+00 -0.61250754552E+03  0.61250754552E+03  0.00000000000E+00 0.  1.
          6    2    1    2  502    0  0.12656551832E+03 -0.75414061735E+01 -0.21666021610E+03  0.30622022193E+03  0.17536667827E+03 0.  0.
         24    2    3    3    0    0  0.49959306227E+02  0.34439455779E+02 -0.18889599443E+03  0.21443870688E+03  0.81364942710E+02 0.  0.
         -6    2    1    2    0  503 -0.12656551832E+03  0.75414061735E+01 -0.31875339300E+03  0.38338126002E+03  0.17117757373E+03 0.  0.
        -24    2    5    5    0    0  0.10237677713E+01  0.36375898619E+01 -0.16307577216E+03  0.18200629301E+03  0.80736008503E+02 0.  0.
          4    1    4    4  501    0  0.42084589926E+02  0.60023259790E+02 -0.12123570920E+03  0.14167569167E+03  0.00000000000E+00 0. -1.
         -3    1    4    4    0  501  0.78747163010E+01 -0.25583804011E+02 -0.67660285234E+02  0.72763015210E+02  0.00000000000E+00 0.  1.
          5    1    3    3  502    0  0.76606212091E+02 -0.41980861952E+02 -0.27764221663E+02  0.91781515054E+02  0.47000000000E+01 0. -1.
         11    1    6    6    0    0  0.16086215567E+02  0.10760487208E+00  0.19970914668E+01  0.16210067378E+02  0.00000000000E+00 0. -1.
        -12    1    6    6    0    0 -0.15062447796E+02  0.35299849898E+01 -0.16507286362E+03  0.16579622563E+03  0.00000000000E+00 0.  1.
         -5    1    5    5    0  503 -0.12758928609E+03  0.39038163116E+01 -0.15567762084E+03  0.20137496701E+03  0.47000000000E+01 0.  1.
<mgrwt>
<rscale>  2 0.21555034E+03</rscale>
<asrwt>0</asrwt>
<pdfrwt beam="1">  1       21 0.11860606E-01 0.21640050E+03</pdfrwt>
<pdfrwt beam="2">  1       21 0.94231929E-01 0.21640050E+03</pdfrwt>
<totfact> 0.55923718E+04</totfact>
</mgrwt>
</event>
<event>
12    1  0.1473662E-001  0.2378100E+03  0.7546771E-02  0.1121403E+00
         21   -1    0    0  504  503  0.00000000000E+00  0.00000000000E+00  0.45416012520E+02  0.45416012520E+02  0.00000000000E+00 0.  1.
         21   -1    0    0  502  504 -0.00000000000E+00 -0.00000000000E+00 -0.18870443548E+04  0.18870443548E+04  0.00000000000E+00 0. -1.
          6    2    1    2  502    0  0.15084485868E+03 -0.65034602686E+02 -0.14851723507E+04  0.15039577536E+04  0.17078741890E+03 0.  0.
         24    2    3    3    0    0  0.16249190070E+03 -0.88557514370E+02 -0.14027245369E+04  0.14173049235E+04  0.82891909755E+02 0.  0.
         -6    2    1    2    0  503 -0.15084485868E+03  0.65034602686E+02 -0.35645599154E+03  0.42850261366E+03  0.17195913780E+03 0.  0.
        -24    2    5    5    0    0 -0.14441205021E+03  0.56726644463E+02 -0.37088717860E+03  0.41004313493E+03  0.80655569033E+02 0.  0.
          2    1    4    4  501    0  0.59199345967E+02 -0.46668557895E+02 -0.85728420475E+03  0.86059207791E+03  0.00000000000E+00 0. -1.
         -1    1    4    4    0  501  0.10329255473E+03 -0.41888956475E+02 -0.54544033216E+03  0.55671284563E+03  0.00000000000E+00 0.  1.
          5    1    3    3  502    0 -0.11647042018E+02  0.23522911683E+02 -0.82447813795E+02  0.86652830083E+02  0.47000000000E+01 0. -1.
         11    1    6    6    0    0 -0.45540567554E+01  0.31889715076E+02 -0.82645139720E+02  0.88701254105E+02  0.00000000000E+00 0. -1.
        -12    1    6    6    0    0 -0.13985799345E+03  0.24836929387E+02 -0.28824203889E+03  0.32134188083E+03  0.00000000000E+00 0.  1.
         -5    1    5    5    0  503 -0.64328084701E+01  0.83079582233E+01  0.14431187066E+02  0.18459478725E+02  0.47000000000E+01 0.  1.
<mgrwt>
<rscale>  2 0.23759829E+03</rscale>
<asrwt>0</asrwt>
<pdfrwt beam="1">  1       21 0.69870778E-02 0.23781004E+03</pdfrwt>
<pdfrwt beam="2">  1       21 0.29031456E+00 0.23781004E+03</pdfrwt>
<totfact> 0.56236622E+03</totfact>
</mgrwt>
</event>
<event>
12    1  0.1473662E-001  0.2079911E+03  0.7546771E-02  0.1144005E+00
         21   -1    0    0  504  503  0.00000000000E+00  0.00000000000E+00  0.40216005052E+03  0.40216005052E+03  0.00000000000E+00 0.  1.
         21   -1    0    0  502  504 -0.00000000000E+00 -0.00000000000E+00 -0.11277878921E+03  0.11277878921E+03  0.00000000000E+00 0. -1.
          6    2    1    2  502    0 -0.63868618137E+02 -0.85509705393E+02  0.80382127798E+02  0.22298338204E+03  0.17851944459E+03 0.  0.
         24    2    3    3    0    0 -0.36681743347E+02 -0.81998198494E+02  0.12183489567E+03  0.17306466004E+03  0.83895052888E+02 0.  0.
         -6    2    1    2    0  503  0.63868618137E+02  0.85509705393E+02  0.20899913351E+03  0.29195545770E+03  0.17368431527E+03 0.  0.
        -24    2    5    5    0    0 -0.31225416160E+02  0.27838223851E+02  0.81632235599E+02  0.12280081890E+03  0.81646958992E+02 0.  0.
          2    1    4    4  501    0 -0.56562729254E+02 -0.33807451319E+02  0.43464121284E+02  0.78939318114E+02  0.00000000000E+00 0. -1.
         -1    1    4    4    0  501  0.19880985907E+02 -0.48190747175E+02  0.78370774389E+02  0.94125341923E+02  0.00000000000E+00 0.  1.
          5    1    3    3  502    0 -0.27186874790E+02 -0.35115068995E+01 -0.41452767875E+02  0.49918721999E+02  0.47000000000E+01 0. -1.
         11    1    6    6    0    0  0.17653725523E+02  0.34724435662E+02  0.19848136404E+02  0.43719434758E+02  0.00000000000E+00 0. -1.
        -12    1    6    6    0    0 -0.48879141683E+02 -0.68862118105E+01  0.61784099196E+02  0.79081384144E+02  0.00000000000E+00 0.  1.
         -5    1    5    5    0  503  0.95094034297E+02  0.57671481542E+02  0.12736689791E+03  0.16915463879E+03  0.47000000000E+01 0.  1.
<mgrwt>
<rscale>  2 0.20694959E+03</rscale>
<asrwt>0</asrwt>
<pdfrwt beam="1">  1       21 0.61870776E-01 0.20799111E+03</pdfrwt>
<pdfrwt beam="2">  1       21 0.17350583E-01 0.20799111E+03</pdfrwt>
<totfact> 0.72380110E+04</totfact>
</mgrwt>
</event>
<event>
12    1  0.1473662E-001  0.1827159E+03  0.7546771E-02  0.1165352E+00
         21   -1    0    0  504  503  0.00000000000E+00  0.00000000000E+00  0.68279419267E+02  0.68279419267E+02  0.00000000000E+00 0. -1.
         21   -1    0    0  502  504 -0.00000000000E+00 -0.00000000000E+00 -0.49417669419E+03  0.49417669419E+03  0.00000000000E+00 0. -1.
          6    2    1    2  502    0  0.36091087715E+01  0.68347861220E+02 -0.24662648629E+03  0.30693604974E+03  0.16941268869E+03 0.  0.
         24    2    3    3    0    0 -0.38920003160E+01 -0.22151180216E+02 -0.16428439840E+03  0.18426310008E+03  0.80359840986E+02 0.  0.
         -6    2    1    2    0  503 -0.36091087715E+01 -0.68347861220E+02 -0.17927078863E+03  0.25552006372E+03  0.16872472109E+03 0.  0.
        -24    2    5    5    0    0 -0.27226078924E+01 -0.59827710854E+02 -0.27111821859E+02  0.10304770552E+03  0.79353709102E+02 0.  0.
          2    1    4    4  501    0 -0.33796025901E+02 -0.25334066662E+02 -0.47024537223E+02  0.63208333322E+02  0.00000000000E+00 0. -1.
         -1    1    4    4    0  501  0.29904025585E+02  0.31828864456E+01 -0.11725986118E+03  0.12105476676E+03  0.00000000000E+00 0.  1.
          5    1    3    3  502    0  0.75011090874E+01  0.90499041436E+02 -0.82342087889E+02  0.12267294965E+03  0.47000000000E+01 0. -1.
         13    1    6    6    0    0  0.75575045417E+00 -0.55696593301E+02 -0.52828952913E+02  0.76769655007E+02  0.00000000000E+00 0. -1.
        -14    1    6    6    0    0 -0.34783583466E+01 -0.41311175539E+01  0.25717131054E+02  0.26278050511E+02  0.00000000000E+00 0.  1.
         -5    1    5    5    0  503 -0.88650087907E+00 -0.85201503654E+01 -0.15215896678E+03  0.15247235820E+03  0.47000000000E+01 0.  1.
<mgrwt>
<rscale>  2 0.18255631E+03</rscale>
<asrwt>0</asrwt>
<pdfrwt beam="1">  1       21 0.10504526E-01 0.18271594E+03</pdfrwt>
<pdfrwt beam="2">  1       21 0.76027181E-01 0.18271594E+03</pdfrwt>
<totfact> 0.11513602E+05</totfact>
</mgrwt>
</event>
<event>
12    1  0.1473662E-001  0.1749142E+03  0.7546771E-02  0.1172835E+00
         21   -1    0    0  504  503  0.00000000000E+00  0.00000000000E+00  0.11658325058E+03  0.11658325058E+03  0.00000000000E+00 0. -1.
         21   -1    0    0  502  504 -0.00000000000E+00 -0.00000000000E+00 -0.32281137520E+03  0.32281137520E+03  0.00000000000E+00 0. -1.
          6    2    1    2  502    0  0.20268335974E+02  0.77333279032E+00 -0.19823007699E+03  0.26436742139E+03  0.17373418369E+03 0.  0.
         24    2    3    3    0    0  0.55600681443E+02 -0.36109257223E+02 -0.18406249858E+03  0.21115548325E+03  0.79450113205E+02 0.  0.
         -6    2    1    2    0  503 -0.20268335974E+02 -0.77333279032E+00 -0.79980476231E+01  0.17502720439E+03  0.17366389960E+03 0.  0.
        -24    2    5    5    0    0  0.44153035686E+02 -0.28991539098E+02  0.21360510555E+02  0.98670179616E+02  0.80557637967E+02 0.  0.
          4    1    4    4  501    0  0.31424920654E+02  0.21763748842E+02 -0.93335247459E+02  0.10085957971E+03  0.00000000000E+00 0. -1.
         -3    1    4    4    0  501  0.24175760789E+02 -0.57873006065E+02 -0.90727251126E+02  0.11029590354E+03  0.00000000000E+00 0.  1.
          5    1    3    3  502    0 -0.35332345469E+02  0.36882590013E+02 -0.14167578409E+02  0.53211938138E+02  0.47000000000E+01 0. -1.
         11    1    6    6    0    0  0.14453753312E+02 -0.17004192695E+01  0.48115898137E+02  0.50268698651E+02  0.00000000000E+00 0. -1.
        -12    1    6    6    0    0  0.29699282373E+02 -0.27291119828E+02 -0.26755387582E+02  0.48401480966E+02  0.00000000000E+00 0.  1.
         -5    1    5    5    0  503 -0.64421371660E+02  0.28218206307E+02 -0.29358558178E+02  0.76357024772E+02  0.47000000000E+01 0.  1.
<mgrwt>
<rscale>  2 0.17489672E+03</rscale>
<asrwt>0</asrwt>
<pdfrwt beam="1">  1       21 0.17935885E-01 0.17491418E+03</pdfrwt>
<pdfrwt beam="2">  1       21 0.49663288E-01 0.17491418E+03</pdfrwt>
<totfact> 0.10993463E+05</totfact>
</mgrwt>
</event>
<event>
12    1  0.1473662E-001  0.1998152E+03  0.7546771E-02  0.1150022E+00
         21   -1    0    0  504  503  0.00000000000E+00  0.00000000000E+00  0.96088254230E+02  0.96088254230E+02  0.00000000000E+00 0. -1.
         21   -1    0    0  502  504 -0.00000000000E+00 -0.00000000000E+00 -0.44430362872E+03  0.44430362872E+03  0.00000000000E+00 0.  1.
          6    2    1    2  502    0  0.98996842713E+02  0.19840250519E+02 -0.24411492990E+03  0.31508537474E+03  0.17173434126E+03 0.  0.
         24    2    3    3    0    0  0.76057237413E+02 -0.35341240866E+02 -0.84671930264E+02  0.14474635216E+03  0.82149035413E+02 0.  0.
         -6    2    1    2    0  503 -0.98996842713E+02 -0.19840250519E+02 -0.10410044459E+03  0.22530650821E+03  0.17243001383E+03 0.  0.
        -24    2    5    5    0    0 -0.71050203564E+02  0.10577081722E+02 -0.13527215988E+03  0.17334503619E+03  0.81178434638E+02 0.  0.
          4    1    4    4  501    0  0.25328922328E+02 -0.19102691539E+02  0.12367190039E+02  0.34050176502E+02  0.00000000000E+00 0. -1.
         -3    1    4    4    0  501  0.50728315085E+02 -0.16238549326E+02 -0.97039120303E+02  0.11069617566E+03  0.00000000000E+00 0.  1.
          5    1    3    3  502    0  0.22939605300E+02  0.55181491384E+02 -0.15944299963E+03  0.17033902258E+03  0.47000000000E+01 0. -1.
         11    1    6    6    0    0 -0.10456956493E+02 -0.21029425823E+02 -0.19986434225E+01  0.23570728989E+02  0.00000000000E+00 0. -1.
        -12    1    6    6    0    0 -0.60593247071E+02  0.31606507545E+02 -0.13327351646E+03  0.14977430720E+03  0.00000000000E+00 0.  1.
         -5    1    5    5    0  503 -0.27946639149E+02 -0.30417332241E+02  0.31171715285E+02  0.51961472017E+02  0.47000000000E+01 0.  1.
<mgrwt>
<rscale>  2 0.19966504E+03</rscale>
<asrwt>0</asrwt>
<pdfrwt beam="1">  1       21 0.14782808E-01 0.19981521E+03</pdfrwt>
<pdfrwt beam="2">  1       21 0.68354405E-01 0.19981521E+03</pdfrwt>
<totfact> 0.78404558E+04</totfact>
</mgrwt>
</event>
<event>
12    1  0.1473662E-001  0.2351582E+03  0.7546771E-02  0.1123088E+00
         21   -1    0    0  504  503  0.00000000000E+00  0.00000000000E+00  0.38123490082E+02  0.38123490082E+02  0.00000000000E+00 0. -1.
         21   -1    0    0  502  504 -0.00000000000E+00 -0.00000000000E+00 -0.18442656172E+04  0.18442656172E+04  0.00000000000E+00 0. -1.
          6    2    1    2  502    0 -0.14368140749E+03  0.68754869514E+02 -0.13387163288E+04  0.13592132927E+04  0.17299649484E+03 0.  0.
         24    2    3    3    0    0 -0.89650851320E+01  0.61407428318E+02 -0.59004430823E+03  0.59846737143E+03  0.78483526880E+02 0.  0.
         -6    2    1    2    0  503  0.14368140749E+03 -0.68754869514E+02 -0.46742579839E+03  0.52317581461E+03  0.17278448152E+03 0.  0.
        -24    2    5    5    0    0  0.10884898282E+03  0.89230048253E+01 -0.20244471687E+03  0.24481595124E+03  0.83804925390E+02 0.  0.
          4    1    4    4  501    0 -0.98225607655E+01  0.74877476313E+02 -0.35051405828E+03  0.35855714218E+03  0.00000000000E+00 0. -1.
         -3    1    4    4    0  501  0.85747563347E+00 -0.13470047995E+02 -0.23953024995E+03  0.23991022925E+03  0.00000000000E+00 0.  1.
          5    1    3    3  502    0 -0.13471632236E+03  0.73474411965E+01 -0.74867202053E+03  0.76074592126E+03  0.47000000000E+01 0. -1.
         13    1    6    6    0    0  0.95254713652E+02  0.38247558578E+02 -0.17263436347E+03  0.20084561150E+03  0.00000000000E+00 0. -1.
        -14    1    6    6    0    0  0.13594269165E+02 -0.29324553753E+02 -0.29810353399E+02  0.43970339738E+02  0.00000000000E+00 0.  1.
         -5    1    5    5    0  503  0.34832424671E+02 -0.77677874340E+02 -0.26498108152E+03  0.27835986337E+03  0.47000000000E+01 0.  1.
<mgrwt>
<rscale>  2 0.23511918E+03</rscale>
<asrwt>0</asrwt>
<pdfrwt beam="1">  1       21 0.58651512E-02 0.23515817E+03</pdfrwt>
<pdfrwt beam="2">  1       21 0.28373323E+00 0.23515817E+03</pdfrwt>
<totfact> 0.83290980E+03</totfact>
</mgrwt>
</event>
<event>
12    1  0.1473662E-001  0.1778244E+03  0.7546771E-02  0.1170730E+00
         21   -1    0    0  504  503  0.00000000000E+00  0.00000000000E+00  0.79597829698E+02  0.79597829698E+02  0.00000000000E+00 0.  1.
         21   -1    0    0  502  504 -0.00000000000E+00 -0.00000000000E+00 -0.10858870016E+04  0.10858870016E+04  0.00000000000E+00 0.  1.
          6    2    1    2  502    0 -0.23901377145E+02 -0.22627813765E+02 -0.96795780625E+03  0.98357601941E+03  0.17145313499E+03 0.  0.
         24    2    3    3    0    0  0.49284957510E+02 -0.20572815833E+02 -0.66218945003E+03  0.66912913954E+03  0.79916768341E+02 0.  0.
         -6    2    1    2    0  503  0.23901377145E+02  0.22627813765E+02 -0.38331365638E+02  0.18190881187E+03  0.17475190545E+03 0.  0.
        -24    2    5    5    0    0  0.27950922434E+02  0.46355625601E+02 -0.76348561566E+02  0.13666718217E+03  0.99592759478E+02 0.  0.
          2    1    4    4  501    0  0.44866811077E+02 -0.22002316806E+02 -0.17703600620E+03  0.18395347284E+03  0.00000000000E+00 0. -1.
         -1    1    4    4    0  501  0.44181464330E+01  0.14295009729E+01 -0.48515344384E+03  0.48517566670E+03  0.00000000000E+00 0.  1.
          5    1    3    3  502    0 -0.73186334655E+02 -0.20549979317E+01 -0.30576835621E+03  0.31444687987E+03  0.47000000000E+01 0. -1.
         13    1    6    6    0    0 -0.18207767087E+02 -0.17238478149E+02  0.26850241704E+01  0.25217003509E+02  0.00000000000E+00 0. -1.
        -14    1    6    6    0    0  0.46158689522E+02  0.63594103749E+02 -0.79033585736E+02  0.11145017866E+03  0.00000000000E+00 0.  1.
         -5    1    5    5    0  503 -0.40495452894E+01 -0.23727811836E+02  0.38017195927E+02  0.45241629698E+02  0.47000000000E+01 0.  1.
<mgrwt>
<rscale>  2 0.17700864E+03</rscale>
<asrwt>0</asrwt>
<pdfrwt beam="1">  1       21 0.12245821E-01 0.17782441E+03</pdfrwt>
<pdfrwt beam="2">  1       21 0.16705953E+00 0.17782441E+03</pdfrwt>
<totfact> 0.12812156E+04</totfact>
</mgrwt>
</event>
<event>
12    1  0.1473662E-001  0.1873657E+03  0.7546771E-02  0.1161269E+00
         21   -1    0    0  504  503  0.00000000000E+00  0.00000000000E+00  0.27783441242E+02  0.27783441242E+02  0.00000000000E+00 0.  1.
         21   -1    0    0  502  504 -0.00000000000E+00 -0.00000000000E+00 -0.19304597921E+04  0.19304597921E+04  0.00000000000E+00 0.  1.
          6    2    1    2  502    0  0.71560549212E+02 -0.10848198792E+02 -0.15348871381E+04  0.15462808397E+04  0.17282162219E+03 0.  0.
         24    2    3    3    0    0  0.16622290704E+02  0.31176207084E+02 -0.12482074643E+04  0.12513374752E+04  0.81088509912E+02 0.  0.
         -6    2    1    2    0  503 -0.71560549212E+02  0.10848198792E+02 -0.36778921274E+03  0.41196239356E+03  0.17089620557E+03 0.  0.
        -24    2    5    5    0    0 -0.39353305793E+02 -0.30110851688E+02 -0.33924785041E+03  0.35236667468E+03  0.81350005250E+02 0.  0.
          2    1    4    4  501    0  0.87029326855E+01  0.57504749479E+02 -0.68720040294E+03  0.68965711122E+03  0.00000000000E+00 0. -1.
         -1    1    4    4    0  501  0.79193580185E+01 -0.26328542395E+02 -0.56100706136E+03  0.56168036397E+03  0.00000000000E+00 0.  1.
          5    1    3    3  502    0  0.54938258508E+02 -0.42024405876E+02 -0.28667967376E+03  0.29494336454E+03  0.47000000000E+01 0. -1.
         11    1    6    6    0    0  0.38387672378E+01 -0.36324848429E+02 -0.64074072766E+02  0.73754440870E+02  0.00000000000E+00 0. -1.
        -12    1    6    6    0    0 -0.43192073031E+02  0.62139967405E+01 -0.27517377764E+03  0.27861223381E+03  0.00000000000E+00 0.  1.
         -5    1    5    5    0  503 -0.32207243419E+02  0.40959050480E+02 -0.28541362336E+02  0.59595718880E+02  0.47000000000E+01 0.  1.
<mgrwt>
<rscale>  2 0.18692051E+03</rscale>
<asrwt>0</asrwt>
<pdfrwt beam="1">  1       21 0.42743762E-02 0.18736571E+03</pdfrwt>
<pdfrwt beam="2">  1       21 0.29699377E+00 0.18736571E+03</pdfrwt>
<totfact> 0.12522240E+04</totfact>
</mgrwt>
</event>
<event>
12    1  0.1473662E-001  0.2001190E+03  0.7546771E-02  0.1152361E+00
         21   -1    0    0  504  503  0.00000000000E+00  0.00000000000E+00  0.16997299249E+03  0.16997299249E+03  0.00000000000E+00 0.  1.
         21   -1    0    0  502  504 -0.00000000000E+00 -0.00000000000E+00 -0.26339948446E+03  0.26339948446E+03  0.00000000000E+00 0.  1.
          6    2    1    2  502    0  0.75574170892E+02 -0.66287843546E+02 -0.13472223772E+03  0.24124197059E+03  0.17303778065E+03 0.  0.
         24    2    3    3    0    0  0.10253598074E+03 -0.44159346680E+02 -0.49721861471E+02  0.14924325578E+03  0.85659854326E+02 0.  0.
         -6    2    1    2    0  503 -0.75574170892E+02  0.66287843546E+02  0.41295745749E+02  0.19213050636E+03  0.15844008125E+03 0.  0.
        -24    2    5    5    0    0 -0.31936483705E+02  0.25114952787E+02  0.80321970925E+02  0.12040470257E+03  0.79968578479E+02 0.  0.
          2    1    4    4  501    0  0.80234240385E+02 -0.18538634245E+02  0.75106229204E+01  0.82689925302E+02  0.00000000000E+00 0. -1.
         -1    1    4    4    0  501  0.22301740355E+02 -0.25620712435E+02 -0.57232484391E+02  0.66553330481E+02  0.00000000000E+00 0.  1.
          5    1    3    3  502    0 -0.26961809848E+02 -0.22128496866E+02 -0.85000376252E+02  0.91998714810E+02  0.47000000000E+01 0. -1.
         13    1    6    6    0    0  0.19867068545E+02 -0.32186425638E+01 -0.71417105198E+00  0.20138771383E+02  0.00000000000E+00 0. -1.
        -14    1    6    6    0    0 -0.51803552250E+02  0.28333595351E+02  0.81036141977E+02  0.10026593119E+03  0.00000000000E+00 0.  1.
         -5    1    5    5    0  503 -0.43637687187E+02  0.41172890759E+02 -0.39026225176E+02  0.71725803781E+02  0.47000000000E+01 0.  1.
<mgrwt>
<rscale>  2 0.19692353E+03</rscale>
<asrwt>0</asrwt>
<pdfrwt beam="1">  1       21 0.26149691E-01 0.20011898E+03</pdfrwt>
<pdfrwt beam="2">  1       21 0.40522997E-01 0.20011898E+03</pdfrwt>
<totfact> 0.81284280E+04</totfact>
</mgrwt>
</event>
<event>
12    1  0.1473662E-001  0.1823924E+03  0.7546771E-02  0.1165938E+00
         21   -1    0    0  504  503  0.00000000000E+00  0.00000000000E+00  0.32528332823E+03  0.32528332823E+03  0.00000000000E+00 0. -1.
         21   -1    0    0  502  504 -0.00000000000E+00 -0.00000000000E+00 -0.13090393216E+03  0.13090393216E+03  0.00000000000E+00 0. -1.
          6    2    1    2  502    0  0.53984538643E+02 -0.20273353312E+02 -0.11719976251E+02  0.18097110838E+03  0.17113691875E+03 0.  0.
         24    2    3    3    0    0 -0.41814219273E+01 -0.15664696272E+02  0.47023066602E+02  0.98041296054E+02  0.84487040075E+02 0.  0.
         -6    2    1    2    0  503 -0.53984538643E+02  0.20273353312E+02  0.20609937231E+03  0.27521615201E+03  0.17303652734E+03 0.  0.
        -24    2    5    5    0    0 -0.51985977886E+02  0.48440739187E+02  0.21917046606E+03  0.24374649418E+03  0.79546295471E+02 0.  0.
          2    1    4    4  501    0  0.33432667043E+02 -0.30819052120E+02  0.25439548382E+02  0.52103050017E+02  0.00000000000E+00 0. -1.
         -1    1    4    4    0  501 -0.37614088970E+02  0.15154355847E+02  0.21583518220E+02  0.45938246037E+02  0.00000000000E+00 0.  1.
          5    1    3    3  502    0  0.58165960570E+02 -0.46086570399E+01 -0.58743042852E+02  0.82929812325E+02  0.47000000000E+01 0. -1.
         11    1    6    6    0    0 -0.14669641497E+02  0.15211950900E+02  0.17730289254E+03  0.17855788287E+03  0.00000000000E+00 0. -1.
        -12    1    6    6    0    0 -0.37316336388E+02  0.33228788287E+02  0.41867573523E+02  0.65188611315E+02  0.00000000000E+00 0.  1.
         -5    1    5    5    0  503 -0.19985607572E+01 -0.28167385875E+02 -0.13071093746E+02  0.31469657829E+02  0.47000000000E+01 0.  1.
<mgrwt>
<rscale>  2 0.18194041E+03</rscale>
<asrwt>0</asrwt>
<pdfrwt beam="1">  1       21 0.50043589E-01 0.18239238E+03</pdfrwt>
<pdfrwt beam="2">  1       21 0.20139067E-01 0.18239238E+03</pdfrwt>
<totfact> 0.87020005E+04</totfact>
</mgrwt>
</event>
<event>
12    1  0.1473662E-001  0.2102846E+03  0.7546771E-02  0.1141350E+00
         21   -1    0    0  504  503  0.00000000000E+00  0.00000000000E+00  0.13400348520E+04  0.13400348520E+04  0.00000000000E+00 0.  1.
         21   -1    0    0  502  504 -0.00000000000E+00 -0.00000000000E+00 -0.45917029549E+02  0.45917029549E+02  0.00000000000E+00 0.  1.
          6    2    1    2  502    0  0.11998242822E+03  0.54576958134E+01  0.27933914729E+03  0.34961440271E+03  0.17255231627E+03 0.  0.
         24    2    3    3    0    0  0.11324655573E+03 -0.54197870067E+01  0.29667910840E+03  0.32755865829E+03  0.80137536675E+02 0.  0.
         -6    2    1    2    0  503 -0.11998242822E+03 -0.54576958134E+01  0.10147786752E+04  0.10363374789E+04  0.17260950427E+03 0.  0.
        -24    2    5    5    0    0 -0.13024888247E+03  0.37501708903E+02  0.88535943345E+03  0.89950787436E+03  0.82957459507E+02 0.  0.
          4    1    4    4  501    0  0.38443033521E+02 -0.13428338849E+02  0.20479981018E+03  0.20880888238E+03  0.00000000000E+00 0. -1.
         -3    1    4    4    0  501  0.74803522211E+02  0.80085518421E+01  0.91879298218E+02  0.11874977591E+03  0.00000000000E+00 0.  1.
          5    1    3    3  502    0  0.67358724839E+01  0.10877482820E+02 -0.17339961109E+02  0.22055744419E+02  0.47000000000E+01 0. -1.
         11    1    6    6    0    0 -0.17858757485E+02 -0.20637407629E+02  0.26318673217E+03  0.26459798525E+03  0.00000000000E+00 0. -1.
        -12    1    6    6    0    0 -0.11239012499E+03  0.58139116533E+02  0.62217270128E+03  0.63490988911E+03  0.00000000000E+00 0.  1.
         -5    1    5    5    0  503  0.10266454254E+02 -0.42959404717E+02  0.12941924175E+03  0.13682960451E+03  0.47000000000E+01 0.  1.
<mgrwt>
<rscale>  2 0.21027286E+03</rscale>
<asrwt>0</asrwt>
<pdfrwt beam="1">  1       21 0.20615918E+00 0.21028459E+03</pdfrwt>
<pdfrwt beam="2">  1       21 0.70641594E-02 0.21028459E+03</pdfrwt>
<totfact> 0.18020112E+04</totfact>
</mgrwt>
</event>
<event>
12    1  0.1473662E-001  0.2154091E+03  0.7546771E-02  0.1137483E+00
         21   -1    0    0  504  503  0.00000000000E+00  0.00000000000E+00  0.21998030779E+03  0.21998030779E+03  0.00000000000E+00 0. -1.
         21   -1    0    0  502  504 -0.00000000000E+00 -0.00000000000E+00 -0.35768149959E+03  0.35768149959E+03  0.00000000000E+00 0.  1.
          6    2    1    2  502    0 -0.94708856890E+02  0.86500511247E+02 -0.25433768598E+03  0.33329979464E+03  0.17305776082E+03 0.  0.
         24    2    3    3    0    0 -0.98911528187E+02  0.90191605065E+02 -0.11588980924E+03  0.19465928399E+03  0.80893590142E+02 0.  0.
         -6    2    1    2    0  503  0.94708856890E+02 -0.86500511247E+02  0.11663649418E+03  0.24436201274E+03  0.17221096212E+03 0.  0.
        -24    2    5    5    0    0  0.57078295441E+02 -0.85652062240E+02  0.14588918517E+03  0.19646014482E+03  0.81967838657E+02 0.  0.
          4    1    4    4  501    0 -0.14875013512E+02  0.65036040850E+02 -0.35014735567E+02  0.75345765264E+02  0.00000000000E+00 0. -1.
         -3    1    4    4    0  501 -0.84036514674E+02  0.25155564215E+02 -0.80875073671E+02  0.11931351873E+03  0.00000000000E+00 0.  1.
          5    1    3    3  502    0  0.42026712967E+01 -0.36910938178E+01 -0.13844787674E+03  0.13864051065E+03  0.47000000000E+01 0. -1.
         13    1    6    6    0    0  0.77570290121E+02 -0.62376812897E+02  0.10017164157E+03  0.14121747226E+03  0.00000000000E+00 0. -1.
        -14    1    6    6    0    0 -0.20491994680E+02 -0.23275249343E+02  0.45717543605E+02  0.55242672557E+02  0.00000000000E+00 0.  1.
         -5    1    5    5    0  503  0.37630561449E+02 -0.84844900698E+00 -0.29252690988E+02  0.47901867926E+02  0.47000000000E+01 0.  1.
<mgrwt>
<rscale>  2 0.21523900E+03</rscale>
<asrwt>0</asrwt>
<pdfrwt beam="1">  1       21 0.33843125E-01 0.21540913E+03</pdfrwt>
<pdfrwt beam="2">  1       21 0.55027922E-01 0.21540913E+03</pdfrwt>
<totfact> 0.25877238E+04</totfact>
</mgrwt>
</event>
<event>
12    1  0.1473662E-001  0.2582207E+03  0.7546771E-02  0.1109652E+00
         21   -1    0    0  504  503  0.00000000000E+00  0.00000000000E+00  0.63926474498E+03  0.63926474498E+03  0.00000000000E+00 0. -1.
         21   -1    0    0  502  504 -0.00000000000E+00 -0.00000000000E+00 -0.13783835887E+03  0.13783835887E+03  0.00000000000E+00 0.  1.
          6    2    1    2  502    0 -0.11741567371E+03  0.15133574263E+03  0.45399633354E+02  0.25304363907E+03  0.15900002872E+03 0.  0.
         24    2    3    3    0    0 -0.12612507463E+03  0.16984649154E+03  0.33776902404E+02  0.22905031991E+03  0.81041993898E+02 0.  0.
         -6    2    1    2    0  503  0.11741567371E+03 -0.15133574263E+03  0.45602675275E+03  0.52405946479E+03  0.17317325423E+03 0.  0.
        -24    2    5    5    0    0  0.76948833788E+02 -0.15045715132E+02  0.24694464166E+03  0.27117617964E+03  0.80046035480E+02 0.  0.
          4    1    4    4  501    0 -0.59837855470E+02  0.10844435778E+03  0.56110931746E+02  0.13597494013E+03  0.00000000000E+00 0. -1.
         -3    1    4    4    0  501 -0.66287219163E+02  0.61402133758E+02 -0.22334029342E+02  0.93075379779E+02  0.00000000000E+00 0.  1.
          5    1    3    3  502    0  0.87094009206E+01 -0.18510748908E+02  0.11622730950E+02  0.23993319159E+02  0.47000000000E+01 0. -1.
         13    1    6    6    0    0  0.44783603910E+02  0.17258164381E+01  0.22358029061E+03  0.22802784034E+03  0.00000000000E+00 0. -1.
        -14    1    6    6    0    0  0.32165229878E+02 -0.16771531570E+02  0.23364351045E+02  0.43148339297E+02  0.00000000000E+00 0.  1.
         -5    1    5    5    0  503  0.40466839924E+02 -0.13629002750E+03  0.20908211110E+03  0.25288328515E+03  0.47000000000E+01 0.  1.
<mgrwt>
<rscale>  2 0.25586797E+03</rscale>
<asrwt>0</asrwt>
<pdfrwt beam="1">  1       21 0.98348421E-01 0.25822069E+03</pdfrwt>
<pdfrwt beam="2">  1       21 0.21205902E-01 0.25822069E+03</pdfrwt>
<totfact> 0.17016309E+04</totfact>
</mgrwt>
</event>
<event>
12    1  0.1473662E-001  0.1874355E+03  0.7546771E-02  0.1160865E+00
         21   -1    0    0  504  503  0.00000000000E+00  0.00000000000E+00  0.10580219376E+03  0.10580219376E+03  0.00000000000E+00 0.  1.
         21   -1    0    0  502  504 -0.00000000000E+00 -0.00000000000E+00 -0.41442852137E+03  0.41442852137E+03  0.00000000000E+00 0.  1.
          6    2    1    2  502    0 -0.11940957803E+00 -0.72878510881E+02 -0.27055995341E+03  0.32896877016E+03  0.17235565482E+03 0.  0.
         24    2    3    3    0    0 -0.12438763398E+02 -0.21888451677E+02 -0.37665354277E+02  0.90193275355E+02  0.77989235506E+02 0.  0.
         -6    2    1    2    0  503  0.11940957803E+00  0.72878510881E+02 -0.38066374199E+02  0.19126194497E+03  0.17268697444E+03 0.  0.
        -24    2    5    5    0    0 -0.45600036373E+02  0.77571865306E+02 -0.65821939399E+02  0.13736615002E+03  0.80250693833E+02 0.  0.
          4    1    4    4  501    0 -0.32233330625E+02 -0.10480703955E+02  0.11651772541E+02  0.35841268977E+02  0.00000000000E+00 0. -1.
         -3    1    4    4    0  501  0.19794567226E+02 -0.11407747722E+02 -0.49317126818E+02  0.54352006378E+02  0.00000000000E+00 0.  1.
          5    1    3    3  502    0  0.12319353820E+02 -0.50990059204E+02 -0.23289459913E+03  0.23877549481E+03  0.47000000000E+01 0. -1.
         13    1    6    6    0    0  0.17879003795E+01  0.27269958103E+02 -0.62459517033E+02  0.68176524337E+02  0.00000000000E+00 0. -1.
        -14    1    6    6    0    0 -0.47387936753E+02  0.50301907202E+02 -0.33624223662E+01  0.69189625682E+02  0.00000000000E+00 0.  1.
         -5    1    5    5    0  503  0.45719445951E+02 -0.46933544246E+01  0.27755565200E+02  0.53895794951E+02  0.47000000000E+01 0.  1.
<mgrwt>
<rscale>  2 0.18735920E+03</rscale>
<asrwt>0</asrwt>
<pdfrwt beam="1">  1       21 0.16277261E-01 0.18743554E+03</pdfrwt>
<pdfrwt beam="2">  1       21 0.63758233E-01 0.18743554E+03</pdfrwt>
<totfact> 0.76960103E+04</totfact>
</mgrwt>
</event>
<event>
12    1  0.1473662E-001  0.2459862E+03  0.7546771E-02  0.1115950E+00
         21   -1    0    0  504  503  0.00000000000E+00  0.00000000000E+00  0.70621942605E+02  0.70621942605E+02  0.00000000000E+00 0.  1.
         21   -1    0    0  502  504 -0.00000000000E+00 -0.00000000000E+00 -0.89606025794E+03  0.89606025794E+03  0.00000000000E+00 0. -1.
          6    2    1    2  502    0  0.16903156254E+03  0.43623200203E+02 -0.30969822882E+03  0.39550248830E+03  0.17330485449E+03 0.  0.
         24    2    3    3    0    0  0.15744396712E+03 -0.14566220825E+02 -0.27313211531E+03  0.32564941576E+03  0.80284568869E+02 0.  0.
         -6    2    1    2    0  503 -0.16903156254E+03 -0.43623200203E+02 -0.51574008652E+03  0.57117971224E+03  0.17257976156E+03 0.  0.
        -24    2    5    5    0    0 -0.19554196484E+03 -0.43656874465E+02 -0.47232992792E+03  0.52009806746E+03  0.85228259778E+02 0.  0.
          2    1    4    4  501    0  0.81389248471E+02 -0.17461776589E+02 -0.21288353866E+03  0.22857936136E+03  0.00000000000E+00 0. -1.
         -1    1    4    4    0  501  0.76054718649E+02  0.28955557644E+01 -0.60248576646E+02  0.97070054393E+02  0.00000000000E+00 0.  1.
          5    1    3    3  502    0  0.11587595424E+02  0.58189421028E+02 -0.36566113508E+02  0.69853072548E+02  0.47000000000E+01 0. -1.
         11    1    6    6    0    0 -0.40840585280E+02 -0.47919171514E+02 -0.13454968381E+03  0.14855240764E+03  0.00000000000E+00 0. -1.
        -12    1    6    6    0    0 -0.15470137956E+03  0.42622970489E+01 -0.33778024411E+03  0.37154565981E+03  0.00000000000E+00 0.  1.
         -5    1    5    5    0  503  0.26510402297E+02  0.33674262032E-01 -0.43410158601E+02  0.51081644782E+02  0.47000000000E+01 0.  1.
<mgrwt>
<rscale>  2 0.24585855E+03</rscale>
<asrwt>0</asrwt>
<pdfrwt beam="1">  1       21 0.10864914E-01 0.24598623E+03</pdfrwt>
<pdfrwt beam="2">  1       21 0.13785543E+00 0.24598623E+03</pdfrwt>
<totfact> 0.25294601E+04</totfact>
</mgrwt>
</event>
<event>
12    1  0.1473662E-001  0.1775690E+03  0.7546771E-02  0.1170680E+00
         21   -1    0    0  504  503  0.00000000000E+00  0.00000000000E+00  0.13784396246E+03  0.13784396246E+03  0.00000000000E+00 0.  1.
         21   -1    0    0  502  504 -0.00000000000E+00 -0.00000000000E+00 -0.38011307412E+03  0.38011307412E+03  0.00000000000E+00 0.  1.
          6    2    1    2  502    0 -0.27220775581E+02  0.27994578760E+02 -0.28637770878E+03  0.33696135215E+03  0.17322267084E+03 0.  0.
         24    2    3    3    0    0 -0.81276638776E+02  0.13428636793E+02 -0.22808161727E+03  0.25600008180E+03  0.82028028434E+02 0.  0.
         -6    2    1    2    0  503  0.27220775581E+02 -0.27994578760E+02  0.44108597109E+02  0.18099568443E+03  0.17114088460E+03 0.  0.
        -24    2    5    5    0    0  0.16606588432E+02  0.47081212776E+02  0.10637513973E+01  0.93680255177E+02  0.79261839918E+02 0.  0.
          4    1    4    4  501    0  0.83491222331E+01 -0.94588159612E+01 -0.82895331684E+02  0.83849943688E+02  0.00000000000E+00 0. -1.
         -3    1    4    4    0  501 -0.89625761010E+02  0.22887452754E+02 -0.14518628559E+03  0.17215013811E+03  0.00000000000E+00 0.  1.
          5    1    3    3  502    0  0.54055863195E+02  0.14565941968E+02 -0.58296091506E+02  0.80961270346E+02  0.47000000000E+01 0. -1.
         11    1    6    6    0    0 -0.25471155477E+02  0.37654683522E+02  0.15774111524E+02  0.48119409253E+02  0.00000000000E+00 0. -1.
        -12    1    6    6    0    0  0.42077743909E+02  0.94265292534E+01 -0.14710360126E+02  0.45560845924E+02  0.00000000000E+00 0.  1.
         -5    1    5    5    0  503  0.10614187149E+02 -0.75075791536E+02  0.43044845712E+02  0.87315429255E+02  0.47000000000E+01 0.  1.
<mgrwt>
<rscale>  2 0.17705928E+03</rscale>
<asrwt>0</asrwt>
<pdfrwt beam="1">  1       21 0.21206764E-01 0.17756903E+03</pdfrwt>
<pdfrwt beam="2">  1       21 0.58478934E-01 0.17756903E+03</pdfrwt>
<totfact> 0.57020951E+04</totfact>
</mgrwt>
</event>
<event>
12    1  0.1473662E-001  0.1963195E+03  0.7546771E-02  0.1153331E+00
         21   -1    0    0  504  503  0.00000000000E+00  0.00000000000E+00  0.12381837685E+03  0.12381837685E+03  0.00000000000E+00 0.  1.
         21   -1    0    0  502  504 -0.00000000000E+00 -0.00000000000E+00 -0.40869163704E+03  0.40869163704E+03  0.00000000000E+00 0.  1.
          6    2    1    2  502    0  0.89969969249E+02 -0.11239262051E+02 -0.27515616594E+03  0.33801221532E+03  0.17412761319E+03 0.  0.
         24    2    3    3    0    0  0.49997795401E+02  0.61430353314E+02 -0.15878475753E+03  0.19503304770E+03  0.80943329666E+02 0.  0.
         -6    2    1    2    0  503 -0.89969969249E+02  0.11239262051E+02 -0.97170942603E+01  0.19449779857E+03  0.17179655221E+03 0.  0.
        -24    2    5    5    0    0 -0.13361401377E+02  0.27866019364E+02 -0.57979181360E+02  0.10232057372E+03  0.78440246388E+02 0.  0.
          2    1    4    4  501    0  0.19519529086E+02  0.64142941335E+02 -0.54657502310E+02  0.86503014385E+02  0.00000000000E+00 0. -1.
         -1    1    4    4    0  501  0.30478266315E+02 -0.27125880216E+01 -0.10412725522E+03  0.10853003331E+03  0.00000000000E+00 0.  1.
          5    1    3    3  502    0  0.39972173848E+02 -0.72669615365E+02 -0.11637140840E+03  0.14297916762E+03  0.47000000000E+01 0. -1.
         13    1    6    6    0    0 -0.43737520323E+02  0.21261629039E+02 -0.50981963882E+02  0.70456995356E+02  0.00000000000E+00 0. -1.
        -14    1    6    6    0    0  0.30376118946E+02  0.66043903252E+01 -0.69972174785E+01  0.31863578365E+02  0.00000000000E+00 0.  1.
         -5    1    5    5    0  503 -0.76608567872E+02 -0.16626757313E+02  0.48262087100E+02  0.92177224852E+02  0.47000000000E+01 0.  1.
<mgrwt>
<rscale>  2 0.19580130E+03</rscale>
<asrwt>0</asrwt>
<pdfrwt beam="1">  1       21 0.19048981E-01 0.19631949E+03</pdfrwt>
<pdfrwt beam="2">  1       21 0.62875637E-01 0.19631949E+03</pdfrwt>
<totfact> 0.59109892E+04</totfact>
</mgrwt>
</event>
<event>
12    1  0.1473662E-001  0.1971092E+03  0.7546771E-02  0.1152898E+00
         21   -1    0    0  504  503  0.00000000000E+00  0.00000000000E+00  0.39089422247E+02  0.39089422247E+02  0.00000000000E+00 0. -1.
         21   -1    0    0  502  504 -0.00000000000E+00 -0.00000000000E+00 -0.11342280263E+04  0.11342280263E+04  0.00000000000E+00 0.  1.
          6    2    1    2  502    0 -0.84945186304E+02 -0.40378510684E+02 -0.33357886429E+03  0.38746214610E+03  0.17322224786E+03 0.  0.
         24    2    3    3    0    0 -0.71149870376E+02  0.36455989707E+02 -0.24102753297E+03  0.26629412176E+03  0.80168225595E+02 0.  0.
         -6    2    1    2    0  503  0.84945186304E+02  0.40378510684E+02 -0.76155973977E+03  0.78585530247E+03  0.16955592106E+03 0.  0.
        -24    2    5    5    0    0  0.36588153497E+02 -0.35115696783E+02 -0.27329204224E+03  0.28940267387E+03  0.80582641772E+02 0.  0.
          2    1    4    4  501    0  0.12870948908E+02  0.24396141893E+02 -0.46707769376E+02  0.54244343347E+02  0.00000000000E+00 0. -1.
         -1    1    4    4    0  501 -0.84020819284E+02  0.12059847813E+02 -0.19431976359E+03  0.21204977841E+03  0.00000000000E+00 0.  1.
          5    1    3    3  502    0 -0.13795315928E+02 -0.76834500391E+02 -0.92551331327E+02  0.12116802434E+03  0.47000000000E+01 0. -1.
         11    1    6    6    0    0 -0.17575817885E+02 -0.20729949863E+01 -0.14301958698E+02  0.22754179948E+02  0.00000000000E+00 0. -1.
        -12    1    6    6    0    0  0.54163971382E+02 -0.33042701797E+02 -0.25899008354E+03  0.26664849392E+03  0.00000000000E+00 0.  1.
         -5    1    5    5    0  503  0.48357032807E+02  0.75494207467E+02 -0.48826769754E+03  0.49645262860E+03  0.47000000000E+01 0.  1.
<mgrwt>
<rscale>  2 0.19630076E+03</rscale>
<asrwt>0</asrwt>
<pdfrwt beam="1">  1       21 0.60137574E-02 0.19710925E+03</pdfrwt>
<pdfrwt beam="2">  1       21 0.17449662E+00 0.19710925E+03</pdfrwt>
<totfact> 0.38878775E+04</totfact>
</mgrwt>
</event>
<event>
12    1  0.1473662E-001  0.1995898E+03  0.7546771E-02  0.1150246E+00
         21   -1    0    0  504  503  0.00000000000E+00  0.00000000000E+00  0.38238456741E+03  0.38238456741E+03  0.00000000000E+00 0.  1.
         21   -1    0    0  502  504 -0.00000000000E+00 -0.00000000000E+00 -0.10411619879E+03  0.10411619879E+03  0.00000000000E+00 0.  1.
          6    2    1    2  502    0 -0.90647296298E+02 -0.36790085898E+02  0.12509909312E+03  0.23491197199E+03  0.17309941865E+03 0.  0.
         24    2    3    3    0    0 -0.66163968257E+01  0.85611590093E+01  0.11066466076E+03  0.13822500121E+03  0.82112201698E+02 0.  0.
         -6    2    1    2    0  503  0.90647296298E+02  0.36790085898E+02  0.15316927550E+03  0.25158879422E+03  0.17397026088E+03 0.  0.
        -24    2    5    5    0    0  0.10354366781E+03  0.42255951545E+02  0.17086713329E+03  0.22853459165E+03  0.10259447237E+03 0.  0.
          2    1    4    4  501    0 -0.12467447807E+01 -0.32360408064E+02  0.18632322458E+02  0.37361930127E+02  0.00000000000E+00 0. -1.
         -1    1    4    4    0  501 -0.53696520450E+01  0.40921567074E+02  0.92032338298E+02  0.10086307108E+03  0.00000000000E+00 0.  1.
          5    1    3    3  502    0 -0.84030899473E+02 -0.45351244907E+02  0.14434432364E+02  0.96686970779E+02  0.47000000000E+01 0. -1.
         13    1    6    6    0    0 -0.56667894432E+01  0.42139614651E+02  0.50106994002E+02  0.65715831224E+02  0.00000000000E+00 0. -1.
        -14    1    6    6    0    0  0.10921045725E+03  0.11633689319E+00  0.12076013929E+03  0.16281876043E+03  0.00000000000E+00 0.  1.
         -5    1    5    5    0  503 -0.12896371510E+02 -0.54658656466E+01 -0.17697857791E+02  0.23054202563E+02  0.47000000000E+01 0.  1.
<mgrwt>
<rscale>  2 0.19939989E+03</rscale>
<asrwt>0</asrwt>
<pdfrwt beam="1">  1       21 0.58828394E-01 0.19958982E+03</pdfrwt>
<pdfrwt beam="2">  1       21 0.16017877E-01 0.19958982E+03</pdfrwt>
<totfact> 0.93788719E+04</totfact>
</mgrwt>
</event>
<event>
12    1  0.1473662E-001  0.3440478E+03  0.7546771E-02  0.1065108E+00
         21   -1    0    0  504  503  0.00000000000E+00  0.00000000000E+00  0.29379868916E+03  0.29379868916E+03  0.00000000000E+00 0. -1.
         21   -1    0    0  502  504 -0.00000000000E+00 -0.00000000000E+00 -0.48437818302E+03  0.48437818302E+03  0.00000000000E+00 0.  1.
          6    2    1    2  502    0  0.20456413366E+03 -0.21393615431E+03 -0.25515804634E+03  0.42833923760E+03  0.17536736001E+03 0.  0.
         24    2    3    3    0    0  0.17653271882E+03 -0.11908990564E+03 -0.10978715892E+03  0.25245189863E+03  0.79577222962E+02 0.  0.
         -6    2    1    2    0  503 -0.20456413366E+03  0.21393615431E+03  0.64578552479E+02  0.34983763458E+03  0.17493089558E+03 0.  0.
        -24    2    5    5    0    0 -0.15950716442E+03  0.68293870883E+02  0.30933126020E+02  0.19364573364E+03  0.80219845237E+02 0.  0.
          2    1    4    4  501    0  0.13797810178E+03 -0.55996699387E+02 -0.49095645605E+02  0.15679275918E+03  0.00000000000E+00 0. -1.
         -1    1    4    4    0  501  0.38554617041E+02 -0.63093206255E+02 -0.60691513319E+02  0.95659139447E+02  0.00000000000E+00 0.  1.
          5    1    3    3  502    0  0.28031414839E+02 -0.94846248668E+02 -0.14537088741E+03  0.17588733897E+03  0.47000000000E+01 0. -1.
         13    1    6    6    0    0 -0.19843123081E+02 -0.37196651571E+01 -0.20041876757E+02  0.28447535331E+02  0.00000000000E+00 0. -1.
        -14    1    6    6    0    0 -0.13966404134E+03  0.72013536040E+02  0.50975002777E+02  0.16519819831E+03  0.00000000000E+00 0.  1.
         -5    1    5    5    0  503 -0.45056969245E+02  0.14564228343E+03  0.33645426459E+02  0.15619190095E+03  0.47000000000E+01 0.  1.
<mgrwt>
<rscale>  2 0.34399220E+03</rscale>
<asrwt>0</asrwt>
<pdfrwt beam="1">  1       21 0.45199798E-01 0.34404778E+03</pdfrwt>
<pdfrwt beam="2">  1       21 0.74519720E-01 0.34404778E+03</pdfrwt>
<totfact> 0.69634519E+03</totfact>
</mgrwt>
</event>
<event>
12    1  0.1473662E-001  0.1770271E+03  0.7546771E-02  0.1170905E+00
         21   -1    0    0  504  503  0.00000000000E+00  0.00000000000E+00  0.38237422843E+03  0.38237422843E+03  0.00000000000E+00 0.  1.
         21   -1    0    0  502  504 -0.00000000000E+00 -0.00000000000E+00 -0.28573654075E+03  0.28573654075E+03  0.00000000000E+00 0.  1.
          6    2    1    2  502    0 -0.31745921535E+02  0.11587435095E+02 -0.23400786855E+03  0.29342509141E+03  0.17377148655E+03 0.  0.
         24    2    3    3    0    0 -0.67253140720E+02  0.56506801011E+02 -0.16895555839E+03  0.20663566172E+03  0.80226632021E+02 0.  0.
         -6    2    1    2    0  503  0.31745921535E+02 -0.11587435095E+02  0.33064555623E+03  0.37468567778E+03  0.17297630211E+03 0.  0.
        -24    2    5    5    0    0  0.83207134825E+02 -0.22700655859E+02  0.18537813018E+03  0.22010082981E+03  0.81489736003E+02 0.  0.
          2    1    4    4  501    0 -0.73447292902E+02  0.23962394025E+02 -0.77782640806E+02  0.10963047192E+03  0.00000000000E+00 0. -1.
         -1    1    4    4    0  501  0.61941521824E+01  0.32544406987E+02 -0.91172917586E+02  0.97005189802E+02  0.00000000000E+00 0.  1.
          5    1    3    3  502    0  0.35507219185E+02 -0.44919365916E+02 -0.65052310157E+02  0.86789429687E+02  0.47000000000E+01 0. -1.
         13    1    6    6    0    0  0.26013858571E+02  0.30788193007E+02  0.65777692158E+02  0.77144918511E+02  0.00000000000E+00 0. -1.
        -14    1    6    6    0    0  0.57193276253E+02 -0.53488848866E+02  0.11960043802E+03  0.14295591130E+03  0.00000000000E+00 0.  1.
         -5    1    5    5    0  503 -0.51461213290E+02  0.11113220764E+02  0.14526742605E+03  0.15458484797E+03  0.47000000000E+01 0.  1.
<mgrwt>
<rscale>  2 0.17683167E+03</rscale>
<asrwt>0</asrwt>
<pdfrwt beam="1">  1       21 0.58826805E-01 0.17702712E+03</pdfrwt>
<pdfrwt beam="2">  1       21 0.43959468E-01 0.17702712E+03</pdfrwt>
<totfact> 0.13577416E+04</totfact>
</mgrwt>
</event>
<event>
12    1  0.1473662E-001  0.1837421E+03  0.7546771E-02  0.1164392E+00
         21   -1    0    0  504  503  0.00000000000E+00  0.00000000000E+00  0.31737053964E+03  0.31737053964E+03  0.00000000000E+00 0. -1.
         21   -1    0    0  502  504 -0.00000000000E+00 -0.00000000000E+00 -0.25589056791E+03  0.25589056791E+03  0.00000000000E+00 0. -1.
          6    2    1    2  502    0  0.57002335503E+02  0.20495674633E+02 -0.18862384866E+03  0.26332512569E+03  0.17346995879E+03 0.  0.
         24    2    3    3    0    0 -0.28480402618E+01 -0.26315692482E+02 -0.16090168029E+03  0.18230673155E+03  0.81521571639E+02 0.  0.
         -6    2    1    2    0  503 -0.57002335503E+02 -0.20495674633E+02  0.25010382040E+03  0.30993598185E+03  0.17273984178E+03 0.  0.
        -24    2    5    5    0    0 -0.10826209253E+02 -0.70438277159E+02  0.10944005586E+03  0.15361937097E+03  0.80888983279E+02 0.  0.
          4    1    4    4  501    0 -0.24423683713E+02  0.16683916844E+02 -0.27088221784E+02  0.40107869138E+02  0.00000000000E+00 0. -1.
         -3    1    4    4    0  501  0.21575643451E+02 -0.42999609327E+02 -0.13381345851E+03  0.14219886241E+03  0.00000000000E+00 0.  1.
          5    1    3    3  502    0  0.59850375765E+02  0.46811367115E+02 -0.27722168371E+02  0.81018394143E+02  0.47000000000E+01 0. -1.
         11    1    6    6    0    0 -0.37391623272E+02 -0.62911028438E+02  0.51658879831E+02  0.89579969052E+02  0.00000000000E+00 0. -1.
        -12    1    6    6    0    0  0.26565414019E+02 -0.75272487213E+01  0.57781176025E+02  0.64039401919E+02  0.00000000000E+00 0.  1.
         -5    1    5    5    0  503 -0.46176126251E+02  0.49942602526E+02  0.14066376454E+03  0.15631661088E+03  0.47000000000E+01 0.  1.
<mgrwt>
<rscale>  2 0.18356959E+03</rscale>
<asrwt>0</asrwt>
<pdfrwt beam="1">  1       21 0.48826237E-01 0.18374212E+03</pdfrwt>
<pdfrwt beam="2">  1       21 0.39367779E-01 0.18374212E+03</pdfrwt>
<totfact> 0.25028580E+04</totfact>
</mgrwt>
</event>
<event>
12    1  0.1473662E-001  0.2118052E+03  0.7546771E-02  0.1140201E+00
         21   -1    0    0  504  503  0.00000000000E+00  0.00000000000E+00  0.11299190968E+03  0.11299190968E+03  0.00000000000E+00 0. -1.
         21   -1    0    0  502  504 -0.00000000000E+00 -0.00000000000E+00 -0.61028088835E+03  0.61028088835E+03  0.00000000000E+00 0. -1.
          6    2    1    2  502    0  0.80504525766E+02  0.93411699297E+02 -0.46257763491E+03  0.50864216359E+03  0.17184893956E+03 0.  0.
         24    2    3    3    0    0 -0.18529438869E+02  0.13477294025E+02 -0.15914115558E+03  0.17956311187E+03  0.79950148116E+02 0.  0.
         -6    2    1    2    0  503 -0.80504525766E+02 -0.93411699297E+02 -0.34711343768E+02  0.21463063444E+03  0.17220542274E+03 0.  0.
        -24    2    5    5    0    0  0.49649232777E+01 -0.64223925842E+02 -0.62007247275E+02  0.12016313110E+03  0.80280235725E+02 0.  0.
          4    1    4    4  501    0 -0.22125266183E+02 -0.18264578662E+02 -0.13870399982E+03  0.14164011368E+03  0.00000000000E+00 0. -1.
         -3    1    4    4    0  501  0.35958273133E+01  0.31741872686E+02 -0.20437155763E+02  0.37922998186E+02  0.00000000000E+00 0.  1.
          5    1    3    3  502    0  0.99033964635E+02  0.79934405272E+02 -0.30343647932E+03  0.32907905172E+03  0.47000000000E+01 0. -1.
         13    1    6    6    0    0  0.21645157808E+02 -0.59915490488E+02 -0.88909043428E+01  0.64322834491E+02  0.00000000000E+00 0. -1.
        -14    1    6    6    0    0 -0.16680234531E+02 -0.43084353543E+01 -0.53116342932E+02  0.55840296612E+02  0.00000000000E+00 0.  1.
         -5    1    5    5    0  503 -0.85469449043E+02 -0.29187773455E+02  0.27295903507E+02  0.94467503340E+02  0.47000000000E+01 0.  1.
<mgrwt>
<rscale>  2 0.21173270E+03</rscale>
<asrwt>0</asrwt>
<pdfrwt beam="1">  1       21 0.17383371E-01 0.21180517E+03</pdfrwt>
<pdfrwt beam="2">  1       21 0.93889368E-01 0.21180517E+03</pdfrwt>
<totfact> 0.28201210E+04</totfact>
</mgrwt>
</event>
<event>
12    1  0.1473662E-001  0.2135180E+03  0.7546771E-02  0.1139006E+00
         21   -1    0    0  504  503  0.00000000000E+00  0.00000000000E+00  0.15037139520E+03  0.15037139520E+03  0.00000000000E+00 0. -1.
         21   -1    0    0  502  504 -0.00000000000E+00 -0.00000000000E+00 -0.30456355587E+03  0.30456355587E+03  0.00000000000E+00 0.  1.
          6    2    1    2  502    0 -0.92761737394E+02  0.79737434198E+02 -0.98763716619E+02  0.23433973335E+03  0.17377583424E+03 0.  0.
         24    2    3    3    0    0 -0.71209641712E+02  0.64085649997E+02  0.70257263070E+01  0.12514739199E+03  0.80216739416E+02 0.  0.
         -6    2    1    2    0  503  0.92761737394E+02 -0.79737434198E+02 -0.55428444050E+02  0.22059521772E+03  0.17500611227E+03 0.  0.
        -24    2    5    5    0    0  0.20623877345E+02 -0.77152976276E+02  0.19720987956E+02  0.11628760819E+03  0.82194673713E+02 0.  0.
          2    1    4    4  501    0 -0.31004544169E+02 -0.86127336167E+01  0.24265316280E+02  0.40302189936E+02  0.00000000000E+00 0. -1.
         -1    1    4    4    0  501 -0.40205097543E+02  0.72698383613E+02 -0.17239589973E+02  0.84845202050E+02  0.00000000000E+00 0.  1.
          5    1    3    3  502    0 -0.21552095683E+02  0.15651784201E+02 -0.10578944293E+03  0.10919234136E+03  0.47000000000E+01 0. -1.
         11    1    6    6    0    0 -0.23300422791E+02 -0.20504605082E+02  0.30832294114E+02  0.43749044471E+02  0.00000000000E+00 0. -1.
        -12    1    6    6    0    0  0.43924300136E+02 -0.56648371194E+02 -0.11111306158E+02  0.72538563716E+02  0.00000000000E+00 0.  1.
         -5    1    5    5    0  503  0.72137860049E+02 -0.25844579220E+01 -0.75149432005E+02  0.10430760953E+03  0.47000000000E+01 0.  1.
<mgrwt>
<rscale>  2 0.21326575E+03</rscale>
<asrwt>0</asrwt>
<pdfrwt beam="1">  1       21 0.23134061E-01 0.21351800E+03</pdfrwt>
<pdfrwt beam="2">  1       21 0.46855931E-01 0.21351800E+03</pdfrwt>
<totfact> 0.75854370E+04</totfact>
</mgrwt>
</event>
<event>
12    1  0.1473662E-001  0.1842221E+03  0.7546771E-02  0.1163891E+00
         21   -1    0    0  504  503  0.00000000000E+00  0.00000000000E+00  0.10766159580E+04  0.10766159580E+04  0.00000000000E+00 0. -1.
         21   -1    0    0  502  504 -0.00000000000E+00 -0.00000000000E+00 -0.44272576822E+02  0.44272576822E+02  0.00000000000E+00 0. -1.
          6    2    1    2  502    0  0.58534287434E+02 -0.20883608361E+02  0.21492421534E+03  0.28307278391E+03  0.17342259008E+03 0.  0.
         24    2    3    3    0    0  0.63109339543E+02 -0.54715189246E+02  0.21983117967E+03  0.24826365773E+03  0.79577355571E+02 0.  0.
         -6    2    1    2    0  503 -0.58534287434E+02  0.20883608361E+02  0.81741916587E+03  0.83781575094E+03  0.17291255562E+03 0.  0.
        -24    2    5    5    0    0 -0.95109751280E+02  0.32988156247E+02  0.74160110143E+03  0.75264090999E+03  0.79762538275E+02 0.  0.
          4    1    4    4  501    0  0.74506205195E+02 -0.61635773177E+02  0.15987369620E+03  0.18684148866E+03  0.00000000000E+00 0. -1.
         -3    1    4    4    0  501 -0.11396865652E+02  0.69205839311E+01  0.59957483468E+02  0.61422169064E+02  0.00000000000E+00 0.  1.
          5    1    3    3  502    0 -0.45750521082E+01  0.33831580886E+02 -0.49069643317E+01  0.34809126188E+02  0.47000000000E+01 0. -1.
         13    1    6    6    0    0 -0.64443231253E+02  0.61836047953E+00  0.61595589455E+03  0.61931815447E+03  0.00000000000E+00 0. -1.
        -14    1    6    6    0    0 -0.30666520028E+02  0.32369795768E+02  0.12564520688E+03  0.13332275552E+03  0.00000000000E+00 0.  1.
         -5    1    5    5    0  503  0.36575463846E+02 -0.12104547887E+02  0.75818064444E+02  0.85174840951E+02  0.47000000000E+01 0.  1.
<mgrwt>
<rscale>  2 0.18410197E+03</rscale>
<asrwt>0</asrwt>
<pdfrwt beam="1">  1       21 0.16563321E+00 0.18422210E+03</pdfrwt>
<pdfrwt beam="2">  1       21 0.68111664E-02 0.18422210E+03</pdfrwt>
<totfact> 0.36528890E+04</totfact>
</mgrwt>
</event>
<event>
12    1  0.1473662E-001  0.1965776E+03  0.7546771E-02  0.1153202E+00
         21   -1    0    0  504  503  0.00000000000E+00  0.00000000000E+00  0.72612731563E+03  0.72612731563E+03  0.00000000000E+00 0. -1.
         21   -1    0    0  502  504 -0.00000000000E+00 -0.00000000000E+00 -0.73552533740E+02  0.73552533740E+02  0.00000000000E+00 0. -1.
          6    2    1    2  502    0  0.75827385026E+02 -0.50859469694E+02  0.11109928865E+03  0.22362563852E+03  0.17125681385E+03 0.  0.
         24    2    3    3    0    0  0.11398897822E+03 -0.25999555274E+02  0.10517732436E+03  0.17745766043E+03  0.82216103381E+02 0.  0.
         -6    2    1    2    0  503 -0.75827385026E+02  0.50859469694E+02  0.54147549324E+03  0.57605421085E+03  0.17408694977E+03 0.  0.
        -24    2    5    5    0    0 -0.13539244992E+02  0.40771901929E+02  0.47833402519E+03  0.48666457834E+03  0.78697604895E+02 0.  0.
          4    1    4    4  501    0  0.95517476747E+02 -0.30809095162E+02  0.11766063644E+03  0.15465061939E+03  0.00000000000E+00 0. -1.
         -3    1    4    4    0  501  0.18471501474E+02  0.48095398878E+01 -0.12483312080E+02  0.22807041043E+02  0.00000000000E+00 0.  1.
          5    1    3    3  502    0 -0.38161593195E+02 -0.24859914420E+02  0.59219642891E+01  0.46167978093E+02  0.47000000000E+01 0. -1.
         13    1    6    6    0    0 -0.18027763796E+02 -0.14616860679E+02  0.54964660922E+02  0.59663781592E+02  0.00000000000E+00 0. -1.
        -14    1    6    6    0    0  0.44885188039E+01  0.55388762608E+02  0.42336936427E+03  0.42700079675E+03  0.00000000000E+00 0.  1.
         -5    1    5    5    0  503 -0.62288140034E+02  0.10087567765E+02  0.63141468051E+02  0.89389632508E+02  0.47000000000E+01 0.  1.
<mgrwt>
<rscale>  2 0.19594910E+03</rscale>
<asrwt>0</asrwt>
<pdfrwt beam="1">  1       21 0.11171189E+00 0.19657758E+03</pdfrwt>
<pdfrwt beam="2">  1       21 0.11315775E-01 0.19657758E+03</pdfrwt>
<totfact> 0.40910013E+04</totfact>
</mgrwt>
</event>
<event>
12    1  0.1473662E-001  0.1796844E+03  0.7546771E-02  0.1169909E+00
         21   -1    0    0  504  503  0.00000000000E+00  0.00000000000E+00  0.60211441502E+02  0.60211441502E+02  0.00000000000E+00 0.  1.
         21   -1    0    0  502  504 -0.00000000000E+00 -0.00000000000E+00 -0.60531541857E+03  0.60531541857E+03  0.00000000000E+00 0.  1.
          6    2    1    2  502    0 -0.11874982182E+02  0.56076616084E+02 -0.40600888535E+03  0.44399289236E+03  0.17029642220E+03 0.  0.
         24    2    3    3    0    0  0.14775213286E+02  0.47412902118E+02 -0.40396053476E+03  0.41550467378E+03  0.83628524250E+02 0.  0.
         -6    2    1    2    0  503  0.11874982182E+02 -0.56076616084E+02 -0.13909509172E+03  0.22153396771E+03  0.16261688792E+03 0.  0.
        -24    2    5    5    0    0 -0.35450414025E+02  0.49795689431E+01 -0.88478306723E+02  0.12905856677E+03  0.86868722416E+02 0.  0.
          2    1    4    4  501    0 -0.14508736476E+02 -0.19244933956E+02 -0.11654798146E+03  0.11901387692E+03  0.00000000000E+00 0. -1.
         -1    1    4    4    0  501  0.29283949762E+02  0.66657836074E+02 -0.28741255330E+03  0.29649079685E+03  0.00000000000E+00 0.  1.
          5    1    3    3  502    0 -0.26650195468E+02  0.86637139654E+01 -0.20483505852E+01  0.28488218587E+02  0.47000000000E+01 0. -1.
         11    1    6    6    0    0  0.48965740616E+01  0.38942501285E+02 -0.25018205305E+02  0.46544660710E+02  0.00000000000E+00 0. -1.
        -12    1    6    6    0    0 -0.40346988087E+02 -0.33962932342E+02 -0.63460101418E+02  0.82513906057E+02  0.00000000000E+00 0.  1.
         -5    1    5    5    0  503  0.47325396207E+02 -0.61056185027E+02 -0.50616784999E+02  0.92475400944E+02  0.47000000000E+01 0.  1.
<mgrwt>
<rscale>  2 0.17784097E+03</rscale>
<asrwt>0</asrwt>
<pdfrwt beam="1">  1       21 0.92632989E-02 0.17968437E+03</pdfrwt>
<pdfrwt beam="2">  1       21 0.93125447E-01 0.17968437E+03</pdfrwt>
<totfact> 0.90608814E+04</totfact>
</mgrwt>
</event>
<event>
12    1  0.1473662E-001  0.2139093E+03  0.7546771E-02  0.1138799E+00
         21   -1    0    0  504  503  0.00000000000E+00  0.00000000000E+00  0.33477113397E+03  0.33477113397E+03  0.00000000000E+00 0. -1.
         21   -1    0    0  502  504 -0.00000000000E+00 -0.00000000000E+00 -0.13828092935E+03  0.13828092935E+03  0.00000000000E+00 0.  1.
          6    2    1    2  502    0 -0.13593403894E+02 -0.12363597093E+03  0.66404908412E+02  0.22397946599E+03  0.17403032893E+03 0.  0.
         24    2    3    3    0    0 -0.14760786575E+02  0.13326545987E+01  0.91915971788E+00  0.82809379109E+02  0.81467119903E+02 0.  0.
         -6    2    1    2    0  503  0.13593403894E+02  0.12363597093E+03  0.13008529621E+03  0.24907259732E+03  0.17217531911E+03 0.  0.
        -24    2    5    5    0    0  0.74404761626E+02  0.60454625448E+02  0.66624673826E+02  0.14072480437E+03  0.78573488600E+02 0.  0.
          4    1    4    4  501    0  0.97036608759E+01  0.21169325842E+02  0.31324037185E+02  0.39031995806E+02  0.00000000000E+00 0. -1.
         -3    1    4    4    0  501 -0.24464447451E+02 -0.19836671243E+02 -0.30404877467E+02  0.43777383304E+02  0.00000000000E+00 0.  1.
          5    1    3    3  502    0  0.11673826817E+01 -0.12496862553E+03  0.65485748694E+02  0.14117008688E+03  0.47000000000E+01 0. -1.
         11    1    6    6    0    0 -0.20902796853E+01 -0.10305851054E+02 -0.74393045457E+01  0.12881113586E+02  0.00000000000E+00 0. -1.
        -12    1    6    6    0    0  0.76495041311E+02  0.70760476502E+02  0.74063978372E+02  0.12784369078E+03  0.00000000000E+00 0.  1.
         -5    1    5    5    0  503 -0.60811357732E+02  0.63181345480E+02  0.63460622379E+02  0.10834779296E+03  0.47000000000E+01 0.  1.
<mgrwt>
<rscale>  2 0.21353169E+03</rscale>
<asrwt>0</asrwt>
<pdfrwt beam="1">  1       21 0.51503251E-01 0.21390930E+03</pdfrwt>
<pdfrwt beam="2">  1       21 0.21273989E-01 0.21390930E+03</pdfrwt>
<totfact> 0.72964918E+04</totfact>
</mgrwt>
</event>
<event>
12    1  0.1473662E-001  0.3766848E+03  0.7546771E-02  0.1052195E+00
         21   -1    0    0  504  503  0.00000000000E+00  0.00000000000E+00  0.19913538039E+04  0.19913538039E+04  0.00000000000E+00 0.  1.
         21   -1    0    0  502  504 -0.00000000000E+00 -0.00000000000E+00 -0.18088543055E+03  0.18088543055E+03  0.00000000000E+00 0.  1.
          6    2    1    2  502    0  0.32054212281E+03  0.93090223603E+02  0.59295721812E+02  0.38101141906E+03  0.17389846636E+03 0.  0.
         24    2    3    3    0    0  0.29479972706E+03  0.39134871220E+02  0.78455883572E+02  0.31805863684E+03  0.81040444139E+02 0.  0.
         -6    2    1    2    0  503 -0.32054212281E+03 -0.93090223603E+02  0.17511726515E+04  0.17912278154E+04  0.17458060854E+03 0.  0.
        -24    2    5    5    0    0 -0.30865846681E+03 -0.10061160743E+03  0.17424067437E+04  0.17740021475E+04  0.75561988842E+02 0.  0.
          2    1    4    4  501    0  0.24122984387E+03  0.91850541675E+01  0.85906246981E+02  0.25623443575E+03  0.00000000000E+00 0. -1.
         -1    1    4    4    0  501  0.53569883186E+02  0.29949817052E+02 -0.74503634088E+01  0.61824201095E+02  0.00000000000E+00 0.  1.
          5    1    3    3  502    0  0.25742395759E+02  0.53955352383E+02 -0.19160161761E+02  0.62952782217E+02  0.47000000000E+01 0. -1.
         13    1    6    6    0    0 -0.62528651870E+02  0.76070302393E+01  0.40067596510E+03  0.40559700224E+03  0.00000000000E+00 0. -1.
        -14    1    6    6    0    0 -0.24612981494E+03 -0.10821863767E+03  0.13417307786E+04  0.13684051452E+04  0.00000000000E+00 0.  1.
         -5    1    5    5    0  503 -0.11883656008E+02  0.75213838249E+01  0.87659078934E+01  0.17225667939E+02  0.47000000000E+01 0.  1.
<mgrwt>
<rscale>  2 0.37660585E+03</rscale>
<asrwt>0</asrwt>
<pdfrwt beam="1">  1       21 0.30636211E+00 0.37668479E+03</pdfrwt>
<pdfrwt beam="2">  1       21 0.27828529E-01 0.37668479E+03</pdfrwt>
<totfact> 0.31994325E+02</totfact>
</mgrwt>
</event>
<event>
12    1  0.1473662E-001  0.2239709E+03  0.7546771E-02  0.1132018E+00
         21   -1    0    0  504  503  0.00000000000E+00  0.00000000000E+00  0.42582787072E+03  0.42582787072E+03  0.00000000000E+00 0.  1.
         21   -1    0    0  502  504 -0.00000000000E+00 -0.00000000000E+00 -0.11645370365E+03  0.11645370365E+03  0.00000000000E+00 0.  1.
          6    2    1    2  502    0  0.52753822434E+02 -0.13274762399E+03  0.18900525637E+03  0.29306302089E+03  0.17250521680E+03 0.  0.
         24    2    3    3    0    0  0.22905245930E+02 -0.12385086466E+03  0.62291171343E+02  0.16249258323E+03  0.81608593974E+02 0.  0.
         -6    2    1    2    0  503 -0.52753822434E+02  0.13274762399E+03  0.12036891069E+03  0.24921855347E+03  0.16497368056E+03 0.  0.
        -24    2    5    5    0    0 -0.75703747224E+02  0.14292237884E+03  0.71949061028E+02  0.19447554912E+03  0.80536998367E+02 0.  0.
          4    1    4    4  501    0  0.36808918316E+02 -0.20695328915E+02  0.21582344256E+01  0.42282988096E+02  0.00000000000E+00 0. -1.
         -3    1    4    4    0  501 -0.13903672386E+02 -0.10315553574E+03  0.60132936917E+02  0.12020959514E+03  0.00000000000E+00 0.  1.
          5    1    3    3  502    0  0.29848576504E+02 -0.88967593277E+01  0.12671408503E+03  0.13057043766E+03  0.47000000000E+01 0. -1.
         13    1    6    6    0    0  0.93774568178E+01  0.32350489435E+02  0.38211830877E+02  0.50937558658E+02  0.00000000000E+00 0. -1.
        -14    1    6    6    0    0 -0.85081204042E+02  0.11057188940E+03  0.33737230150E+02  0.14353799046E+03  0.00000000000E+00 0.  1.
         -5    1    5    5    0  503  0.22949924791E+02 -0.10174754848E+02  0.48419849664E+02  0.54743004353E+02  0.47000000000E+01 0.  1.
<mgrwt>
<rscale>  2 0.22251982E+03</rscale>
<asrwt>0</asrwt>
<pdfrwt beam="1">  1       21 0.65511979E-01 0.22397086E+03</pdfrwt>
<pdfrwt beam="2">  1       21 0.17915955E-01 0.22397086E+03</pdfrwt>
<totfact> 0.59818982E+04</totfact>
</mgrwt>
</event>
<event>
12    1  0.1473662E-001  0.1758596E+03  0.7546771E-02  0.1172114E+00
         21   -1    0    0  504  503  0.00000000000E+00  0.00000000000E+00  0.45379394798E+02  0.45379394798E+02  0.00000000000E+00 0.  1.
         21   -1    0    0  502  504 -0.00000000000E+00 -0.00000000000E+00 -0.70238210061E+03  0.70238210061E+03  0.00000000000E+00 0.  1.
          6    2    1    2  502    0 -0.17034501971E+02 -0.19403627677E+02 -0.39939340275E+03  0.43639625402E+03  0.17395380230E+03 0.  0.
         24    2    3    3    0    0 -0.13136294261E+02 -0.35025306027E+02 -0.86157163191E+02  0.12271127728E+03  0.78966236538E+02 0.  0.
         -6    2    1    2    0  503  0.17034501971E+02  0.19403627677E+02 -0.25760930306E+03  0.31136524139E+03  0.17297134300E+03 0.  0.
        -24    2    5    5    0    0 -0.10641528758E+01 -0.28170035915E+02 -0.51732986623E+02  0.99238009653E+02  0.79857356017E+02 0.  0.
          4    1    4    4  501    0 -0.42464662623E+02 -0.13921976065E+02 -0.23771380134E+02  0.50617659989E+02  0.00000000000E+00 0. -1.
         -3    1    4    4    0  501  0.29328368363E+02 -0.21103329963E+02 -0.62385783057E+02  0.72093617290E+02  0.00000000000E+00 0.  1.
          5    1    3    3  502    0 -0.38982077099E+01  0.15621678350E+02 -0.31323623956E+03  0.31368497674E+03  0.47000000000E+01 0. -1.
         11    1    6    6    0    0  0.35534080033E+02 -0.74736696433E+01 -0.43026725058E+02  0.56301204702E+02  0.00000000000E+00 0. -1.
        -12    1    6    6    0    0 -0.36598232909E+02 -0.20696366272E+02 -0.87062615656E+01  0.42936804951E+02  0.00000000000E+00 0.  1.
         -5    1    5    5    0  503  0.18098654847E+02  0.47573663593E+02 -0.20587631644E+03  0.21212723174E+03  0.47000000000E+01 0.  1.
<mgrwt>
<rscale>  2 0.17561616E+03</rscale>
<asrwt>0</asrwt>
<pdfrwt beam="1">  1       21 0.69814453E-02 0.17585960E+03</pdfrwt>
<pdfrwt beam="2">  1       21 0.10805879E+00 0.17585960E+03</pdfrwt>
<totfact> 0.10433888E+05</totfact>
</mgrwt>
</event>
<event>
12    1  0.1473662E-001  0.2105075E+03  0.7546771E-02  0.1141242E+00
         21   -1    0    0  504  503  0.00000000000E+00  0.00000000000E+00  0.62834300641E+03  0.62834300641E+03  0.00000000000E+00 0.  1.
         21   -1    0    0  502  504 -0.00000000000E+00 -0.00000000000E+00 -0.10619604364E+03  0.10619604364E+03  0.00000000000E+00 0.  1.
          6    2    1    2  502    0 -0.11984005972E+03  0.16829457553E+02  0.47662723851E+02  0.21545456708E+03  0.17176747269E+03 0.  0.
         24    2    3    3    0    0 -0.87024754706E+02  0.64825526094E+02 -0.12403580876E+02  0.13172573213E+03  0.73635337446E+02 0.  0.
         -6    2    1    2    0  503  0.11984005972E+03 -0.16829457553E+02  0.47448423892E+03  0.51908448298E+03  0.17224557159E+03 0.  0.
        -24    2    5    5    0    0  0.12917243287E+03 -0.24338615491E+01  0.24795576786E+03  0.29185868213E+03  0.83713717047E+02 0.  0.
          2    1    4    4  501    0  0.66491312849E+01  0.37271072051E+01 -0.18205673972E+02  0.19736991659E+02  0.00000000000E+00 0. -1.
         -1    1    4    4    0  501 -0.93673885991E+02  0.61098418889E+02  0.58020930956E+01  0.11198874047E+03  0.00000000000E+00 0.  1.
          5    1    3    3  502    0 -0.32815305013E+02 -0.47996068542E+02  0.60066304727E+02  0.83728834950E+02  0.47000000000E+01 0. -1.
         11    1    6    6    0    0  0.28949308550E+02  0.84028493967E+00  0.54926621193E+01  0.29477752314E+02  0.00000000000E+00 0. -1.
        -12    1    6    6    0    0  0.10022312432E+03 -0.32741464888E+01  0.24246310574E+03  0.26238092981E+03  0.00000000000E+00 0.  1.
         -5    1    5    5    0  503 -0.93323731509E+01 -0.14395596003E+02  0.22652847106E+03  0.22722580085E+03  0.47000000000E+01 0.  1.
<mgrwt>
<rscale>  2 0.21040968E+03</rscale>
<asrwt>0</asrwt>
<pdfrwt beam="1">  1       21 0.96668153E-01 0.21050750E+03</pdfrwt>
<pdfrwt beam="2">  1       21 0.16337853E-01 0.21050750E+03</pdfrwt>
<totfact> 0.29543111E+04</totfact>
</mgrwt>
</event>
<event>
12    1  0.1473662E-001  0.1866386E+03  0.7546771E-02  0.1161659E+00
         21   -1    0    0  504  503  0.00000000000E+00  0.00000000000E+00  0.16833540384E+03  0.16833540384E+03  0.00000000000E+00 0. -1.
         21   -1    0    0  502  504 -0.00000000000E+00 -0.00000000000E+00 -0.33030936701E+03  0.33030936701E+03  0.00000000000E+00 0. -1.
          6    2    1    2  502    0  0.12189328941E+02  0.67087398434E+02 -0.23367187002E+03  0.29870839582E+03  0.17313250453E+03 0.  0.
         24    2    3    3    0    0  0.65752273801E+02  0.22281903383E+02 -0.88522546076E+02  0.13756579534E+03  0.79172357262E+02 0.  0.
         -6    2    1    2    0  503 -0.12189328941E+02 -0.67087398434E+02  0.71697906847E+02  0.19993637504E+03  0.17373734615E+03 0.  0.
        -24    2    5    5    0    0  0.58701958476E+02 -0.53158567006E+02  0.39831944373E+02  0.12083443738E+03  0.82113484211E+02 0.  0.
          4    1    4    4  501    0  0.18383484912E+02  0.12703902995E+02  0.12481467673E+02  0.25595482103E+02  0.00000000000E+00 0. -1.
         -3    1    4    4    0  501  0.47368788889E+02  0.95780003877E+01 -0.10100401375E+03  0.11197031323E+03  0.00000000000E+00 0.  1.
          5    1    3    3  502    0 -0.53562944860E+02  0.44805495051E+02 -0.14514932394E+03  0.16114260048E+03  0.47000000000E+01 0. -1.
         13    1    6    6    0    0  0.44790152261E+02 -0.64322800754E+02  0.13199620793E+01  0.78392108891E+02  0.00000000000E+00 0. -1.
        -14    1    6    6    0    0  0.13911806214E+02  0.11164233749E+02  0.38511982294E+02  0.42442328489E+02  0.00000000000E+00 0.  1.
         -5    1    5    5    0  503 -0.70891287417E+02 -0.13928831428E+02  0.31865962474E+02  0.79101937656E+02  0.47000000000E+01 0.  1.
<mgrwt>
<rscale>  2 0.18649771E+03</rscale>
<asrwt>0</asrwt>
<pdfrwt beam="1">  1       21 0.25897754E-01 0.18663859E+03</pdfrwt>
<pdfrwt beam="2">  1       21 0.50816826E-01 0.18663859E+03</pdfrwt>
<totfact> 0.52300351E+04</totfact>
</mgrwt>
</event>
<event>
12    1  0.1473662E-001  0.1750425E+03  0.7546771E-02  0.1172748E+00
         21   -1    0    0  504  503  0.00000000000E+00  0.00000000000E+00  0.66457513064E+02  0.66457513064E+02  0.00000000000E+00 0. -1.
         21   -1    0    0  502  504 -0.00000000000E+00 -0.00000000000E+00 -0.46145035998E+03  0.46145035998E+03  0.00000000000E+00 0. -1.
          6    2    1    2  502    0  0.26613952492E+02 -0.11907098115E+02 -0.18490322822E+03  0.25445309117E+03  0.17235744935E+03 0.  0.
         24    2    3    3    0    0 -0.49492885638E+01 -0.23160081011E+00 -0.17710536232E+02  0.83842301131E+02  0.81800484529E+02 0.  0.
         -6    2    1    2    0  503 -0.26613952492E+02  0.11907098115E+02 -0.21008961870E+03  0.27345478188E+03  0.17259718536E+03 0.  0.
        -24    2    5    5    0    0  0.40504277613E+01 -0.49357635531E+02 -0.16034972927E+03  0.18866198498E+03  0.86190061782E+02 0.  0.
          4    1    4    4  501    0  0.29527836075E+02 -0.11725468724E+02  0.14829051797E+02  0.35061096635E+02  0.00000000000E+00 0. -1.
         -3    1    4    4    0  501 -0.34477124639E+02  0.11493867914E+02 -0.32539588029E+02  0.48781204496E+02  0.00000000000E+00 0.  1.
          5    1    3    3  502    0  0.31563241056E+02 -0.11675497305E+02 -0.16719269199E+03  0.17061079004E+03  0.47000000000E+01 0. -1.
         11    1    6    6    0    0 -0.39023611299E+02 -0.34659154400E+02 -0.68143707861E+02  0.85835098553E+02  0.00000000000E+00 0. -1.
        -12    1    6    6    0    0  0.43074039060E+02 -0.14698481131E+02 -0.92206021408E+02  0.10282688643E+03  0.00000000000E+00 0.  1.
         -5    1    5    5    0  503 -0.30664380253E+02  0.61264733646E+02 -0.49739889429E+02  0.84792796896E+02  0.47000000000E+01 0.  1.
<mgrwt>
<rscale>  2 0.17498335E+03</rscale>
<asrwt>0</asrwt>
<pdfrwt beam="1">  1       21 0.10224233E-01 0.17504248E+03</pdfrwt>
<pdfrwt beam="2">  1       21 0.70992362E-01 0.17504248E+03</pdfrwt>
<totfact> 0.14101040E+05</totfact>
</mgrwt>
</event>
<event>
12    1  0.1473662E-001  0.1766913E+03  0.7546771E-02  0.1171794E+00
         21   -1    0    0  504  503  0.00000000000E+00  0.00000000000E+00  0.28605934102E+03  0.28605934102E+03  0.00000000000E+00 0. -1.
         21   -1    0    0  502  504 -0.00000000000E+00 -0.00000000000E+00 -0.12965166192E+03  0.12965166192E+03  0.00000000000E+00 0. -1.
          6    2    1    2  502    0  0.33792433839E+02  0.71439102629E+01 -0.75557842132E+01  0.17685274494E+03  0.17328254234E+03 0.  0.
         24    2    3    3    0    0  0.27787278296E+02 -0.25460101776E+02  0.55811309151E+02  0.10518293250E+03  0.80797261349E+02 0.  0.
         -6    2    1    2    0  503 -0.33792433839E+02 -0.71439102629E+01  0.16396346331E+03  0.23885825800E+03  0.17022422295E+03 0.  0.
        -24    2    5    5    0    0  0.13913037077E+02  0.45844734826E+02  0.12849226401E+03  0.15908417422E+03  0.80636221795E+02 0.  0.
          4    1    4    4  501    0  0.19197753348E+02 -0.87292546215E+01  0.75241778465E+02  0.78141402895E+02  0.00000000000E+00 0. -1.
         -3    1    4    4    0  501  0.85895249481E+01 -0.16730847155E+02 -0.19430469314E+02  0.27041529600E+02  0.00000000000E+00 0.  1.
          5    1    3    3  502    0  0.60051555427E+01  0.32604012039E+02 -0.63367093364E+02  0.71669812443E+02  0.47000000000E+01 0. -1.
         13    1    6    6    0    0  0.25244777737E+01 -0.13205232552E+02 -0.36242961039E+01  0.13924319625E+02  0.00000000000E+00 0. -1.
        -14    1    6    6    0    0  0.11388559303E+02  0.59049967378E+02  0.13211656011E+03  0.14515985459E+03  0.00000000000E+00 0.  1.
         -5    1    5    5    0  503 -0.47705470916E+02 -0.52988645089E+02  0.35471199303E+02  0.79774083784E+02  0.47000000000E+01 0.  1.
<mgrwt>
<rscale>  2 0.17593688E+03</rscale>
<asrwt>0</asrwt>
<pdfrwt beam="1">  1       21 0.44009129E-01 0.17669127E+03</pdfrwt>
<pdfrwt beam="2">  1       21 0.19946410E-01 0.17669127E+03</pdfrwt>
<totfact> 0.11573015E+05</totfact>
</mgrwt>
</event>
<event>
12    1  0.1473662E-001  0.1855654E+03  0.7546771E-02  0.1162575E+00
         21   -1    0    0  504  503  0.00000000000E+00  0.00000000000E+00  0.27240751263E+03  0.27240751263E+03  0.00000000000E+00 0. -1.
         21   -1    0    0  502  504 -0.00000000000E+00 -0.00000000000E+00 -0.14769741364E+03  0.14769741364E+03  0.00000000000E+00 0. -1.
          6    2    1    2  502    0 -0.57357651200E+02  0.33040150818E+02 -0.17645190159E+02  0.18640243788E+03  0.17335790837E+03 0.  0.
         24    2    3    3    0    0  0.15768083257E+02  0.60650992254E+02 -0.16161613307E+02  0.10808243657E+03  0.86564658143E+02 0.  0.
         -6    2    1    2    0  503  0.57357651200E+02 -0.33040150818E+02  0.14235528915E+03  0.23370248839E+03  0.17311924506E+03 0.  0.
        -24    2    5    5    0    0 -0.28908124716E+02  0.62084360828E+01  0.97875323684E+02  0.12890366685E+03  0.78500649595E+02 0.  0.
          4    1    4    4  501    0  0.36565989262E+02  0.73706904140E+02 -0.13563226688E+02  0.83389090454E+02  0.00000000000E+00 0. -1.
         -3    1    4    4    0  501 -0.20797906005E+02 -0.13055911887E+02 -0.25983866192E+01  0.24693346116E+02  0.00000000000E+00 0.  1.
          5    1    3    3  502    0 -0.73125734457E+02 -0.27610841435E+02 -0.14835768523E+01  0.78320001308E+02  0.47000000000E+01 0. -1.
         11    1    6    6    0    0  0.24076770199E+02  0.77228193174E+00  0.98645196012E+01  0.26030674781E+02  0.00000000000E+00 0. -1.
        -12    1    6    6    0    0 -0.52984894915E+02  0.54361541510E+01  0.88010804083E+02  0.10287299207E+03  0.00000000000E+00 0.  1.
         -5    1    5    5    0  503  0.86265775916E+02 -0.39248586901E+02  0.44479965467E+02  0.10479882154E+03  0.47000000000E+01 0.  1.
<mgrwt>
<rscale>  2 0.18550963E+03</rscale>
<asrwt>0</asrwt>
<pdfrwt beam="1">  1       21 0.41908848E-01 0.18556540E+03</pdfrwt>
<pdfrwt beam="2">  1       21 0.22722679E-01 0.18556540E+03</pdfrwt>
<totfact> 0.99791825E+04</totfact>
</mgrwt>
</event>
<event>
12    1  0.1473662E-001  0.3567645E+03  0.7546771E-02  0.1060744E+00
         21   -1    0    0  504  503  0.00000000000E+00  0.00000000000E+00  0.68977643753E+03  0.68977643753E+03  0.00000000000E+00 0. -1.
         21   -1    0    0  502  504 -0.00000000000E+00 -0.00000000000E+00 -0.47319048525E+03  0.47319048525E+03  0.00000000000E+00 0.  1.
          6    2    1    2  502    0  0.20719032177E+03 -0.23453803765E+03 -0.34982862285E+03  0.49355943465E+03  0.15259400260E+03 0.  0.
         24    2    3    3    0    0  0.20354771037E+03 -0.15914600016E+03 -0.25022426647E+03  0.36849806674E+03  0.80121918948E+02 0.  0.
         -6    2    1    2    0  503 -0.20719032177E+03  0.23453803765E+03  0.56641457513E+03  0.66940748813E+03  0.17130380529E+03 0.  0.
        -24    2    5    5    0    0 -0.10520778933E+03  0.21799975807E+03  0.39483027645E+03  0.46906474889E+03  0.74419204432E+02 0.  0.
          4    1    4    4  501    0  0.13911753825E+02  0.92241214217E+01 -0.19296169475E+02  0.25513985712E+02  0.00000000000E+00 0. -1.
         -3    1    4    4    0  501  0.18963595655E+03 -0.16837012158E+03 -0.23092809700E+03  0.34298408103E+03  0.00000000000E+00 0.  1.
          5    1    3    3  502    0  0.36426114003E+01 -0.75392037483E+02 -0.99604356379E+02  0.12506136791E+03  0.47000000000E+01 0. -1.
         11    1    6    6    0    0 -0.11190643517E+03  0.17662959469E+03  0.30323975479E+03  0.36834143513E+03  0.00000000000E+00 0. -1.
        -12    1    6    6    0    0  0.66986458390E+01  0.41370163382E+02  0.91590521667E+02  0.10072331375E+03  0.00000000000E+00 0.  1.
         -5    1    5    5    0  503 -0.10198253244E+03  0.16538279572E+02  0.17158429867E+03  0.20034273924E+03  0.47000000000E+01 0.  1.
<mgrwt>
<rscale>  2 0.35459565E+03</rscale>
<asrwt>0</asrwt>
<pdfrwt beam="1">  1       21 0.10611945E+00 0.35676451E+03</pdfrwt>
<pdfrwt beam="2">  1       21 0.72798536E-01 0.35676451E+03</pdfrwt>
<totfact> 0.10746224E+03</totfact>
</mgrwt>
</event>
<event>
12    1  0.1473662E-001  0.2075777E+03  0.7546771E-02  0.1143959E+00
         21   -1    0    0  504  503  0.00000000000E+00  0.00000000000E+00  0.65471086177E+03  0.65471086177E+03  0.00000000000E+00 0.  1.
         21   -1    0    0  502  504 -0.00000000000E+00 -0.00000000000E+00 -0.65177143814E+02  0.65177143814E+02  0.00000000000E+00 0.  1.
          6    2    1    2  502    0  0.67422871016E+02  0.88028739361E+02  0.28018046007E+03  0.34734548405E+03  0.17277989639E+03 0.  0.
         24    2    3    3    0    0  0.91952209984E+02  0.11598373435E+03  0.22552380531E+03  0.28106871494E+03  0.78937951582E+02 0.  0.
         -6    2    1    2    0  503 -0.67422871016E+02 -0.88028739361E+02  0.30935325789E+03  0.37254252153E+03  0.17548102374E+03 0.  0.
        -24    2    5    5    0    0 -0.69456696645E+02 -0.26232801458E+02  0.28576222427E+03  0.30619871055E+03  0.81149300331E+02 0.  0.
          4    1    4    4  501    0  0.70416972741E+02  0.25921770899E+02  0.95941467059E+02  0.12180005484E+03  0.00000000000E+00 0. -1.
         -3    1    4    4    0  501  0.21535237243E+02  0.90061963451E+02  0.12958233826E+03  0.15926866010E+03  0.00000000000E+00 0.  1.
          5    1    3    3  502    0 -0.24529338968E+02 -0.27954994989E+02  0.54656654753E+02  0.66276769111E+02  0.47000000000E+01 0. -1.
         11    1    6    6    0    0 -0.30535170131E+02  0.23664144967E+02  0.16932727093E+03  0.17367818819E+03  0.00000000000E+00 0. -1.
        -12    1    6    6    0    0 -0.38921526514E+02 -0.49896946425E+02  0.11643495334E+03  0.13252052236E+03  0.00000000000E+00 0.  1.
         -5    1    5    5    0  503  0.20338256293E+01 -0.61795937903E+02  0.23591033621E+02  0.66343810980E+02  0.47000000000E+01 0.  1.
<mgrwt>
<rscale>  2 0.20700572E+03</rscale>
<asrwt>0</asrwt>
<pdfrwt beam="1">  1       21 0.10072474E+00 0.20757768E+03</pdfrwt>
<pdfrwt beam="2">  1       21 0.10027253E-01 0.20757768E+03</pdfrwt>
<totfact> 0.64702087E+04</totfact>
</mgrwt>
</event>
<event>
12    1  0.1473662E-001  0.2193119E+03  0.7546771E-02  0.1135804E+00
         21   -1    0    0  504  503  0.00000000000E+00  0.00000000000E+00  0.79732859824E+03  0.79732859824E+03  0.00000000000E+00 0.  1.
         21   -1    0    0  502  504 -0.00000000000E+00 -0.00000000000E+00 -0.59450301389E+02  0.59450301389E+02  0.00000000000E+00 0.  1.
          6    2    1    2  502    0  0.50560800930E+02  0.12366083090E+03  0.31581173901E+03  0.38449286923E+03  0.17392330579E+03 0.  0.
         24    2    3    3    0    0 -0.32566302108E+02  0.87854431090E+02  0.14261708814E+03  0.18901731930E+03  0.81295436969E+02 0.  0.
         -6    2    1    2    0  503 -0.50560800930E+02 -0.12366083090E+03  0.42206655784E+03  0.47228603040E+03  0.16451601617E+03 0.  0.
        -24    2    5    5    0    0 -0.72743482253E+02 -0.40884999939E+02  0.31261286655E+03  0.33319573571E+03  0.79557504545E+02 0.  0.
          4    1    4    4  501    0 -0.32141041729E+02  0.49485508665E+01  0.12723471808E+02  0.34920215548E+02  0.00000000000E+00 0. -1.
         -3    1    4    4    0  501 -0.42526037894E+00  0.82905880223E+02  0.12989361633E+03  0.15409710375E+03  0.00000000000E+00 0.  1.
          5    1    3    3  502    0  0.83127103038E+02  0.35806399810E+02  0.17319465088E+03  0.19547554993E+03  0.47000000000E+01 0. -1.
         13    1    6    6    0    0 -0.11187009099E+02  0.81724363206E+01  0.16781570865E+03  0.16838660861E+03  0.00000000000E+00 0. -1.
        -14    1    6    6    0    0 -0.61556473154E+02 -0.49057436259E+02  0.14479715790E+03  0.16480912710E+03  0.00000000000E+00 0.  1.
         -5    1    5    5    0  503  0.22182681323E+02 -0.82775830961E+02  0.10945369129E+03  0.13909029469E+03  0.47000000000E+01 0.  1.
<mgrwt>
<rscale>  2 0.21744242E+03</rscale>
<asrwt>0</asrwt>
<pdfrwt beam="1">  1       21 0.12266593E+00 0.21931191E+03</pdfrwt>
<pdfrwt beam="2">  1       21 0.91462008E-02 0.21931191E+03</pdfrwt>
<totfact> 0.46818771E+04</totfact>
</mgrwt>
</event>
<event>
12    1  0.1473662E-001  0.2125898E+03  0.7546771E-02  0.1139878E+00
         21   -1    0    0  504  503  0.00000000000E+00  0.00000000000E+00  0.15390557652E+03  0.15390557652E+03  0.00000000000E+00 0.  1.
         21   -1    0    0  502  504 -0.00000000000E+00 -0.00000000000E+00 -0.36350221174E+03  0.36350221174E+03  0.00000000000E+00 0. -1.
          6    2    1    2  502    0  0.10591259327E+03 -0.60001817576E+02 -0.22052106160E+03  0.30630696939E+03  0.17428920036E+03 0.  0.
         24    2    3    3    0    0  0.18245501920E+02 -0.32804296304E+02 -0.18928215980E+03  0.20923388839E+03  0.80883025630E+02 0.  0.
         -6    2    1    2    0  503 -0.10591259327E+03  0.60001817576E+02  0.10924426387E+02  0.21110081887E+03  0.17212355188E+03 0.  0.
        -24    2    5    5    0    0 -0.31770569904E+01  0.41879057255E+02 -0.33535781097E+02  0.97602691551E+02  0.81472005355E+02 0.  0.
          2    1    4    4  501    0  0.40245249708E+02 -0.31314280626E+02 -0.17656130533E+03  0.18377747097E+03  0.00000000000E+00 0. -1.
         -1    1    4    4    0  501 -0.21999747788E+02 -0.14900156782E+01 -0.12720854470E+02  0.25456417421E+02  0.00000000000E+00 0.  1.
          5    1    3    3  502    0  0.87667091351E+02 -0.27197521272E+02 -0.31238901801E+02  0.97073081001E+02  0.47000000000E+01 0. -1.
         11    1    6    6    0    0  0.92183457322E+01  0.10768179476E+02 -0.55678822713E+02  0.57454876955E+02  0.00000000000E+00 0. -1.
        -12    1    6    6    0    0 -0.12395402723E+02  0.31110877779E+02  0.22143041615E+02  0.40147814596E+02  0.00000000000E+00 0.  1.
         -5    1    5    5    0  503 -0.10273553628E+03  0.18122760320E+02  0.44460207484E+02  0.11349812732E+03  0.47000000000E+01 0.  1.
<mgrwt>
<rscale>  2 0.21214545E+03</rscale>
<asrwt>0</asrwt>
<pdfrwt beam="1">  1       21 0.23677781E-01 0.21258979E+03</pdfrwt>
<pdfrwt beam="2">  1       21 0.55923416E-01 0.21258979E+03</pdfrwt>
<totfact> 0.50094589E+04</totfact>
</mgrwt>
</event>
<event>
12    1  0.1473662E-001  0.2166350E+03  0.7546771E-02  0.1136498E+00
         21   -1    0    0  504  503  0.00000000000E+00  0.00000000000E+00  0.17441710938E+03  0.17441710938E+03  0.00000000000E+00 0.  1.
         21   -1    0    0  502  504 -0.00000000000E+00 -0.00000000000E+00 -0.27011095484E+03  0.27011095484E+03  0.00000000000E+00 0.  1.
          6    2    1    2  502    0  0.48138821346E+02 -0.11954595599E+03 -0.64721543874E+02  0.22569017538E+03  0.17360470993E+03 0.  0.
         24    2    3    3    0    0  0.93349429666E+02 -0.11736650203E+03 -0.54648577768E+02  0.17908219570E+03  0.81209321795E+02 0.  0.
         -6    2    1    2    0  503 -0.48138821346E+02  0.11954595599E+03 -0.30972301588E+02  0.21883788883E+03  0.17413258285E+03 0.  0.
        -24    2    5    5    0    0 -0.63075620070E+02  0.19204035823E+02 -0.52247493721E+02  0.11507694869E+03  0.78521173454E+02 0.  0.
          2    1    4    4  501    0  0.95416270155E+02 -0.61331497845E+02 -0.45754112403E+02  0.12230803751E+03  0.00000000000E+00 0. -1.
         -1    1    4    4    0  501 -0.20668404899E+01 -0.56035004184E+02 -0.88944653652E+01  0.56774158185E+02  0.00000000000E+00 0.  1.
          5    1    3    3  502    0 -0.45210608319E+02 -0.21794539628E+01 -0.10072966106E+02  0.46607979685E+02  0.47000000000E+01 0. -1.
         11    1    6    6    0    0  0.77962376163E+01 -0.65126779876E+01 -0.36722469378E+02  0.38101654199E+02  0.00000000000E+00 0. -1.
        -12    1    6    6    0    0 -0.70871857686E+02  0.25716713811E+02 -0.15525024343E+02  0.76975294491E+02  0.00000000000E+00 0.  1.
         -5    1    5    5    0  503  0.14936798723E+02  0.10034192017E+03  0.21275192133E+02  0.10376094014E+03  0.47000000000E+01 0.  1.
<mgrwt>
<rscale>  2 0.21652894E+03</rscale>
<asrwt>0</asrwt>
<pdfrwt beam="1">  1       21 0.26833401E-01 0.21663503E+03</pdfrwt>
<pdfrwt beam="2">  1       21 0.41555531E-01 0.21663503E+03</pdfrwt>
<totfact> 0.72980953E+04</totfact>
</mgrwt>
</event>
<event>
12    1  0.1473662E-001  0.2375168E+03  0.7546771E-02  0.1121591E+00
         21   -1    0    0  504  503  0.00000000000E+00  0.00000000000E+00  0.98234419808E+02  0.98234419808E+02  0.00000000000E+00 0.  1.
         21   -1    0    0  502  504 -0.00000000000E+00 -0.00000000000E+00 -0.74312737344E+03  0.74312737344E+03  0.00000000000E+00 0. -1.
          6    2    1    2  502    0 -0.17578978773E+02  0.16077874119E+03 -0.52368071217E+03  0.57470355420E+03  0.17286949645E+03 0.  0.
         24    2    3    3    0    0 -0.29576362473E+02  0.17749882712E+03 -0.36771335935E+03  0.41731421646E+03  0.80978057339E+02 0.  0.
         -6    2    1    2    0  503  0.17578978773E+02 -0.16077874119E+03 -0.12121224147E+03  0.26665823905E+03  0.17394075100E+03 0.  0.
        -24    2    5    5    0    0  0.39667383153E+01 -0.18454870849E+03 -0.12729157525E+03  0.23820911367E+03  0.80414401007E+02 0.  0.
          4    1    4    4  501    0  0.10613518534E+01  0.16282555784E+03 -0.29204498006E+03  0.33437039213E+03  0.00000000000E+00 0. -1.
         -3    1    4    4    0  501 -0.30637714326E+02  0.14673269277E+02 -0.75668379289E+02  0.82943824331E+02  0.00000000000E+00 0.  1.
          5    1    3    3  502    0  0.11997383700E+02 -0.16720085928E+02 -0.15596735282E+03  0.15738933774E+03  0.47000000000E+01 0. -1.
         13    1    6    6    0    0 -0.22141672109E+01 -0.13296349320E+03 -0.44055807005E+02  0.14008963984E+03  0.00000000000E+00 0. -1.
        -14    1    6    6    0    0  0.61809055262E+01 -0.51585215292E+02 -0.83235768246E+02  0.98119473834E+02  0.00000000000E+00 0.  1.
         -5    1    5    5    0  503  0.13612240458E+02  0.23769967294E+02  0.60793337839E+01  0.28449125377E+02  0.47000000000E+01 0.  1.
<mgrwt>
<rscale>  2 0.23732067E+03</rscale>
<asrwt>0</asrwt>
<pdfrwt beam="1">  1       21 0.15112988E-01 0.23751676E+03</pdfrwt>
<pdfrwt beam="2">  1       21 0.11432728E+00 0.23751676E+03</pdfrwt>
<totfact> 0.22422705E+04</totfact>
</mgrwt>
</event>
<event>
12    1  0.1473662E-001  0.1788096E+03  0.7546771E-02  0.1169151E+00
         21   -1    0    0  504  503  0.00000000000E+00  0.00000000000E+00  0.52923799286E+02  0.52923799286E+02  0.00000000000E+00 0.  1.
         21   -1    0    0  502  504 -0.00000000000E+00 -0.00000000000E+00 -0.66643060132E+03  0.66643060132E+03  0.00000000000E+00 0.  1.
          6    2    1    2  502    0  0.54346245634E+01 -0.47272128051E+02 -0.41842022350E+03  0.45471945856E+03  0.17155207174E+03 0.  0.
         24    2    3    3    0    0 -0.48142733390E+02 -0.69420369171E+02 -0.24069485084E+03  0.26771818594E+03  0.81253341047E+02 0.  0.
         -6    2    1    2    0  503 -0.54346245634E+01  0.47272128051E+02 -0.19508657853E+03  0.26463494205E+03  0.17236209037E+03 0.  0.
        -24    2    5    5    0    0  0.34436852209E+02  0.51572732629E+02 -0.50090229554E+02  0.11412161680E+03  0.81664366672E+02 0.  0.
          4    1    4    4  501    0 -0.50502620829E+02 -0.18961141863E+02 -0.62788923071E+02  0.82779758829E+02  0.00000000000E+00 0. -1.
         -3    1    4    4    0  501  0.23598874389E+01 -0.50459227308E+02 -0.17790592777E+03  0.18493842712E+03  0.00000000000E+00 0.  1.
          5    1    3    3  502    0  0.53577357953E+02  0.22148241121E+02 -0.17772537266E+03  0.18700127261E+03  0.47000000000E+01 0. -1.
         11    1    6    6    0    0  0.22649577024E+02  0.53810383858E+02 -0.69830551781E+02  0.91021243193E+02  0.00000000000E+00 0. -1.
        -12    1    6    6    0    0  0.11787275186E+02 -0.22376512295E+01  0.19740322226E+02  0.23100373610E+02  0.00000000000E+00 0.  1.
         -5    1    5    5    0  503 -0.39871476773E+02 -0.43006045783E+01 -0.14499634898E+03  0.15051332524E+03  0.47000000000E+01 0.  1.
<mgrwt>
<rscale>  2 0.17861413E+03</rscale>
<asrwt>0</asrwt>
<pdfrwt beam="1">  1       21 0.81421233E-02 0.17880962E+03</pdfrwt>
<pdfrwt beam="2">  1       21 0.10252778E+00 0.17880962E+03</pdfrwt>
<totfact> 0.90555586E+04</totfact>
</mgrwt>
</event>
<event>
12    1  0.1473662E-001  0.2164847E+03  0.7546771E-02  0.1136572E+00
         21   -1    0    0  504  503  0.00000000000E+00  0.00000000000E+00  0.18665362659E+04  0.18665362659E+04  0.00000000000E+00 0. -1.
         21   -1    0    0  502  504 -0.00000000000E+00 -0.00000000000E+00 -0.29567385692E+02  0.29567385692E+02  0.00000000000E+00 0.  1.
          6    2    1    2  502    0 -0.47585197617E+01 -0.12882618845E+03  0.54967138796E+03  0.59076582341E+03  0.17391605166E+03 0.  0.
         24    2    3    3    0    0 -0.59974719824E+00 -0.78084233474E+02  0.14660760454E+03  0.18447215513E+03  0.80241380183E+02 0.  0.
         -6    2    1    2    0  503  0.47585197617E+01  0.12882618845E+03  0.12872974922E+04  0.13053378282E+04  0.17364671548E+03 0.  0.
        -24    2    5    5    0    0  0.56833758685E+02  0.12360722454E+03  0.82047179803E+03  0.83556406681E+03  0.80526494367E+02 0.  0.
          4    1    4    4  501    0 -0.34143697786E+02 -0.56411330350E+02  0.11858513720E+03  0.13568516888E+03  0.00000000000E+00 0. -1.
         -3    1    4    4    0  501  0.33543950588E+02 -0.21672903123E+02  0.28022467349E+02  0.48786986248E+02  0.00000000000E+00 0.  1.
          5    1    3    3  502    0 -0.41587725635E+01 -0.50741954976E+02  0.40306378342E+03  0.40629366828E+03  0.47000000000E+01 0. -1.
         13    1    6    6    0    0  0.11678414576E+02  0.84786257974E+02  0.63564652787E+03  0.64138257172E+03  0.00000000000E+00 0. -1.
        -14    1    6    6    0    0  0.45155344109E+02  0.38820966568E+02  0.18482527016E+03  0.19418149509E+03  0.00000000000E+00 0.  1.
         -5    1    5    5    0  503 -0.52075238923E+02  0.52189639073E+01  0.46682569422E+03  0.46977376137E+03  0.47000000000E+01 0.  1.
<mgrwt>
<rscale>  2 0.21643060E+03</rscale>
<asrwt>0</asrwt>
<pdfrwt beam="1">  1       21 0.28715933E+00 0.21648470E+03</pdfrwt>
<pdfrwt beam="2">  1       21 0.45488300E-02 0.21648470E+03</pdfrwt>
<totfact> 0.12480307E+04</totfact>
</mgrwt>
</event>
<event>
12    1  0.1473662E-001  0.2050352E+03  0.7546771E-02  0.1145721E+00
         21   -1    0    0  504  503  0.00000000000E+00  0.00000000000E+00  0.22248131303E+03  0.22248131303E+03  0.00000000000E+00 0.  1.
         21   -1    0    0  502  504 -0.00000000000E+00 -0.00000000000E+00 -0.26373171377E+03  0.26373171377E+03  0.00000000000E+00 0.  1.
          6    2    1    2  502    0 -0.57221306708E+02 -0.92812188238E+02 -0.15073046101E+03  0.25447808752E+03  0.17364056244E+03 0.  0.
         24    2    3    3    0    0 -0.39463213261E+02  0.10175867910E+02 -0.64793099439E+02  0.11909267580E+03  0.91236101442E+02 0.  0.
         -6    2    1    2    0  503  0.57221306708E+02  0.92812188238E+02  0.10948006027E+03  0.23173493928E+03  0.17270442455E+03 0.  0.
        -24    2    5    5    0    0 -0.35067977598E+02  0.53323506106E+02  0.70891167083E+02  0.12408801322E+03  0.79366983673E+02 0.  0.
          2    1    4    4  501    0 -0.24071358265E+02  0.50324835584E+02 -0.27596402875E+02  0.62238097793E+02  0.00000000000E+00 0. -1.
         -1    1    4    4    0  501 -0.15391854996E+02 -0.40148967673E+02 -0.37196696563E+02  0.56854578010E+02  0.00000000000E+00 0.  1.
          5    1    3    3  502    0 -0.17758093447E+02 -0.10298805615E+03 -0.85937361575E+02  0.13538541172E+03  0.47000000000E+01 0. -1.
         13    1    6    6    0    0  0.55388872247E+01  0.34809933381E+02  0.71212907901E+02  0.79458725043E+02  0.00000000000E+00 0. -1.
        -14    1    6    6    0    0 -0.40606864822E+02  0.18513572725E+02 -0.32174081781E+00  0.44629288174E+02  0.00000000000E+00 0.  1.
         -5    1    5    5    0  503  0.92289284306E+02  0.39488682132E+02  0.38588893188E+02  0.10764692607E+03  0.47000000000E+01 0.  1.
<mgrwt>
<rscale>  2 0.20483684E+03</rscale>
<asrwt>0</asrwt>
<pdfrwt beam="1">  1       21 0.34227895E-01 0.20503518E+03</pdfrwt>
<pdfrwt beam="2">  1       21 0.40574110E-01 0.20503518E+03</pdfrwt>
<totfact> 0.47844499E+04</totfact>
</mgrwt>
</event>
<event>
12    1  0.1473662E-001  0.1931480E+03  0.7546771E-02  0.1157893E+00
         21   -1    0    0  504  503  0.00000000000E+00  0.00000000000E+00  0.16728500907E+03  0.16728500907E+03  0.00000000000E+00 0.  1.
         21   -1    0    0  502  504 -0.00000000000E+00 -0.00000000000E+00 -0.23056023794E+03  0.23056023794E+03  0.00000000000E+00 0.  1.
          6    2    1    2  502    0 -0.78498975270E+02 -0.40773724798E+02 -0.87662013282E+02  0.20316377932E+03  0.16051886774E+03 0.  0.
         24    2    3    3    0    0 -0.44258052005E+02  0.36222888341E+02 -0.37776138575E+02  0.10512496172E+03  0.79707892480E+02 0.  0.
         -6    2    1    2    0  503  0.78498975270E+02  0.40773724798E+02  0.24386784411E+02  0.19468146770E+03  0.17170198851E+03 0.  0.
        -24    2    5    5    0    0 -0.61902674371E+01  0.44860028081E+02  0.51483194571E+02  0.10554521722E+03  0.80240463764E+02 0.  0.
          2    1    4    4  501    0  0.10109274169E+02  0.22127305335E+02  0.14563260364E+02  0.28353194142E+02  0.00000000000E+00 0. -1.
         -1    1    4    4    0  501 -0.54367326173E+02  0.14095583006E+02 -0.52339398939E+02  0.76771767576E+02  0.00000000000E+00 0.  1.
          5    1    3    3  502    0 -0.34240923265E+02 -0.76996613139E+02 -0.49885874707E+02  0.98038817599E+02  0.47000000000E+01 0. -1.
         13    1    6    6    0    0  0.76687790341E+01 -0.20937669751E+02  0.24401711442E+02  0.33055101086E+02  0.00000000000E+00 0. -1.
        -14    1    6    6    0    0 -0.13859046471E+02  0.65797697832E+02  0.27081483129E+02  0.72490116137E+02  0.00000000000E+00 0.  1.
         -5    1    5    5    0  503  0.84689242707E+02 -0.40863032830E+01 -0.27096410160E+02  0.89136250473E+02  0.47000000000E+01 0.  1.
<mgrwt>
<rscale>  2 0.19063182E+03</rscale>
<asrwt>0</asrwt>
<pdfrwt beam="1">  1       21 0.25736155E-01 0.19314802E+03</pdfrwt>
<pdfrwt beam="2">  1       21 0.35470806E-01 0.19314802E+03</pdfrwt>
<totfact> 0.10979596E+05</totfact>
</mgrwt>
</event>
<event>
12    1  0.1473662E-001  0.2181915E+03  0.7546771E-02  0.1135324E+00
         21   -1    0    0  504  503  0.00000000000E+00  0.00000000000E+00  0.14316140698E+03  0.14316140698E+03  0.00000000000E+00 0.  1.
         21   -1    0    0  502  504 -0.00000000000E+00 -0.00000000000E+00 -0.39244061766E+03  0.39244061766E+03  0.00000000000E+00 0.  1.
          6    2    1    2  502    0 -0.12458896589E+03 -0.45946318643E+02 -0.22975510520E+03  0.31653875916E+03  0.17255695600E+03 0.  0.
         24    2    3    3    0    0 -0.14002467636E+03  0.11176354449E+01 -0.15789441944E+03  0.22913552644E+03  0.89242829879E+02 0.  0.
         -6    2    1    2    0  503  0.12458896589E+03  0.45946318643E+02 -0.19524105474E+02  0.21906326549E+03  0.17313015039E+03 0.  0.
        -24    2    5    5    0    0  0.35603981101E+02  0.81393176238E+02 -0.81424264757E+01  0.12248977094E+03  0.83934213932E+02 0.  0.
          4    1    4    4  501    0 -0.63724811234E+02 -0.42951613488E+02 -0.86695102561E+02  0.11585220531E+03  0.00000000000E+00 0. -1.
         -3    1    4    4    0  501 -0.76299865127E+02  0.44069248933E+02 -0.71199316883E+02  0.11328332112E+03  0.00000000000E+00 0.  1.
          5    1    3    3  502    0  0.15435710471E+02 -0.47063954088E+02 -0.71860685757E+02  0.87403232718E+02  0.47000000000E+01 0. -1.
         11    1    6    6    0    0  0.28990497910E+02  0.97242532881E+02 -0.17441430848E+02  0.10296000525E+03  0.00000000000E+00 0. -1.
        -12    1    6    6    0    0  0.66134831907E+01 -0.15849356642E+02  0.92990043727E+01  0.19529765698E+02  0.00000000000E+00 0.  1.
         -5    1    5    5    0  503  0.88984984790E+02 -0.35446857595E+02 -0.11381678998E+02  0.96573494543E+02  0.47000000000E+01 0.  1.
<mgrwt>
<rscale>  2 0.21807776E+03</rscale>
<asrwt>0</asrwt>
<pdfrwt beam="1">  1       21 0.22024832E-01 0.21819148E+03</pdfrwt>
<pdfrwt beam="2">  1       21 0.60375479E-01 0.21819148E+03</pdfrwt>
<totfact> 0.48644970E+04</totfact>
</mgrwt>
</event>
<event>
12    1  0.1473662E-001  0.2184066E+03  0.7546771E-02  0.1135232E+00
         21   -1    0    0  504  503  0.00000000000E+00  0.00000000000E+00  0.19855391093E+03  0.19855391093E+03  0.00000000000E+00 0.  1.
         21   -1    0    0  502  504 -0.00000000000E+00 -0.00000000000E+00 -0.28172976670E+03  0.28172976670E+03  0.00000000000E+00 0.  1.
          6    2    1    2  502    0  0.27237495099E+02  0.12865852516E+03  0.51633006061E+02  0.22362267163E+03  0.17333849750E+03 0.  0.
         24    2    3    3    0    0 -0.27501039854E+02  0.11653804712E+03  0.49309249689E+02  0.16731367554E+03  0.10594829068E+03 0.  0.
         -6    2    1    2    0  503 -0.27237495099E+02 -0.12865852516E+03 -0.13480886183E+03  0.25666100600E+03  0.17437472735E+03 0.  0.
        -24    2    5    5    0    0  0.60717799160E+00 -0.75838480866E+02 -0.18286479741E+01  0.11081481930E+03  0.80775840307E+02 0.  0.
          2    1    4    4  501    0 -0.51741729694E+02  0.21998306805E+02  0.40554314072E+02  0.69323765650E+02  0.00000000000E+00 0. -1.
         -1    1    4    4    0  501  0.24240689841E+02  0.94539740317E+02  0.87549356173E+01  0.97989909892E+02  0.00000000000E+00 0.  1.
          5    1    3    3  502    0  0.54738534952E+02  0.12120478037E+02  0.23237563720E+01  0.56308996086E+02  0.47000000000E+01 0. -1.
         13    1    6    6    0    0  0.20344393948E+02  0.77133633454E+01  0.10367603065E+02  0.24101401049E+02  0.00000000000E+00 0. -1.
        -14    1    6    6    0    0 -0.19737215957E+02 -0.83551844211E+02 -0.12196251039E+02  0.86713418248E+02  0.00000000000E+00 0.  1.
         -5    1    5    5    0  503 -0.27844673090E+02 -0.52820044293E+02 -0.13298021386E+03  0.14584618671E+03  0.47000000000E+01 0.  1.
<mgrwt>
<rscale>  2 0.21819970E+03</rscale>
<asrwt>0</asrwt>
<pdfrwt beam="1">  1       21 0.30546756E-01 0.21840660E+03</pdfrwt>
<pdfrwt beam="2">  1       21 0.43343041E-01 0.21840660E+03</pdfrwt>
<totfact> 0.52007441E+04</totfact>
</mgrwt>
</event>
<event>
12    1  0.1473662E-001  0.2307578E+03  0.7546771E-02  0.1126538E+00
         21   -1    0    0  504  503  0.00000000000E+00  0.00000000000E+00  0.72214704801E+03  0.72214704801E+03  0.00000000000E+00 0.  1.
         21   -1    0    0  502  504 -0.00000000000E+00 -0.00000000000E+00 -0.19271297059E+03  0.19271297059E+03  0.00000000000E+00 0.  1.
          6    2    1    2  502    0  0.14013187650E+03 -0.57962471570E+02 -0.95338589099E+02  0.24967704022E+03  0.17393270803E+03 0.  0.
         24    2    3    3    0    0  0.54572117022E+02 -0.81711463099E+02 -0.96948419149E+02  0.16074353364E+03  0.82368734807E+02 0.  0.
         -6    2    1    2    0  503 -0.14013187650E+03  0.57962471570E+02  0.62477266652E+03  0.66518297837E+03  0.17067782213E+03 0.  0.
        -24    2    5    5    0    0 -0.65813143771E+02  0.16964971323E+02  0.15428311500E+03  0.18707569214E+03  0.81085478788E+02 0.  0.
          4    1    4    4  501    0 -0.37617318124E+01 -0.13565317800E+02 -0.63444278585E+02  0.64987267664E+02  0.00000000000E+00 0. -1.
         -3    1    4    4    0  501  0.58333848835E+02 -0.68146145299E+02 -0.33504140565E+02  0.95756265977E+02  0.00000000000E+00 0.  1.
          5    1    3    3  502    0  0.85559759474E+02  0.23748991529E+02  0.16098300500E+01  0.88933506580E+02  0.47000000000E+01 0. -1.
         13    1    6    6    0    0 -0.53516951350E+02 -0.25414022810E+02  0.10763984678E+03  0.12286689241E+03  0.00000000000E+00 0. -1.
        -14    1    6    6    0    0 -0.12296192422E+02  0.42378994132E+02  0.46643268224E+02  0.64208799727E+02  0.00000000000E+00 0.  1.
         -5    1    5    5    0  503 -0.74318732725E+02  0.40997500247E+02  0.47048955152E+03  0.47810728623E+03  0.47000000000E+01 0.  1.
<mgrwt>
<rscale>  2 0.23014456E+03</rscale>
<asrwt>0</asrwt>
<pdfrwt beam="1">  1       21 0.11109954E+00 0.23075783E+03</pdfrwt>
<pdfrwt beam="2">  1       21 0.29648150E-01 0.23075783E+03</pdfrwt>
<totfact> 0.67637817E+03</totfact>
</mgrwt>
</event>
<event>
12    1  0.1473662E-001  0.1877031E+03  0.7546771E-02  0.1161897E+00
         21   -1    0    0  504  503  0.00000000000E+00  0.00000000000E+00  0.52473841561E+02  0.52473841561E+02  0.00000000000E+00 0.  1.
         21   -1    0    0  502  504 -0.00000000000E+00 -0.00000000000E+00 -0.72469087013E+03  0.72469087013E+03  0.00000000000E+00 0.  1.
          6    2    1    2  502    0 -0.31887593458E+02 -0.48483734128E+02 -0.46481829371E+03  0.50128683660E+03  0.17850757769E+03 0.  0.
         24    2    3    3    0    0 -0.75693216844E+02 -0.59548211445E+02 -0.41667885366E+03  0.43509883930E+03  0.80089202214E+02 0.  0.
         -6    2    1    2    0  503  0.31887593458E+02  0.48483734128E+02 -0.20739873486E+03  0.27587787508E+03  0.17241483593E+03 0.  0.
        -24    2    5    5    0    0 -0.33164764480E+02  0.48549803402E+02 -0.17630599844E+03  0.20362372713E+03  0.83197548949E+02 0.  0.
          2    1    4    4  501    0 -0.45639819622E+02 -0.59838640798E+02 -0.16170372522E+03  0.17835848961E+03  0.00000000000E+00 0. -1.
         -1    1    4    4    0  501 -0.30053397223E+02  0.29042935287E+00 -0.25497512845E+03  0.25674034969E+03  0.00000000000E+00 0.  1.
          5    1    3    3  502    0  0.43805623387E+02  0.11064477317E+02 -0.48139440047E+02  0.66187997300E+02  0.47000000000E+01 0. -1.
         11    1    6    6    0    0  0.52987353311E+01  0.53643979949E-01 -0.11947821104E+03  0.11959566207E+03  0.00000000000E+00 0. -1.
        -12    1    6    6    0    0 -0.38463499811E+02  0.48496159422E+02 -0.56827787405E+02  0.84028065060E+02  0.00000000000E+00 0.  1.
         -5    1    5    5    0  503  0.65052357938E+02 -0.66069274072E-01 -0.31092736415E+02  0.72254147951E+02  0.47000000000E+01 0.  1.
<mgrwt>
<rscale>  2 0.18623993E+03</rscale>
<asrwt>0</asrwt>
<pdfrwt beam="1">  1       21 0.80728987E-02 0.18770308E+03</pdfrwt>
<pdfrwt beam="2">  1       21 0.11149090E+00 0.18770308E+03</pdfrwt>
<totfact> 0.74839499E+04</totfact>
</mgrwt>
</event>
<event>
12    1  0.1473662E-001  0.1893040E+03  0.7546771E-02  0.1159115E+00
         21   -1    0    0  504  503  0.00000000000E+00  0.00000000000E+00  0.57657428134E+03  0.57657428134E+03  0.00000000000E+00 0. -1.
         21   -1    0    0  502  504 -0.00000000000E+00 -0.00000000000E+00 -0.71066438568E+02  0.71066438568E+02  0.00000000000E+00 0. -1.
          6    2    1    2  502    0  0.65758502905E+02  0.39666884647E+02  0.13778579427E+03  0.23405213276E+03  0.17290989938E+03 0.  0.
         24    2    3    3    0    0 -0.24925018904E+02  0.32933868639E+02  0.36441668341E+02  0.97811329426E+02  0.80827994542E+02 0.  0.
         -6    2    1    2    0  503 -0.65758502905E+02 -0.39666884647E+02  0.36772204850E+03  0.41358858715E+03  0.17302708466E+03 0.  0.
        -24    2    5    5    0    0 -0.66539926381E+01 -0.61154934502E+02  0.11520562061E+03  0.15331619950E+03  0.80307660752E+02 0.  0.
          4    1    4    4  501    0  0.18535124176E+02  0.47998899281E+01 -0.15380739081E+02  0.24559252966E+02  0.00000000000E+00 0. -1.
         -3    1    4    4    0  501 -0.43460143080E+02  0.28133978711E+02  0.51822407422E+02  0.73252076460E+02  0.00000000000E+00 0.  1.
          5    1    3    3  502    0  0.90683521809E+02  0.67330160077E+01  0.10134412593E+03  0.13624080333E+03  0.47000000000E+01 0. -1.
         11    1    6    6    0    0  0.21442750418E+01 -0.16435271421E+02  0.10540144957E+03  0.10669668051E+03  0.00000000000E+00 0. -1.
        -12    1    6    6    0    0 -0.87982676799E+01 -0.44719663080E+02  0.98041710451E+01  0.46619518982E+02  0.00000000000E+00 0.  1.
         -5    1    5    5    0  503 -0.59104510267E+02  0.21488049855E+02  0.25251642789E+03  0.26027238766E+03  0.47000000000E+01 0.  1.
<mgrwt>
<rscale>  2 0.18927725E+03</rscale>
<asrwt>0</asrwt>
<pdfrwt beam="1">  1       21 0.88703732E-01 0.18930403E+03</pdfrwt>
<pdfrwt beam="2">  1       21 0.10933299E-01 0.18930403E+03</pdfrwt>
<totfact> 0.75375168E+04</totfact>
</mgrwt>
</event>
<event>
12    1  0.1473662E-001  0.1974172E+03  0.7546771E-02  0.1152795E+00
         21   -1    0    0  504  503  0.00000000000E+00  0.00000000000E+00  0.43251948300E+03  0.43251948300E+03  0.00000000000E+00 0.  1.
         21   -1    0    0  502  504 -0.00000000000E+00 -0.00000000000E+00 -0.20058643226E+03  0.20058643226E+03  0.00000000000E+00 0. -1.
          6    2    1    2  502    0 -0.53037126041E+02  0.80290704322E+02 -0.12137722325E+03  0.22838168168E+03  0.16782797223E+03 0.  0.
         24    2    3    3    0    0 -0.89724414732E+02  0.88024791645E+02 -0.69845802427E+02  0.16448058161E+03  0.79853560137E+02 0.  0.
         -6    2    1    2    0  503  0.53037126041E+02 -0.80290704322E+02  0.35331027399E+03  0.40472423359E+03  0.17237755539E+03 0.  0.
        -24    2    5    5    0    0  0.10122744464E+03 -0.70492166848E+02  0.25312062757E+03  0.29301759370E+03  0.81074761679E+02 0.  0.
          2    1    4    4  501    0 -0.30055131917E+02  0.73728943915E+02 -0.12686950602E+02  0.80623984278E+02  0.00000000000E+00 0. -1.
         -1    1    4    4    0  501 -0.59669282815E+02  0.14295847731E+02 -0.57158851825E+02  0.83856597331E+02  0.00000000000E+00 0.  1.
          5    1    3    3  502    0  0.36687288691E+02 -0.77340873232E+01 -0.51531420824E+02  0.63901100072E+02  0.47000000000E+01 0. -1.
         13    1    6    6    0    0  0.55444341526E+02 -0.83183304930E+02  0.17734339935E+03  0.20357853158E+03  0.00000000000E+00 0. -1.
        -14    1    6    6    0    0  0.45783103118E+02  0.12691138082E+02  0.75777228222E+02  0.89439062126E+02  0.00000000000E+00 0.  1.
         -5    1    5    5    0  503 -0.48190318603E+02 -0.97985374738E+01  0.10018964642E+03  0.11170663988E+03  0.47000000000E+01 0.  1.
<mgrwt>
<rscale>  2 0.19641972E+03</rscale>
<asrwt>0</asrwt>
<pdfrwt beam="1">  1       21 0.66541459E-01 0.19741721E+03</pdfrwt>
<pdfrwt beam="2">  1       21 0.30859451E-01 0.19741721E+03</pdfrwt>
<totfact> 0.20824525E+04</totfact>
</mgrwt>
</event>
<event>
12    1  0.1473662E-001  0.1825140E+03  0.7546771E-02  0.1166832E+00
         21   -1    0    0  504  503  0.00000000000E+00  0.00000000000E+00  0.58499402818E+03  0.58499402818E+03  0.00000000000E+00 0.  1.
         21   -1    0    0  502  504 -0.00000000000E+00 -0.00000000000E+00 -0.56400807800E+02  0.56400807800E+02  0.00000000000E+00 0.  1.
          6    2    1    2  502    0 -0.50902062404E+02  0.23852733024E+02  0.21990018062E+03  0.28577514423E+03  0.17364150079E+03 0.  0.
         24    2    3    3    0    0 -0.72016648804E+02 -0.47280947770E+01  0.66430645049E+02  0.12817540494E+03  0.82505461914E+02 0.  0.
         -6    2    1    2    0  503  0.50902062404E+02 -0.23852733024E+02  0.30869303977E+03  0.35561969175E+03  0.16737383168E+03 0.  0.
        -24    2    5    5    0    0  0.28634039264E+02  0.46449251980E+02  0.21530483403E+03  0.23653282883E+03  0.81327525123E+02 0.  0.
          4    1    4    4  501    0 -0.34230729188E+02  0.34076085994E+02  0.54296385912E+02  0.72670626669E+02  0.00000000000E+00 0. -1.
         -3    1    4    4    0  501 -0.37785919616E+02 -0.38804180771E+02  0.12134259138E+02  0.55504778275E+02  0.00000000000E+00 0.  1.
          5    1    3    3  502    0  0.21114586400E+02  0.28580827801E+02  0.15346953557E+03  0.15759973929E+03  0.47000000000E+01 0. -1.
         13    1    6    6    0    0  0.22570276894E+02 -0.16377488770E+02  0.11244233004E+03  0.11584868200E+03  0.00000000000E+00 0. -1.
        -14    1    6    6    0    0  0.60637623696E+01  0.62826740750E+02  0.10286250399E+03  0.12068414683E+03  0.00000000000E+00 0.  1.
         -5    1    5    5    0  503  0.22268023140E+02 -0.70301985004E+02  0.93388205737E+02  0.11908686292E+03  0.47000000000E+01 0.  1.
<mgrwt>
<rscale>  2 0.18100729E+03</rscale>
<asrwt>0</asrwt>
<pdfrwt beam="1">  1       21 0.89999077E-01 0.18251395E+03</pdfrwt>
<pdfrwt beam="2">  1       21 0.86770478E-02 0.18251395E+03</pdfrwt>
<totfact> 0.10984285E+05</totfact>
</mgrwt>
</event>
<event>
12    1  0.1473662E-001  0.2126821E+03  0.7546771E-02  0.1140601E+00
         21   -1    0    0  504  503  0.00000000000E+00  0.00000000000E+00  0.46178187806E+03  0.46178187806E+03  0.00000000000E+00 0.  1.
         21   -1    0    0  502  504 -0.00000000000E+00 -0.00000000000E+00 -0.95335273588E+02  0.95335273588E+02  0.00000000000E+00 0.  1.
          6    2    1    2  502    0  0.11339989990E+03  0.22047585892E+01  0.18506431447E+03  0.27759397619E+03  0.17304686321E+03 0.  0.
         24    2    3    3    0    0  0.95309068398E+02 -0.62544361964E+02  0.12773121981E+03  0.18911290171E+03  0.80329380348E+02 0.  0.
         -6    2    1    2    0  503 -0.11339989990E+03 -0.22047585892E+01  0.18138229000E+03  0.27952317546E+03  0.17991462485E+03 0.  0.
        -24    2    5    5    0    0 -0.27868842825E+02 -0.50610458465E+02  0.14286473053E+03  0.17386161248E+03  0.80494957330E+02 0.  0.
          4    1    4    4  501    0  0.23708540390E+02 -0.58162302673E+02  0.35092801749E+02  0.71947571705E+02  0.00000000000E+00 0. -1.
         -3    1    4    4    0  501  0.71600528008E+02 -0.43820592914E+01  0.92638418062E+02  0.11716533001E+03  0.00000000000E+00 0.  1.
          5    1    3    3  502    0  0.18090831502E+02  0.64749120553E+02  0.57333094659E+02  0.88481074474E+02  0.47000000000E+01 0. -1.
         11    1    6    6    0    0 -0.32933416015E+02 -0.62685180067E+02  0.69082055867E+02  0.98926094299E+02  0.00000000000E+00 0. -1.
        -12    1    6    6    0    0  0.50645731901E+01  0.12074721602E+02  0.73782674668E+02  0.74935518178E+02  0.00000000000E+00 0.  1.
         -5    1    5    5    0  503 -0.85531057075E+02  0.48405699876E+02  0.38517559464E+02  0.10566156298E+03  0.47000000000E+01 0.  1.
<mgrwt>
<rscale>  2 0.21122283E+03</rscale>
<asrwt>0</asrwt>
<pdfrwt beam="1">  1       21 0.71043364E-01 0.21268209E+03</pdfrwt>
<pdfrwt beam="2">  1       21 0.14666965E-01 0.21268209E+03</pdfrwt>
<totfact> 0.72633507E+04</totfact>
</mgrwt>
</event>
<event>
12    1  0.1473662E-001  0.1864138E+03  0.7546771E-02  0.1161785E+00
         21   -1    0    0  504  503  0.00000000000E+00  0.00000000000E+00  0.26379972354E+02  0.26379972354E+02  0.00000000000E+00 0.  1.
         21   -1    0    0  502  504 -0.00000000000E+00 -0.00000000000E+00 -0.13425677953E+04  0.13425677953E+04  0.00000000000E+00 0. -1.
          6    2    1    2  502    0 -0.66925143430E+02 -0.11538522438E+02 -0.75435359356E+03  0.77699522766E+03  0.17337856665E+03 0.  0.
         24    2    3    3    0    0 -0.72882419529E+02  0.25536240413E+02 -0.70888109648E+03  0.71783556937E+03  0.82532109212E+02 0.  0.
         -6    2    1    2    0  503  0.66925143430E+02  0.11538522438E+02 -0.56183422941E+03  0.59195254002E+03  0.17360298376E+03 0.  0.
        -24    2    5    5    0    0  0.94619988000E+01  0.44284018161E+02 -0.46408104705E+03  0.47383372211E+03  0.84241167465E+02 0.  0.
          2    1    4    4  501    0 -0.28443926487E+02 -0.71015305918E+01 -0.52618074385E+03  0.52699683480E+03  0.00000000000E+00 0. -1.
         -1    1    4    4    0  501 -0.44438493042E+02  0.32637771005E+02 -0.18270035263E+03  0.19083873457E+03  0.00000000000E+00 0.  1.
          5    1    3    3  502    0  0.59572760990E+01 -0.37074762851E+02 -0.45472497075E+02  0.59159658292E+02  0.47000000000E+01 0. -1.
         13    1    6    6    0    0 -0.33563544483E+02  0.17320382637E+01 -0.20816348791E+03  0.21085907421E+03  0.00000000000E+00 0. -1.
        -14    1    6    6    0    0  0.43025543283E+02  0.42551979897E+02 -0.25591755913E+03  0.26297464790E+03  0.00000000000E+00 0.  1.
         -5    1    5    5    0  503  0.57463144630E+02 -0.32745495723E+02 -0.97753182365E+02  0.11811881791E+03  0.47000000000E+01 0.  1.
<mgrwt>
<rscale>  2 0.18636154E+03</rscale>
<asrwt>0</asrwt>
<pdfrwt beam="1">  1       21 0.40584566E-02 0.18641381E+03</pdfrwt>
<pdfrwt beam="2">  1       21 0.20654893E+00 0.18641381E+03</pdfrwt>
<totfact> 0.46847362E+04</totfact>
</mgrwt>
</event>
<event>
12    1  0.1473662E-001  0.2069019E+03  0.7546771E-02  0.1144119E+00
         21   -1    0    0  504  503  0.00000000000E+00  0.00000000000E+00  0.24181690111E+03  0.24181690111E+03  0.00000000000E+00 0.  1.
         21   -1    0    0  502  504 -0.00000000000E+00 -0.00000000000E+00 -0.17695155353E+03  0.17695155353E+03  0.00000000000E+00 0.  1.
          6    2    1    2  502    0 -0.96597884176E+02  0.56835038374E+02  0.24686269080E+02  0.20836939119E+03  0.17391669986E+03 0.  0.
         24    2    3    3    0    0  0.95761814056E+01  0.38418424362E+01  0.36909073117E+02  0.88984727364E+02  0.80309022047E+02 0.  0.
         -6    2    1    2    0  503  0.96597884176E+02 -0.56835038374E+02  0.40179078502E+02  0.21039906346E+03  0.17347055871E+03 0.  0.
        -24    2    5    5    0    0  0.10069864268E+03  0.17341008380E+02  0.44363578986E+02  0.13584370029E+03  0.77746103184E+02 0.  0.
          2    1    4    4  501    0  0.29690309621E+02  0.27853357897E+02  0.40539082364E+02  0.57452077686E+02  0.00000000000E+00 0. -1.
         -1    1    4    4    0  501 -0.20114128215E+02 -0.24011515461E+02 -0.36300092464E+01  0.31532649678E+02  0.00000000000E+00 0.  1.
          5    1    3    3  502    0 -0.10617406558E+03  0.52993195938E+02 -0.12222804037E+02  0.11938466382E+03  0.47000000000E+01 0. -1.
         11    1    6    6    0    0  0.10502695188E+02  0.21650536212E+02  0.38440095169E+02  0.45350779939E+02  0.00000000000E+00 0. -1.
        -12    1    6    6    0    0  0.90195947490E+02 -0.43095278317E+01  0.59234838166E+01  0.90492920355E+02  0.00000000000E+00 0.  1.
         -5    1    5    5    0  503 -0.41007585018E+01 -0.74176046754E+02 -0.41845004835E+01  0.74555363165E+02  0.47000000000E+01 0.  1.
<mgrwt>
<rscale>  2 0.20680811E+03</rscale>
<asrwt>0</asrwt>
<pdfrwt beam="1">  1       21 0.37202600E-01 0.20690189E+03</pdfrwt>
<pdfrwt beam="2">  1       21 0.27223316E-01 0.20690189E+03</pdfrwt>
<totfact> 0.89109723E+04</totfact>
</mgrwt>
</event>
<event>
12    1  0.1473662E-001  0.1926088E+03  0.7546771E-02  0.1156180E+00
         21   -1    0    0  504  503  0.00000000000E+00  0.00000000000E+00  0.20716551846E+04  0.20716551846E+04  0.00000000000E+00 0.  1.
         21   -1    0    0  502  504 -0.00000000000E+00 -0.00000000000E+00 -0.18687072737E+02  0.18687072737E+02  0.00000000000E+00 0.  1.
          6    2    1    2  502    0 -0.74509423863E+02 -0.37880951850E+02  0.81070201608E+03  0.83326820778E+03  0.17352673126E+03 0.  0.
         24    2    3    3    0    0 -0.88515775062E+02 -0.57035041513E+02  0.79050115385E+03  0.80175278521E+03  0.82628178976E+02 0.  0.
         -6    2    1    2    0  503  0.74509423863E+02  0.37880951850E+02  0.12422660958E+04  0.12570740496E+04  0.17327288472E+03 0.  0.
        -24    2    5    5    0    0  0.10507473559E+02  0.81201999358E+02  0.73503562138E+03  0.74396801085E+03  0.80665139699E+02 0.  0.
          2    1    4    4  501    0 -0.78657109571E+02 -0.76591445341E+02  0.59647718616E+03  0.60649668094E+03  0.00000000000E+00 0. -1.
         -1    1    4    4    0  501 -0.98586654914E+01  0.19556403828E+02  0.19402396769E+03  0.19525610427E+03  0.00000000000E+00 0.  1.
          5    1    3    3  502    0  0.14006351200E+02  0.19154089663E+02  0.20200862227E+02  0.31515422565E+02  0.47000000000E+01 0. -1.
         11    1    6    6    0    0  0.44898973088E+02  0.41214094798E+02  0.44802721693E+03  0.45215363153E+03  0.00000000000E+00 0. -1.
        -12    1    6    6    0    0 -0.34391499529E+02  0.39987904560E+02  0.28700840446E+03  0.29181437932E+03  0.00000000000E+00 0.  1.
         -5    1    5    5    0  503  0.64001950304E+02 -0.43321047507E+02  0.50723047440E+03  0.51310603871E+03  0.47000000000E+01 0.  1.
<mgrwt>
<rscale>  2 0.19255160E+03</rscale>
<asrwt>0</asrwt>
<pdfrwt beam="1">  1       21 0.31871600E+00 0.19260879E+03</pdfrwt>
<pdfrwt beam="2">  1       21 0.28749359E-02 0.19260879E+03</pdfrwt>
<totfact> 0.18075308E+04</totfact>
</mgrwt>
</event>
<event>
12    1  0.1473662E-001  0.1854348E+03  0.7546771E-02  0.1162715E+00
         21   -1    0    0  504  503  0.00000000000E+00  0.00000000000E+00  0.54103115101E+03  0.54103115101E+03  0.00000000000E+00 0.  1.
         21   -1    0    0  502  504 -0.00000000000E+00 -0.00000000000E+00 -0.14969533405E+03  0.14969533405E+03  0.00000000000E+00 0.  1.
          6    2    1    2  502    0 -0.61433162730E+02  0.45412213690E+02 -0.66540108133E+02  0.19672605336E+03  0.16863348258E+03 0.  0.
         24    2    3    3    0    0 -0.62278157269E+02  0.27486914774E+02 -0.10843383156E+03  0.15090897773E+03  0.79884443888E+02 0.  0.
         -6    2    1    2    0  503  0.61433162730E+02 -0.45412213690E+02  0.45787592509E+03  0.49400043170E+03  0.16896674555E+03 0.  0.
        -24    2    5    5    0    0 -0.66018855827E+01 -0.41729227783E+02  0.37868928733E+03  0.38943014058E+03  0.80407367250E+02 0.  0.
          4    1    4    4  501    0  0.11370399864E+02 -0.92840582179E+01 -0.43964397490E+02  0.46350274829E+02  0.00000000000E+00 0. -1.
         -3    1    4    4    0  501 -0.73648557133E+02  0.36770972991E+02 -0.64469434071E+02  0.10455870290E+03  0.00000000000E+00 0.  1.
          5    1    3    3  502    0  0.84499453922E+00  0.17925298916E+02  0.41893723428E+02  0.45817075634E+02  0.47000000000E+01 0. -1.
         13    1    6    6    0    0 -0.14219814835E+02 -0.45586338661E+01  0.82644533864E+01  0.17067087228E+02  0.00000000000E+00 0. -1.
        -14    1    6    6    0    0  0.76179292528E+01 -0.37170593917E+02  0.37042483395E+03  0.37236305336E+03  0.00000000000E+00 0.  1.
         -5    1    5    5    0  503  0.68035048312E+02 -0.36829859065E+01  0.79186637757E+02  0.10457029111E+03  0.47000000000E+01 0.  1.
<mgrwt>
<rscale>  2 0.18535885E+03</rscale>
<asrwt>0</asrwt>
<pdfrwt beam="1">  1       21 0.83235561E-01 0.18543480E+03</pdfrwt>
<pdfrwt beam="2">  1       21 0.23030052E-01 0.18543480E+03</pdfrwt>
<totfact> 0.22349913E+04</totfact>
</mgrwt>
</event>
<event>
12    1  0.1473662E-001  0.3064739E+03  0.7546771E-02  0.1082072E+00
         21   -1    0    0  504  503  0.00000000000E+00  0.00000000000E+00  0.14296278130E+03  0.14296278130E+03  0.00000000000E+00 0. -1.
         21   -1    0    0  502  504 -0.00000000000E+00 -0.00000000000E+00 -0.66285014416E+03  0.66285014416E+03  0.00000000000E+00 0. -1.
          6    2    1    2  502    0  0.56531350076E+02 -0.24637463639E+03 -0.29917967016E+03  0.42829283814E+03  0.17329173427E+03 0.  0.
         24    2    3    3    0    0  0.74480451298E+02 -0.25965909304E+03 -0.26025912025E+03  0.38317581000E+03  0.78222180157E+02 0.  0.
         -6    2    1    2    0  503 -0.56531350076E+02  0.24637463639E+03 -0.22070769270E+03  0.37752008732E+03  0.17295454812E+03 0.  0.
        -24    2    5    5    0    0 -0.50119968615E+01  0.76712080984E+02 -0.15024383260E+03  0.18666183614E+03  0.79746901861E+02 0.  0.
          4    1    4    4  501    0  0.84366932014E+02 -0.16055984598E+03 -0.17582330814E+03  0.25260854903E+03  0.00000000000E+00 0. -1.
         -3    1    4    4    0  501 -0.98864807159E+01 -0.99099247063E+02 -0.84435812109E+02  0.13056726096E+03  0.00000000000E+00 0.  1.
          5    1    3    3  502    0 -0.17949101223E+02  0.13284456651E+02 -0.38920549906E+02  0.45117028140E+02  0.47000000000E+01 0. -1.
         11    1    6    6    0    0  0.23942487808E+02  0.73054112546E+02 -0.81802008531E+02  0.11225735914E+03  0.00000000000E+00 0. -1.
        -12    1    6    6    0    0 -0.28954484670E+02  0.36579684375E+01 -0.68441824066E+02  0.74404476996E+02  0.00000000000E+00 0.  1.
         -5    1    5    5    0  503 -0.51519353214E+02  0.16966255540E+03 -0.70463860101E+02  0.19085825118E+03  0.47000000000E+01 0.  1.
<mgrwt>
<rscale>  2 0.30642630E+03</rscale>
<asrwt>0</asrwt>
<pdfrwt beam="1">  1       21 0.21994274E-01 0.30647395E+03</pdfrwt>
<pdfrwt beam="2">  1       21 0.10197695E+00 0.30647395E+03</pdfrwt>
<totfact> 0.14235425E+04</totfact>
</mgrwt>
</event>
<event>
12    1  0.1473662E-001  0.2154361E+03  0.7546771E-02  0.1137340E+00
         21   -1    0    0  504  503  0.00000000000E+00  0.00000000000E+00  0.22495824021E+04  0.22495824021E+04  0.00000000000E+00 0. -1.
         21   -1    0    0  502  504 -0.00000000000E+00 -0.00000000000E+00 -0.57700749258E+02  0.57700749258E+02  0.00000000000E+00 0.  1.
          6    2    1    2  502    0 -0.97316373441E+02 -0.83819116644E+02  0.17126106828E+03  0.27521461282E+03  0.17296418342E+03 0.  0.
         24    2    3    3    0    0 -0.25071028933E+02 -0.49074619937E+02  0.13478410338E+02  0.98172168750E+02  0.80120112070E+02 0.  0.
         -6    2    1    2    0  503  0.97316373441E+02  0.83819116644E+02  0.20206205845E+04  0.20320685385E+04  0.17291291945E+03 0.  0.
        -24    2    5    5    0    0  0.35346118827E+02 -0.21652928494E+02  0.72643111172E+03  0.73210194421E+03  0.80949979682E+02 0.  0.
          2    1    4    4  501    0  0.15293584354E+02 -0.53579046606E+02  0.14388434571E+02  0.57546807096E+02  0.00000000000E+00 0. -1.
         -1    1    4    4    0  501 -0.40364613287E+02  0.45044266688E+01 -0.91002423310E+00  0.40625361654E+02  0.00000000000E+00 0.  1.
          5    1    3    3  502    0 -0.72245344508E+02 -0.34744496707E+02  0.15778265794E+03  0.17704244407E+03  0.47000000000E+01 0. -1.
         11    1    6    6    0    0  0.33829186176E+02  0.79692927884E+01  0.63562173379E+03  0.63657121513E+03  0.00000000000E+00 0. -1.
        -12    1    6    6    0    0  0.15169326504E+01 -0.29622221282E+02  0.90809377930E+02  0.95530729079E+02  0.00000000000E+00 0.  1.
         -5    1    5    5    0  503  0.61970254614E+02  0.10547204514E+03  0.12941894728E+04  0.12999665943E+04  0.47000000000E+01 0.  1.
<mgrwt>
<rscale>  2 0.21542585E+03</rscale>
<asrwt>0</asrwt>
<pdfrwt beam="1">  1       21 0.34608953E+00 0.21543614E+03</pdfrwt>
<pdfrwt beam="2">  1       21 0.88770401E-02 0.21543614E+03</pdfrwt>
<totfact> 0.17908229E+03</totfact>
</mgrwt>
</event>
<event>
12    1  0.1473662E-001  0.2249183E+03  0.7546771E-02  0.1130538E+00
         21   -1    0    0  504  503  0.00000000000E+00  0.00000000000E+00  0.16667068103E+03  0.16667068103E+03  0.00000000000E+00 0. -1.
         21   -1    0    0  502  504 -0.00000000000E+00 -0.00000000000E+00 -0.58291262690E+03  0.58291262690E+03  0.00000000000E+00 0.  1.
          6    2    1    2  502    0  0.14167053278E+03  0.91593869181E+01 -0.46887560305E+03  0.52003133559E+03  0.17445292957E+03 0.  0.
         24    2    3    3    0    0  0.77626786181E+01 -0.10580275116E+02 -0.16385197225E+03  0.18629120763E+03  0.87662670676E+02 0.  0.
         -6    2    1    2    0  503 -0.14167053278E+03 -0.91593869181E+01  0.52633657178E+02  0.22955197233E+03  0.17253803032E+03 0.  0.
        -24    2    5    5    0    0 -0.14340541310E+02 -0.81712785320E+01 -0.84085760721E+01  0.88264508886E+02  0.86298890256E+02 0.  0.
          4    1    4    4  501    0 -0.26477902718E+01 -0.42470355408E+02 -0.41557376254E+02  0.59479050118E+02  0.00000000000E+00 0. -1.
         -3    1    4    4    0  501  0.10410468890E+02  0.31890080292E+02 -0.12229459600E+03  0.12681215752E+03  0.00000000000E+00 0.  1.
          5    1    3    3  502    0  0.13390785416E+03  0.19739662034E+02 -0.30502363080E+03  0.33374012796E+03  0.47000000000E+01 0. -1.
         13    1    6    6    0    0 -0.44959346502E+02  0.16193015239E+02  0.18160001733E+01  0.47821066875E+02  0.00000000000E+00 0. -1.
        -14    1    6    6    0    0  0.30618805191E+02 -0.24364293771E+02 -0.10224576245E+02  0.40443442011E+02  0.00000000000E+00 0.  1.
         -5    1    5    5    0  503 -0.12732999147E+03 -0.98810838614E+00  0.61042233250E+02  0.14128746344E+03  0.47000000000E+01 0.  1.
<mgrwt>
<rscale>  2 0.22454692E+03</rscale>
<asrwt>0</asrwt>
<pdfrwt beam="1">  1       21 0.25641642E-01 0.22491834E+03</pdfrwt>
<pdfrwt beam="2">  1       21 0.89678869E-01 0.22491834E+03</pdfrwt>
<totfact> 0.14982312E+04</totfact>
</mgrwt>
</event>
<event>
12    1  0.1473662E-001  0.2040420E+03  0.7546771E-02  0.1146420E+00
         21   -1    0    0  504  503  0.00000000000E+00  0.00000000000E+00  0.13210531062E+03  0.13210531062E+03  0.00000000000E+00 0. -1.
         21   -1    0    0  502  504 -0.00000000000E+00 -0.00000000000E+00 -0.60239318010E+03  0.60239318010E+03  0.00000000000E+00 0. -1.
          6    2    1    2  502    0 -0.94817291563E+02  0.51672830861E+02 -0.48896731034E+03  0.52983219449E+03  0.17312632241E+03 0.  0.
         24    2    3    3    0    0  0.22608584251E+01 -0.20698353189E+02 -0.16702367676E+03  0.18583866449E+03  0.78775423276E+02 0.  0.
         -6    2    1    2    0  503  0.94817291563E+02 -0.51672830861E+02  0.18679440863E+02  0.20466629623E+03  0.17285534725E+03 0.  0.
        -24    2    5    5    0    0  0.10760123495E+03 -0.21910109502E+02  0.61723879189E+02  0.15059077069E+03  0.82520690102E+02 0.  0.
          2    1    4    4  501    0 -0.17584936054E+02 -0.40511328728E+02 -0.14035627085E+03  0.14714034286E+03  0.00000000000E+00 0. -1.
         -1    1    4    4    0  501  0.19845794479E+02  0.19812975539E+02 -0.26667405919E+02  0.38698321626E+02  0.00000000000E+00 0.  1.
          5    1    3    3  502    0 -0.97078149988E+02  0.72371184050E+02 -0.32194363357E+03  0.34399353000E+03  0.47000000000E+01 0. -1.
         11    1    6    6    0    0  0.86814106560E+02 -0.50625676888E+02  0.54814455919E+02  0.11447389587E+03  0.00000000000E+00 0. -1.
        -12    1    6    6    0    0  0.20787128388E+02  0.28715567387E+02  0.69094232703E+01  0.36116874821E+02  0.00000000000E+00 0.  1.
         -5    1    5    5    0  503 -0.12783943384E+02 -0.29762721359E+02 -0.43044438326E+02  0.54075525536E+02  0.47000000000E+01 0.  1.
<mgrwt>
<rscale>  2 0.20398447E+03</rscale>
<asrwt>0</asrwt>
<pdfrwt beam="1">  1       21 0.20323894E-01 0.20404197E+03</pdfrwt>
<pdfrwt beam="2">  1       21 0.92675872E-01 0.20404197E+03</pdfrwt>
<totfact> 0.21834762E+04</totfact>
</mgrwt>
</event>
<event>
12    1  0.1473662E-001  0.3479279E+03  0.7546771E-02  0.1063521E+00
         21   -1    0    0  504  503  0.00000000000E+00  0.00000000000E+00  0.38922006059E+03  0.38922006059E+03  0.00000000000E+00 0.  1.
         21   -1    0    0  502  504 -0.00000000000E+00 -0.00000000000E+00 -0.46315955113E+03  0.46315955113E+03  0.00000000000E+00 0. -1.
          6    2    1    2  502    0  0.30136687971E+03 -0.36599720378E+01 -0.28158305248E+03  0.44720101285E+03  0.17281301707E+03 0.  0.
         24    2    3    3    0    0  0.27977311423E+03  0.29655978244E+02 -0.28315008038E+03  0.40719115372E+03  0.80487236011E+02 0.  0.
         -6    2    1    2    0  503 -0.30136687971E+03  0.36599720378E+01  0.20764356194E+03  0.40517859887E+03  0.17383456670E+03 0.  0.
        -24    2    5    5    0    0 -0.31376830833E+03 -0.49069402916E+00  0.17167284249E+03  0.36661688056E+03  0.80533099847E+02 0.  0.
          2    1    4    4  501    0  0.11731051977E+03  0.97697810069E+01 -0.65012962871E+02  0.13447636228E+03  0.00000000000E+00 0. -1.
         -1    1    4    4    0  501  0.16246259445E+03  0.19886197237E+02 -0.21813711751E+03  0.27271479145E+03  0.00000000000E+00 0.  1.
          5    1    3    3  502    0  0.21593765489E+02 -0.33315950282E+02  0.15670279000E+01  0.40009859130E+02  0.47000000000E+01 0. -1.
         11    1    6    6    0    0 -0.26008621679E+02  0.20139439932E+02  0.32730935134E+02  0.46404305374E+02  0.00000000000E+00 0. -1.
        -12    1    6    6    0    0 -0.28775968665E+03 -0.20630133962E+02  0.13894190735E+03  0.32021257519E+03  0.00000000000E+00 0.  1.
         -5    1    5    5    0  503  0.12401428619E+02  0.41506660669E+01  0.35970719454E+02  0.38561718305E+02  0.47000000000E+01 0.  1.
<mgrwt>
<rscale>  2 0.34780055E+03</rscale>
<asrwt>0</asrwt>
<pdfrwt beam="1">  1       21 0.59880010E-01 0.34792794E+03</pdfrwt>
<pdfrwt beam="2">  1       21 0.71255315E-01 0.34792794E+03</pdfrwt>
<totfact> 0.42263521E+03</totfact>
</mgrwt>
</event>
<event>
12    1  0.1473662E-001  0.1831849E+03  0.7546771E-02  0.1165347E+00
         21   -1    0    0  504  503  0.00000000000E+00  0.00000000000E+00  0.25252629072E+03  0.25252629072E+03  0.00000000000E+00 0.  1.
         21   -1    0    0  502  504 -0.00000000000E+00 -0.00000000000E+00 -0.14908405204E+03  0.14908405204E+03  0.00000000000E+00 0.  1.
          6    2    1    2  502    0 -0.27905288016E+01 -0.55464697956E+02 -0.17728052328E+02  0.18404077685E+03  0.17456403964E+03 0.  0.
         24    2    3    3    0    0 -0.38670416998E+02 -0.57957926573E+02 -0.65807395193E+02  0.12381374159E+03  0.78388181135E+02 0.  0.
         -6    2    1    2    0  503  0.27905288016E+01  0.55464697956E+02  0.12117029100E+03  0.21756956591E+03  0.17195975348E+03 0.  0.
        -24    2    5    5    0    0  0.35491773306E+02  0.63269954021E+02  0.21346219503E+02  0.11213129646E+03  0.82795008931E+02 0.  0.
          2    1    4    4  501    0 -0.53729631478E+02 -0.10152538222E+02 -0.31985185096E+02  0.63348239098E+02  0.00000000000E+00 0. -1.
         -1    1    4    4    0  501  0.15059214480E+02 -0.47805388351E+02 -0.33822210097E+02  0.60465502495E+02  0.00000000000E+00 0.  1.
          5    1    3    3  502    0  0.35879888197E+02  0.24932286172E+01  0.48079342866E+02  0.60227035261E+02  0.47000000000E+01 0. -1.
         13    1    6    6    0    0  0.13947641088E+02  0.31730714814E+02  0.52453879380E+02  0.62871173176E+02  0.00000000000E+00 0. -1.
        -14    1    6    6    0    0  0.21544132218E+02  0.31539239207E+02 -0.31107659876E+02  0.49260123282E+02  0.00000000000E+00 0.  1.
         -5    1    5    5    0  503 -0.32701244504E+02 -0.78052560655E+01  0.99824071499E+02  0.10543826945E+03  0.47000000000E+01 0.  1.
<mgrwt>
<rscale>  2 0.18256177E+03</rscale>
<asrwt>0</asrwt>
<pdfrwt beam="1">  1       21 0.38850198E-01 0.18318494E+03</pdfrwt>
<pdfrwt beam="2">  1       21 0.22936008E-01 0.18318494E+03</pdfrwt>
<totfact> 0.11436758E+05</totfact>
</mgrwt>
</event>
<event>
12    1  0.1473662E-001  0.2498049E+03  0.7546771E-02  0.1113545E+00
         21   -1    0    0  504  503  0.00000000000E+00  0.00000000000E+00  0.28127178566E+03  0.28127178566E+03  0.00000000000E+00 0. -1.
         21   -1    0    0  502  504 -0.00000000000E+00 -0.00000000000E+00 -0.24451313238E+03  0.24451313238E+03  0.00000000000E+00 0. -1.
          6    2    1    2  502    0 -0.35199769826E+01 -0.17988140626E+03 -0.62814470815E+02  0.25686612837E+03  0.17223483853E+03 0.  0.
         24    2    3    3    0    0 -0.39052422812E+02 -0.12787221524E+03 -0.98094046662E+02  0.18451801761E+03  0.80920094391E+02 0.  0.
         -6    2    1    2    0  503  0.35199769826E+01  0.17988140626E+03  0.99573124100E+02  0.26891878967E+03  0.17329973410E+03 0.  0.
        -24    2    5    5    0    0 -0.44996998983E+00  0.21302063866E+02  0.69558107021E+02  0.10740668621E+03  0.79018261134E+02 0.  0.
          4    1    4    4  501    0 -0.12678238513E+02 -0.12040827973E+03 -0.53935361801E+02  0.13254401085E+03  0.00000000000E+00 0. -1.
         -3    1    4    4    0  501 -0.26374184299E+02 -0.74639355105E+01 -0.44158684861E+02  0.51974006767E+02  0.00000000000E+00 0.  1.
          5    1    3    3  502    0  0.35532445830E+02 -0.52009191022E+02  0.35279575848E+02  0.72348110752E+02  0.47000000000E+01 0. -1.
         11    1    6    6    0    0 -0.16412271144E+02  0.38405258002E+02  0.72659065570E+02  0.83807316481E+02  0.00000000000E+00 0. -1.
        -12    1    6    6    0    0  0.15962301154E+02 -0.17103194136E+02 -0.31009585485E+01  0.23599369731E+02  0.00000000000E+00 0.  1.
         -5    1    5    5    0  503  0.39699469725E+01  0.15857934240E+03  0.30015017078E+02  0.16151210346E+03  0.47000000000E+01 0.  1.
<mgrwt>
<rscale>  2 0.24962034E+03</rscale>
<asrwt>0</asrwt>
<pdfrwt beam="1">  1       21 0.43272583E-01 0.24980494E+03</pdfrwt>
<pdfrwt beam="2">  1       21 0.37617405E-01 0.24980494E+03</pdfrwt>
<totfact> 0.34032910E+04</totfact>
</mgrwt>
</event>
<event>
12    1  0.1473662E-001  0.2020132E+03  0.7546771E-02  0.1148057E+00
         21   -1    0    0  504  503  0.00000000000E+00  0.00000000000E+00  0.55834859876E+03  0.55834859876E+03  0.00000000000E+00 0.  1.
         21   -1    0    0  502  504 -0.00000000000E+00 -0.00000000000E+00 -0.94737065211E+02  0.94737065211E+02  0.00000000000E+00 0.  1.
          6    2    1    2  502    0  0.53191054504E+02 -0.90037721644E+02  0.38792218505E+03  0.43735854144E+03  0.17280854296E+03 0.  0.
         24    2    3    3    0    0  0.99372110256E+02 -0.78025294685E+02  0.32844525682E+03  0.36096100678E+03  0.80335538684E+02 0.  0.
         -6    2    1    2    0  503 -0.53191054504E+02  0.90037721644E+02  0.75689348500E+02  0.21572712253E+03  0.17283875237E+03 0.  0.
        -24    2    5    5    0    0 -0.64855394797E+02  0.11224474116E+03  0.98478905542E+02  0.18151217754E+03  0.80271237718E+02 0.  0.
          4    1    4    4  501    0  0.11810436083E+02 -0.56669619008E+02  0.15579268552E+03  0.16619955770E+03  0.00000000000E+00 0. -1.
         -3    1    4    4    0  501  0.87561674173E+02 -0.21355675677E+02  0.17265257131E+03  0.19476144908E+03  0.00000000000E+00 0.  1.
          5    1    3    3  502    0 -0.46181055752E+02 -0.12012426959E+02  0.59476928223E+02  0.76397534664E+02  0.47000000000E+01 0. -1.
         11    1    6    6    0    0 -0.35172753608E+02  0.49296167900E+02  0.93941350816E+02  0.11176856517E+03  0.00000000000E+00 0. -1.
        -12    1    6    6    0    0 -0.29682641190E+02  0.62948573264E+02  0.45375547259E+01  0.69743612374E+02  0.00000000000E+00 0.  1.
         -5    1    5    5    0  503  0.11664340293E+02 -0.22207019521E+02 -0.22789557042E+02  0.34214944990E+02  0.47000000000E+01 0.  1.
<mgrwt>
<rscale>  2 0.20200669E+03</rscale>
<asrwt>0</asrwt>
<pdfrwt beam="1">  1       21 0.85899782E-01 0.20201315E+03</pdfrwt>
<pdfrwt beam="2">  1       21 0.14574933E-01 0.20201315E+03</pdfrwt>
<totfact> 0.48119029E+04</totfact>
</mgrwt>
</event>
<event>
12    1  0.1473662E-001  0.1853690E+03  0.7546771E-02  0.1162708E+00
         21   -1    0    0  504  503  0.00000000000E+00  0.00000000000E+00  0.21055580134E+03  0.21055580134E+03  0.00000000000E+00 0. -1.
         21   -1    0    0  502  504 -0.00000000000E+00 -0.00000000000E+00 -0.16324640074E+03  0.16324640074E+03  0.00000000000E+00 0. -1.
          6    2    1    2  502    0 -0.49094999279E+02 -0.47987069071E+02  0.27284813474E+02  0.18736625576E+03  0.17218761570E+03 0.  0.
         24    2    3    3    0    0 -0.46160685769E+02 -0.55523308845E+02 -0.43181118871E+02  0.11628220181E+03  0.80270135754E+02 0.  0.
         -6    2    1    2    0  503  0.49094999279E+02  0.47987069071E+02  0.20024587125E+02  0.18643594632E+03  0.17217520215E+03 0.  0.
        -24    2    5    5    0    0  0.19430390759E+01  0.19173382510E+02 -0.49591293632E+02  0.97430346841E+02  0.81620965957E+02 0.  0.
          2    1    4    4  501    0 -0.67675030200E+02 -0.37750048945E+02 -0.42470502753E+02  0.88366959391E+02  0.00000000000E+00 0. -1.
         -1    1    4    4    0  501  0.21514344431E+02 -0.17773259900E+02 -0.71061611814E+00  0.27915242414E+02  0.00000000000E+00 0.  1.
          5    1    3    3  502    0 -0.29343135103E+01  0.75362397740E+01  0.70465932346E+02  0.71084053958E+02  0.47000000000E+01 0. -1.
         11    1    6    6    0    0  0.38965384283E+02  0.95671346851E+01 -0.79754771895E+01  0.40907694567E+02  0.00000000000E+00 0. -1.
        -12    1    6    6    0    0 -0.37022345207E+02  0.96062478246E+01 -0.41615816443E+02  0.56522652274E+02  0.00000000000E+00 0.  1.
         -5    1    5    5    0  503  0.47151960203E+02  0.28813686561E+02  0.69615880757E+02  0.89005599475E+02  0.47000000000E+01 0.  1.
<mgrwt>
<rscale>  2 0.18536608E+03</rscale>
<asrwt>0</asrwt>
<pdfrwt beam="1">  1       21 0.32393200E-01 0.18536896E+03</pdfrwt>
<pdfrwt beam="2">  1       21 0.25114831E-01 0.18536896E+03</pdfrwt>
<totfact> 0.13801124E+05</totfact>
</mgrwt>
</event>
<event>
12    1  0.1473662E-001  0.1798510E+03  0.7546771E-02  0.1168050E+00
         21   -1    0    0  504  503  0.00000000000E+00  0.00000000000E+00  0.44084983214E+03  0.44084983214E+03  0.00000000000E+00 0. -1.
         21   -1    0    0  502  504 -0.00000000000E+00 -0.00000000000E+00 -0.20797946833E+03  0.20797946833E+03  0.00000000000E+00 0. -1.
          6    2    1    2  502    0 -0.45118933228E+02  0.14949479321E+02 -0.14477106719E+03  0.23054777416E+03  0.17301563284E+03 0.  0.
         24    2    3    3    0    0  0.24649609812E+02  0.48443932032E+02 -0.11776299495E+03  0.14844385265E+03  0.72201361454E+02 0.  0.
         -6    2    1    2    0  503  0.45118933228E+02 -0.14949479321E+02  0.37764143101E+03  0.41828152631E+03  0.17345656451E+03 0.  0.
        -24    2    5    5    0    0 -0.19821065607E+02 -0.59763242160E+02  0.19300890679E+03  0.21744145115E+03  0.77870577404E+02 0.  0.
          4    1    4    4  501    0  0.40654065281E+02  0.42889937628E+02 -0.11747388674E+03  0.13150062297E+03  0.00000000000E+00 0. -1.
         -3    1    4    4    0  501 -0.16004455469E+02  0.55539944037E+01 -0.28910820867E+00  0.16943229688E+02  0.00000000000E+00 0.  1.
          5    1    3    3  502    0 -0.69768543040E+02 -0.33494452710E+02 -0.27008072238E+02  0.82103921504E+02  0.47000000000E+01 0. -1.
         11    1    6    6    0    0  0.16745117125E+02  0.15111158715E+01  0.93460494154E+02  0.94960762351E+02  0.00000000000E+00 0. -1.
        -12    1    6    6    0    0 -0.36566182732E+02 -0.61274358032E+02  0.99548412632E+02  0.12248068880E+03  0.00000000000E+00 0.  1.
         -5    1    5    5    0  503  0.64939998835E+02  0.44813762839E+02  0.18463252422E+03  0.20084007516E+03  0.47000000000E+01 0.  1.
<mgrwt>
<rscale>  2 0.17974461E+03</rscale>
<asrwt>0</asrwt>
<pdfrwt beam="1">  1       21 0.67823051E-01 0.17985101E+03</pdfrwt>
<pdfrwt beam="2">  1       21 0.31996842E-01 0.17985101E+03</pdfrwt>
<totfact> 0.18804502E+04</totfact>
</mgrwt>
</event>
<event>
12    1  0.1473662E-001  0.2044947E+03  0.7546771E-02  0.1146087E+00
         21   -1    0    0  504  503  0.00000000000E+00  0.00000000000E+00  0.43613873356E+03  0.43613873356E+03  0.00000000000E+00 0.  1.
         21   -1    0    0  502  504 -0.00000000000E+00 -0.00000000000E+00 -0.12795523651E+03  0.12795523651E+03  0.00000000000E+00 0.  1.
          6    2    1    2  502    0 -0.83410591995E+02  0.71015758926E+02  0.12337107824E+02  0.20445083317E+03  0.17218412843E+03 0.  0.
         24    2    3    3    0    0  0.23644364574E+02  0.30615142899E+02 -0.48068079470E+01  0.88653694394E+02  0.79624300162E+02 0.  0.
         -6    2    1    2    0  503  0.83410591995E+02 -0.71015758926E+02  0.29584638923E+03  0.35964313689E+03  0.17267754638E+03 0.  0.
        -24    2    5    5    0    0 -0.15277438056E+02  0.29911002697E+01  0.12072635025E+03  0.14538754062E+03  0.79500556781E+02 0.  0.
          4    1    4    4  501    0  0.32436339540E+02 -0.19306267783E+02 -0.11519128238E+00  0.37747335899E+02  0.00000000000E+00 0. -1.
         -3    1    4    4    0  501 -0.87919749658E+01  0.49921410682E+02 -0.46916166647E+01  0.50906358495E+02  0.00000000000E+00 0.  1.
          5    1    3    3  502    0 -0.10705495657E+03  0.40400616027E+02  0.17143915771E+02  0.11579713878E+03  0.47000000000E+01 0. -1.
         11    1    6    6    0    0 -0.10970960010E+02  0.37195777630E+02  0.94258677094E+02  0.10192441339E+03  0.00000000000E+00 0. -1.
        -12    1    6    6    0    0 -0.43064780458E+01 -0.34204677361E+02  0.26467673159E+02  0.43463127234E+02  0.00000000000E+00 0.  1.
         -5    1    5    5    0  503  0.98688030051E+02 -0.74006859196E+02  0.17512003897E+03  0.21425559627E+03  0.47000000000E+01 0.  1.
<mgrwt>
<rscale>  2 0.20439054E+03</rscale>
<asrwt>0</asrwt>
<pdfrwt beam="1">  1       21 0.67098266E-01 0.20449474E+03</pdfrwt>
<pdfrwt beam="2">  1       21 0.19685421E-01 0.20449474E+03</pdfrwt>
<totfact> 0.48064854E+04</totfact>
</mgrwt>
</event>
<event>
12    1  0.1473662E-001  0.1999841E+03  0.7546771E-02  0.1149786E+00
         21   -1    0    0  504  503  0.00000000000E+00  0.00000000000E+00  0.36669391646E+02  0.36669391646E+02  0.00000000000E+00 0.  1.
         21   -1    0    0  502  504 -0.00000000000E+00 -0.00000000000E+00 -0.13289335200E+04  0.13289335200E+04  0.00000000000E+00 0. -1.
          6    2    1    2  502    0 -0.99737379455E+02 -0.85292247269E+01 -0.93557009241E+03  0.95667224965E+03  0.17294537548E+03 0.  0.
         24    2    3    3    0    0 -0.11710661140E+02 -0.38157500991E+02 -0.26155014450E+03  0.27626684250E+03  0.79509469325E+02 0.  0.
         -6    2    1    2    0  503  0.99737379455E+02  0.85292247269E+01 -0.35669403590E+03  0.40893066196E+03  0.17312815630E+03 0.  0.
        -24    2    5    5    0    0  0.32190528105E+02  0.53030307606E+01 -0.31969724026E+03  0.33170477030E+03  0.82203266201E+02 0.  0.
          4    1    4    4  501    0  0.12724904378E+02 -0.35273953575E+02 -0.24186935551E+03  0.24475898375E+03  0.00000000000E+00 0. -1.
         -3    1    4    4    0  501 -0.24435565518E+02 -0.28835474161E+01 -0.19680788993E+02  0.31507858754E+02  0.00000000000E+00 0.  1.
          5    1    3    3  502    0 -0.88026718315E+02  0.29628276264E+02 -0.67401994791E+03  0.68040540714E+03  0.47000000000E+01 0. -1.
         13    1    6    6    0    0 -0.17288866727E+02  0.27887406606E+02 -0.94567715119E+02  0.10009827722E+03  0.00000000000E+00 0. -1.
        -14    1    6    6    0    0  0.49479394833E+02 -0.22584375845E+02 -0.22512952514E+03  0.23160649308E+03  0.00000000000E+00 0.  1.
         -5    1    5    5    0  503  0.67546851350E+02  0.32261939663E+01 -0.36996795645E+02  0.77225891661E+02  0.47000000000E+01 0.  1.
<mgrwt>
<rscale>  2 0.19994456E+03</rscale>
<asrwt>0</asrwt>
<pdfrwt beam="1">  1       21 0.56414452E-02 0.19998413E+03</pdfrwt>
<pdfrwt beam="2">  1       21 0.20445130E+00 0.19998413E+03</pdfrwt>
<totfact> 0.27404725E+04</totfact>
</mgrwt>
</event>
<event>
12    1  0.1473662E-001  0.2324363E+03  0.7546771E-02  0.1124979E+00
         21   -1    0    0  504  503  0.00000000000E+00  0.00000000000E+00  0.90865770304E+02  0.90865770304E+02  0.00000000000E+00 0.  1.
         21   -1    0    0  502  504 -0.00000000000E+00 -0.00000000000E+00 -0.87175345326E+03  0.87175345326E+03  0.00000000000E+00 0.  1.
          6    2    1    2  502    0  0.14891120553E+03  0.42642828833E+02 -0.66228434941E+03  0.70188831133E+03  0.17330229114E+03 0.  0.
         24    2    3    3    0    0  0.14225729123E+03 -0.88765492970E+01 -0.36686341135E+03  0.40189807557E+03  0.81347222011E+02 0.  0.
         -6    2    1    2    0  503 -0.14891120553E+03 -0.42642828833E+02 -0.11860333355E+03  0.26073091224E+03  0.17297658769E+03 0.  0.
        -24    2    5    5    0    0 -0.25610060100E+02  0.27722712264E+02 -0.62564254627E+02  0.10803202487E+03  0.79575175071E+02 0.  0.
          4    1    4    4  501    0  0.10844153793E+03 -0.38743534050E+02 -0.22078921403E+03  0.24901507106E+03  0.00000000000E+00 0. -1.
         -3    1    4    4    0  501  0.33815753298E+02  0.29866984753E+02 -0.14607419731E+03  0.15288300452E+03  0.00000000000E+00 0.  1.
          5    1    3    3  502    0  0.66539143007E+01  0.51519378130E+02 -0.29542093807E+03  0.29999023575E+03  0.47000000000E+01 0. -1.
         13    1    6    6    0    0  0.17554913545E+02 -0.16258684995E+02 -0.29869664444E+02  0.38271617177E+02  0.00000000000E+00 0. -1.
        -14    1    6    6    0    0 -0.43164973646E+02  0.43981397259E+02 -0.32694590183E+02  0.69760407696E+02  0.00000000000E+00 0.  1.
         -5    1    5    5    0  503 -0.12330114543E+03 -0.70365541097E+02 -0.56039078918E+02  0.15269888737E+03  0.47000000000E+01 0.  1.
<mgrwt>
<rscale>  2 0.23237561E+03</rscale>
<asrwt>0</asrwt>
<pdfrwt beam="1">  1       21 0.13979350E-01 0.23243632E+03</pdfrwt>
<pdfrwt beam="2">  1       21 0.13411591E+00 0.23243632E+03</pdfrwt>
<totfact> 0.17365867E+04</totfact>
</mgrwt>
</event>
<event>
12    1  0.1473662E-001  0.2046695E+03  0.7546771E-02  0.1145945E+00
         21   -1    0    0  504  503  0.00000000000E+00  0.00000000000E+00  0.29167649590E+03  0.29167649590E+03  0.00000000000E+00 0.  1.
         21   -1    0    0  502  504 -0.00000000000E+00 -0.00000000000E+00 -0.39387624402E+03  0.39387624402E+03  0.00000000000E+00 0.  1.
          6    2    1    2  502    0 -0.80620560276E+01 -0.10743367698E+03 -0.32447190844E+03  0.38340293792E+03  0.17351888007E+03 0.  0.
         24    2    3    3    0    0  0.47619944420E+02 -0.11580119777E+02 -0.16013521920E+03  0.18511772154E+03  0.78889315633E+02 0.  0.
         -6    2    1    2    0  503  0.80620560276E+01  0.10743367698E+03  0.22227216033E+03  0.30214980200E+03  0.17401895843E+03 0.  0.
        -24    2    5    5    0    0  0.37753612107E+02  0.81815359644E-01  0.12515304086E+03  0.15429776765E+03  0.81970577301E+02 0.  0.
          2    1    4    4  501    0  0.80734759125E+01 -0.33381490449E+02 -0.24566482342E+02  0.42225785635E+02  0.00000000000E+00 0. -1.
         -1    1    4    4    0  501  0.39546468508E+02  0.21801370671E+02 -0.13556873686E+03  0.14289193591E+03  0.00000000000E+00 0.  1.
          5    1    3    3  502    0 -0.55682000448E+02 -0.95853557202E+02 -0.16433668925E+03  0.19828521638E+03  0.47000000000E+01 0. -1.
         11    1    6    6    0    0 -0.21445424199E+02 -0.12107414951E+02  0.15524873860E+02  0.29112152518E+02  0.00000000000E+00 0. -1.
        -12    1    6    6    0    0  0.59199036306E+02  0.12189230310E+02  0.10962816700E+03  0.12518561513E+03  0.00000000000E+00 0.  1.
         -5    1    5    5    0  503 -0.29691556079E+02  0.10735186162E+03  0.97119119468E+02  0.14785203435E+03  0.47000000000E+01 0.  1.
<mgrwt>
<rscale>  2 0.20456313E+03</rscale>
<asrwt>0</asrwt>
<pdfrwt beam="1">  1       21 0.44873307E-01 0.20466946E+03</pdfrwt>
<pdfrwt beam="2">  1       21 0.60596345E-01 0.20466946E+03</pdfrwt>
<totfact> 0.11994227E+04</totfact>
</mgrwt>
</event>
<event>
12    1  0.1473662E-001  0.1798025E+03  0.7546771E-02  0.1168360E+00
         21   -1    0    0  504  503  0.00000000000E+00  0.00000000000E+00  0.67069632344E+02  0.67069632344E+02  0.00000000000E+00 0.  1.
         21   -1    0    0  502  504 -0.00000000000E+00 -0.00000000000E+00 -0.48482786724E+03  0.48482786724E+03  0.00000000000E+00 0.  1.
          6    2    1    2  502    0  0.45857384027E+02  0.15543071275E+02 -0.24076722575E+03  0.29959854471E+03  0.17159820589E+03 0.  0.
         24    2    3    3    0    0  0.29720905249E+02 -0.48024785004E+02 -0.19720357695E+03  0.22072434236E+03  0.81487866385E+02 0.  0.
         -6    2    1    2    0  503 -0.45857384027E+02 -0.15543071275E+02 -0.17699100915E+03  0.25229895487E+03  0.17316021072E+03 0.  0.
        -24    2    5    5    0    0 -0.44096387710E+02 -0.54730380105E+02 -0.44218799161E+02  0.11377352029E+03  0.77776640479E+02 0.  0.
          4    1    4    4  501    0 -0.47292464306E+01 -0.38876794045E+02 -0.17362563511E+03  0.17798773007E+03  0.00000000000E+00 0. -1.
         -3    1    4    4    0  501  0.34450151680E+02 -0.91479909595E+01 -0.23577941835E+02  0.42736612296E+02  0.00000000000E+00 0.  1.
          5    1    3    3  502    0  0.16136478779E+02  0.63567856280E+02 -0.43563648801E+02  0.78874202349E+02  0.47000000000E+01 0. -1.
         11    1    6    6    0    0  0.16680664948E+02  0.40773507731E-01 -0.24459675082E+02  0.29606113401E+02  0.00000000000E+00 0. -1.
        -12    1    6    6    0    0 -0.60777052658E+02 -0.54771153613E+02 -0.19759124079E+02  0.84167406888E+02  0.00000000000E+00 0.  1.
         -5    1    5    5    0  503 -0.17609963170E+01  0.39187308830E+02 -0.13277220999E+03  0.13852543458E+03  0.47000000000E+01 0.  1.
<mgrwt>
<rscale>  2 0.17942538E+03</rscale>
<asrwt>0</asrwt>
<pdfrwt beam="1">  1       21 0.10318405E-01 0.17980252E+03</pdfrwt>
<pdfrwt beam="2">  1       21 0.74588899E-01 0.17980252E+03</pdfrwt>
<totfact> 0.12414169E+05</totfact>
</mgrwt>
</event>
<event>
12    1  0.1473662E-001  0.1890117E+03  0.7546771E-02  0.1159394E+00
         21   -1    0    0  504  503  0.00000000000E+00  0.00000000000E+00  0.69320668496E+02  0.69320668496E+02  0.00000000000E+00 0.  1.
         21   -1    0    0  502  504 -0.00000000000E+00 -0.00000000000E+00 -0.84871526245E+03  0.84871526245E+03  0.00000000000E+00 0.  1.
          6    2    1    2  502    0 -0.72779740547E+02 -0.10242860990E+02 -0.67746210675E+03  0.70329035173E+03  0.17395575854E+03 0.  0.
         24    2    3    3    0    0 -0.90900768153E+02 -0.26828447922E+01 -0.67276226652E+03  0.68256104918E+03  0.70783976209E+02 0.  0.
         -6    2    1    2    0  503  0.72779740547E+02  0.10242860990E+02 -0.10193248721E+03  0.21474557921E+03  0.17413679969E+03 0.  0.
        -24    2    5    5    0    0  0.65175535817E+02 -0.64771873614E+02 -0.74690784748E+02  0.13443845194E+03  0.63653263497E+02 0.  0.
          4    1    4    4  501    0  0.10589389459E+02 -0.85045045784E+01 -0.77859376575E+02  0.79035082640E+02  0.00000000000E+00 0. -1.
         -3    1    4    4    0  501 -0.10149015761E+03  0.58216597862E+01 -0.59490288995E+03  0.60352596654E+03  0.00000000000E+00 0.  1.
          5    1    3    3  502    0  0.18121027606E+02 -0.75600161979E+01 -0.46998402240E+01  0.20729302558E+02  0.47000000000E+01 0. -1.
         11    1    6    6    0    0 -0.60128410410E+01  0.78702712975E+01 -0.46188821248E+01  0.10928380473E+02  0.00000000000E+00 0. -1.
        -12    1    6    6    0    0  0.71188376858E+02 -0.72642144912E+02 -0.70071902623E+02  0.12351007147E+03  0.00000000000E+00 0.  1.
         -5    1    5    5    0  503  0.76042047298E+01  0.75014734604E+02 -0.27241702458E+02  0.80307127269E+02  0.47000000000E+01 0.  1.
<mgrwt>
<rscale>  2 0.18897002E+03</rscale>
<asrwt>0</asrwt>
<pdfrwt beam="1">  1       21 0.10664718E-01 0.18901172E+03</pdfrwt>
<pdfrwt beam="2">  1       21 0.13057159E+00 0.18901172E+03</pdfrwt>
<totfact> 0.31019991E+04</totfact>
</mgrwt>
</event>
<event>
12    1  0.1473662E-001  0.2113908E+03  0.7546771E-02  0.1143096E+00
         21   -1    0    0  504  503  0.00000000000E+00  0.00000000000E+00  0.68637231326E+03  0.68637231326E+03  0.00000000000E+00 0.  1.
         21   -1    0    0  502  504 -0.00000000000E+00 -0.00000000000E+00 -0.13164446101E+03  0.13164446101E+03  0.00000000000E+00 0.  1.
          6    2    1    2  502    0  0.18101493663E+02 -0.12387461738E+03 -0.25871482515E+02  0.20013196480E+03  0.15398339139E+03 0.  0.
         24    2    3    3    0    0  0.14131184547E+02 -0.13555896768E+03  0.13831430718E+02  0.15829061306E+03  0.79301233367E+02 0.  0.
         -6    2    1    2    0  503 -0.18101493663E+02  0.12387461738E+03  0.58059933477E+03  0.61788480946E+03  0.17033339462E+03 0.  0.
        -24    2    5    5    0    0 -0.28152851175E+02  0.15452191079E+03  0.51735454865E+03  0.54673511267E+03  0.81203143274E+02 0.  0.
          2    1    4    4  501    0  0.52837756995E+01 -0.86395861687E+02 -0.30227726672E+02  0.91683579020E+02  0.00000000000E+00 0. -1.
         -1    1    4    4    0  501  0.88474088479E+01 -0.49163105991E+02  0.44059157390E+02  0.66607034042E+02  0.00000000000E+00 0.  1.
          5    1    3    3  502    0  0.39703091160E+01  0.11684350297E+02 -0.39702913234E+02  0.41841351742E+02  0.47000000000E+01 0. -1.
         11    1    6    6    0    0 -0.17809582863E+02  0.10422459941E+01  0.23671162289E+02  0.29641043210E+02  0.00000000000E+00 0. -1.
        -12    1    6    6    0    0 -0.10343268312E+02  0.15347966480E+03  0.49368338636E+03  0.51709406946E+03  0.00000000000E+00 0.  1.
         -5    1    5    5    0  503  0.10051357512E+02 -0.30647293413E+02  0.63244786119E+02  0.71149696786E+02  0.47000000000E+01 0.  1.
<mgrwt>
<rscale>  2 0.20807923E+03</rscale>
<asrwt>0</asrwt>
<pdfrwt beam="1">  1       21 0.10559574E+00 0.21139075E+03</pdfrwt>
<pdfrwt beam="2">  1       21 0.20252994E-01 0.21139075E+03</pdfrwt>
<totfact> 0.16056222E+04</totfact>
</mgrwt>
</event>
<event>
12    1  0.1473662E-001  0.2165736E+03  0.7546771E-02  0.1136652E+00
         21   -1    0    0  504  503  0.00000000000E+00  0.00000000000E+00  0.22206015782E+03  0.22206015782E+03  0.00000000000E+00 0. -1.
         21   -1    0    0  502  504 -0.00000000000E+00 -0.00000000000E+00 -0.21443143098E+03  0.21443143098E+03  0.00000000000E+00 0. -1.
          6    2    1    2  502    0  0.10210784702E+03 -0.83675057899E+02 -0.26621503348E+02  0.21820365854E+03  0.17168751971E+03 0.  0.
         24    2    3    3    0    0  0.12756183727E+03 -0.71091709097E+02 -0.57422412524E+02  0.17604879770E+03  0.79810978439E+02 0.  0.
         -6    2    1    2    0  503 -0.10210784702E+03  0.83675057899E+02  0.34250230186E+02  0.21828793026E+03  0.17043771441E+03 0.  0.
        -24    2    5    5    0    0 -0.35167401254E+02  0.10346180157E+03 -0.85655258570E+01  0.13626465631E+03  0.80954294707E+02 0.  0.
          2    1    4    4  501    0  0.11729226606E+03 -0.82496508450E+02 -0.66661028340E+02  0.15813551873E+03  0.00000000000E+00 0. -1.
         -1    1    4    4    0  501  0.10269571211E+02  0.11404799354E+02  0.92386158154E+01  0.17913278967E+02  0.00000000000E+00 0.  1.
          5    1    3    3  502    0 -0.25453990253E+02 -0.12583348803E+02  0.30800909177E+02  0.42154860846E+02  0.47000000000E+01 0. -1.
         13    1    6    6    0    0 -0.52187420026E+02  0.90369859620E+02  0.13794215844E+02  0.10526404290E+03  0.00000000000E+00 0. -1.
        -14    1    6    6    0    0  0.17020018772E+02  0.13091941949E+02 -0.22359741701E+02  0.31000613412E+02  0.00000000000E+00 0.  1.
         -5    1    5    5    0  503 -0.66940445765E+02 -0.19786743670E+02  0.42815756043E+02  0.82023273952E+02  0.47000000000E+01 0.  1.
<mgrwt>
<rscale>  2 0.21632584E+03</rscale>
<asrwt>0</asrwt>
<pdfrwt beam="1">  1       21 0.34163101E-01 0.21657362E+03</pdfrwt>
<pdfrwt beam="2">  1       21 0.32989451E-01 0.21657362E+03</pdfrwt>
<totfact> 0.72282600E+04</totfact>
</mgrwt>
</event>
<event>
12    1  0.1473662E-001  0.2205100E+03  0.7546771E-02  0.1133504E+00
         21   -1    0    0  504  503  0.00000000000E+00  0.00000000000E+00  0.15906066753E+03  0.15906066753E+03  0.00000000000E+00 0.  1.
         21   -1    0    0  502  504 -0.00000000000E+00 -0.00000000000E+00 -0.34384263011E+03  0.34384263011E+03  0.00000000000E+00 0. -1.
          6    2    1    2  502    0 -0.13588100767E+03 -0.96702048550E+01 -0.17614534865E+03  0.28222424737E+03  0.17339602315E+03 0.  0.
         24    2    3    3    0    0 -0.15916144376E+03 -0.31339718374E+02 -0.17247056874E+03  0.24986469656E+03  0.79823094288E+02 0.  0.
         -6    2    1    2    0  503  0.13588100767E+03  0.96702048550E+01 -0.86366139402E+01  0.22067905027E+03  0.17339980110E+03 0.  0.
        -24    2    5    5    0    0  0.41730295710E+02  0.61636447314E+02  0.13759651752E+02  0.11073120066E+03  0.80818324442E+02 0.  0.
          2    1    4    4  501    0 -0.11280225666E+03  0.12842071147E+02 -0.13200436156E+03  0.17411036549E+03  0.00000000000E+00 0. -1.
         -1    1    4    4    0  501 -0.46359187093E+02 -0.44181789521E+02 -0.40466207176E+02  0.75754331074E+02  0.00000000000E+00 0.  1.
          5    1    3    3  502    0  0.23280436089E+02  0.21669513519E+02 -0.36747799098E+01  0.32359550801E+02  0.47000000000E+01 0. -1.
         13    1    6    6    0    0  0.25564084690E+02  0.68043100807E+02  0.37113969593E+02  0.81613924868E+02  0.00000000000E+00 0. -1.
        -14    1    6    6    0    0  0.16166211020E+02 -0.64066534924E+01 -0.23354317841E+02  0.29117275792E+02  0.00000000000E+00 0.  1.
         -5    1    5    5    0  503  0.94150711959E+02 -0.51966242459E+02 -0.22396265693E+02  0.10994784961E+03  0.47000000000E+01 0.  1.
<mgrwt>
<rscale>  2 0.22050924E+03</rscale>
<asrwt>0</asrwt>
<pdfrwt beam="1">  1       21 0.24470872E-01 0.22050998E+03</pdfrwt>
<pdfrwt beam="2">  1       21 0.52898866E-01 0.22050998E+03</pdfrwt>
<totfact> 0.52733978E+04</totfact>
</mgrwt>
</event>
<event>
12    1  0.1473662E-001  0.2538067E+03  0.7546771E-02  0.1110941E+00
         21   -1    0    0  504  503  0.00000000000E+00  0.00000000000E+00  0.13268606812E+04  0.13268606812E+04  0.00000000000E+00 0.  1.
         21   -1    0    0  502  504 -0.00000000000E+00 -0.00000000000E+00 -0.59363558771E+02  0.59363558771E+02  0.00000000000E+00 0.  1.
          6    2    1    2  502    0  0.19021100862E+02 -0.18471385990E+03  0.92976963435E+03  0.96375803289E+03  0.17284953189E+03 0.  0.
         24    2    3    3    0    0 -0.37882706207E+02 -0.67833627505E+02  0.57226032304E+03  0.58331877405E+03  0.82112206109E+02 0.  0.
         -6    2    1    2    0  503 -0.19021100862E+02  0.18471385990E+03  0.33772748813E+03  0.42246620713E+03  0.17302262169E+03 0.  0.
        -24    2    5    5    0    0  0.39000650130E+02  0.13874622015E+03  0.15856965648E+03  0.22856116302E+03  0.79525498854E+02 0.  0.
          4    1    4    4  501    0 -0.56785359726E+02 -0.60251230956E+02  0.52975713559E+03  0.53618785013E+03  0.00000000000E+00 0. -1.
         -3    1    4    4    0  501  0.18902653518E+02 -0.75823965491E+01  0.42503187443E+02  0.47130923928E+02  0.00000000000E+00 0.  1.
          5    1    3    3  502    0  0.56903807069E+02 -0.11688023240E+03  0.35750931131E+03  0.38043925883E+03  0.47000000000E+01 0. -1.
         11    1    6    6    0    0  0.90179137597E+01 -0.85537223030E+01  0.42662308097E+01  0.13141143753E+02  0.00000000000E+00 0. -1.
        -12    1    6    6    0    0  0.29982736370E+02  0.14729994245E+03  0.15430342567E+03  0.21542001927E+03  0.00000000000E+00 0.  1.
         -5    1    5    5    0  503 -0.58021750992E+02  0.45967639751E+02  0.17915783164E+03  0.19390504411E+03  0.47000000000E+01 0.  1.
<mgrwt>
<rscale>  2 0.25377720E+03</rscale>
<asrwt>0</asrwt>
<pdfrwt beam="1">  1       21 0.20413239E+00 0.25380670E+03</pdfrwt>
<pdfrwt beam="2">  1       21 0.91328562E-02 0.25380670E+03</pdfrwt>
<totfact> 0.11494975E+04</totfact>
</mgrwt>
</event>
<event>
12    1  0.1473662E-001  0.2242578E+03  0.7546771E-02  0.1130996E+00
         21   -1    0    0  504  503  0.00000000000E+00  0.00000000000E+00  0.60725843205E+03  0.60725843205E+03  0.00000000000E+00 0. -1.
         21   -1    0    0  502  504 -0.00000000000E+00 -0.00000000000E+00 -0.12589489021E+03  0.12589489021E+03  0.00000000000E+00 0.  1.
          6    2    1    2  502    0  0.11205321000E+03 -0.90189667754E+02  0.24526934388E+02  0.22424150384E+03  0.17027208665E+03 0.  0.
         24    2    3    3    0    0  0.10300755538E+03 -0.34450688001E+02  0.74111705255E+02  0.14894610403E+03  0.69964209990E+02 0.  0.
         -6    2    1    2    0  503 -0.11205321000E+03  0.90189667754E+02  0.45683660745E+03  0.50891181842E+03  0.17205073374E+03 0.  0.
        -24    2    5    5    0    0 -0.61613136580E+02  0.11373253960E+03  0.24077141946E+03  0.28574209986E+03  0.83345078090E+02 0.  0.
          2    1    4    4  501    0  0.10058317710E+03 -0.14383826059E+02  0.78334200490E+02  0.12829698724E+03  0.00000000000E+00 0. -1.
         -1    1    4    4    0  501  0.24243782826E+01 -0.20066861941E+02 -0.42224952346E+01  0.20649116791E+02  0.00000000000E+00 0.  1.
          5    1    3    3  502    0  0.90456546191E+01 -0.55738979753E+02 -0.49584770867E+02  0.75295399815E+02  0.47000000000E+01 0. -1.
         11    1    6    6    0    0 -0.41747864596E+02  0.10433404590E+03  0.23849973715E+03  0.26364863351E+03  0.00000000000E+00 0. -1.
        -12    1    6    6    0    0 -0.19865271984E+02  0.93984936961E+01  0.22716823094E+01  0.22093466348E+02  0.00000000000E+00 0.  1.
         -5    1    5    5    0  503 -0.50440073421E+02 -0.23542871843E+02  0.21606518799E+03  0.22316971856E+03  0.47000000000E+01 0.  1.
<mgrwt>
<rscale>  2 0.22391659E+03</rscale>
<asrwt>0</asrwt>
<pdfrwt beam="1">  1       21 0.93424373E-01 0.22425778E+03</pdfrwt>
<pdfrwt beam="2">  1       21 0.19368445E-01 0.22425778E+03</pdfrwt>
<totfact> 0.23180795E+04</totfact>
</mgrwt>
</event>
<event>
12    1  0.1473662E-001  0.2015148E+03  0.7546771E-02  0.1148546E+00
         21   -1    0    0  504  503  0.00000000000E+00  0.00000000000E+00  0.92282895301E+02  0.92282895301E+02  0.00000000000E+00 0. -1.
         21   -1    0    0  502  504 -0.00000000000E+00 -0.00000000000E+00 -0.63111344477E+03  0.63111344477E+03  0.00000000000E+00 0.  1.
          6    2    1    2  502    0 -0.96846387774E+02  0.30387059937E+02 -0.46868689576E+03  0.51002256854E+03  0.17364624361E+03 0.  0.
         24    2    3    3    0    0 -0.64153595845E+02 -0.11201105673E+02 -0.12285553854E+03  0.16013714186E+03  0.79430927383E+02 0.  0.
         -6    2    1    2    0  503  0.96846387774E+02 -0.30387059937E+02 -0.70143653707E+02  0.21337377154E+03  0.17408514580E+03 0.  0.
        -24    2    5    5    0    0  0.56183682685E+02 -0.30219631786E+02  0.22398584250E+02  0.11218266805E+03  0.89517719420E+02 0.  0.
          4    1    4    4  501    0 -0.73646366951E+01  0.53957178355E+00  0.11576331931E+02  0.13731004055E+02  0.00000000000E+00 0. -1.
         -3    1    4    4    0  501 -0.56788959150E+02 -0.11740677457E+02 -0.13443187047E+03  0.14640613781E+03  0.00000000000E+00 0.  1.
          5    1    3    3  502    0 -0.32692791929E+02  0.41588165610E+02 -0.34583135722E+03  0.34988542667E+03  0.47000000000E+01 0. -1.
         11    1    6    6    0    0  0.67715166421E+02  0.96434298117E+01  0.12711560309E+02  0.69569557045E+02  0.00000000000E+00 0. -1.
        -12    1    6    6    0    0 -0.11531483736E+02 -0.39863061598E+02  0.96870239409E+01  0.42613111010E+02  0.00000000000E+00 0.  1.
         -5    1    5    5    0  503  0.40662705090E+02 -0.16742815043E+00 -0.92542237958E+02  0.10119110348E+03  0.47000000000E+01 0.  1.
<mgrwt>
<rscale>  2 0.20142002E+03</rscale>
<asrwt>0</asrwt>
<pdfrwt beam="1">  1       21 0.14197369E-01 0.20151485E+03</pdfrwt>
<pdfrwt beam="2">  1       21 0.97094375E-01 0.20151485E+03</pdfrwt>
<totfact> 0.37970743E+04</totfact>
</mgrwt>
</event>
<event>
12    1  0.1473662E-001  0.2630362E+03  0.7546771E-02  0.1105758E+00
         21   -1    0    0  504  503  0.00000000000E+00  0.00000000000E+00  0.89021749826E+03  0.89021749826E+03  0.00000000000E+00 0.  1.
         21   -1    0    0  502  504 -0.00000000000E+00 -0.00000000000E+00 -0.81202391865E+02  0.81202391865E+02  0.00000000000E+00 0. -1.
          6    2    1    2  502    0  0.30682706239E+02  0.19377735314E+03  0.29034166396E+03  0.38986148422E+03  0.17088769409E+03 0.  0.
         24    2    3    3    0    0  0.19439407191E+02  0.33680884037E+02  0.64636311838E+02  0.11287360150E+03  0.83966092004E+02 0.  0.
         -6    2    1    2    0  503 -0.30682706239E+02 -0.19377735314E+03  0.51867344243E+03  0.58155840590E+03  0.17520544668E+03 0.  0.
        -24    2    5    5    0    0 -0.27663117234E+02 -0.97248864380E+02  0.43123832856E+03  0.45119792034E+03  0.85967887135E+02 0.  0.
          4    1    4    4  501    0 -0.22296706486E+02 -0.14440214429E+02  0.82845765413E+01  0.27826194877E+02  0.00000000000E+00 0. -1.
         -3    1    4    4    0  501  0.41736113677E+02  0.48121098466E+02  0.56351735297E+02  0.85047406624E+02  0.00000000000E+00 0.  1.
          5    1    3    3  502    0  0.11243299047E+02  0.16009646910E+03  0.22570535213E+03  0.27698788272E+03  0.47000000000E+01 0. -1.
         11    1    6    6    0    0  0.52541908615E+01  0.95170304477E+00  0.17133649297E+03  0.17141967823E+03  0.00000000000E+00 0. -1.
        -12    1    6    6    0    0 -0.32917308095E+02 -0.98200567425E+02  0.25990183559E+03  0.27977824211E+03  0.00000000000E+00 0.  1.
         -5    1    5    5    0  503 -0.30195890047E+01 -0.96528488761E+02  0.87435113864E+02  0.13036048557E+03  0.47000000000E+01 0.  1.
<mgrwt>
<rscale>  2 0.26231925E+03</rscale>
<asrwt>0</asrwt>
<pdfrwt beam="1">  1       21 0.13695653E+00 0.26303619E+03</pdfrwt>
<pdfrwt beam="2">  1       21 0.12492676E-01 0.26303619E+03</pdfrwt>
<totfact> 0.19848555E+04</totfact>
</mgrwt>
</event>
<event>
12    1  0.1473662E-001  0.1990953E+03  0.7546771E-02  0.1151064E+00
         21   -1    0    0  504  503  0.00000000000E+00  0.00000000000E+00  0.24697599306E+03  0.24697599306E+03  0.00000000000E+00 0. -1.
         21   -1    0    0  502  504 -0.00000000000E+00 -0.00000000000E+00 -0.16476879891E+03  0.16476879891E+03  0.00000000000E+00 0. -1.
          6    2    1    2  502    0  0.30202411261E+02  0.87960544827E+02  0.87413572688E+00  0.19909720997E+03  0.17603889290E+03 0.  0.
         24    2    3    3    0    0 -0.20216634714E+02  0.43391219292E+02 -0.57442181442E+02  0.10992665528E+03  0.80577634008E+02 0.  0.
         -6    2    1    2    0  503 -0.30202411261E+02 -0.87960544827E+02  0.81333058429E+02  0.21264758200E+03  0.17307421716E+03 0.  0.
        -24    2    5    5    0    0 -0.34909042609E+02  0.18139293097E+01  0.61494618812E+01  0.95360448113E+02  0.88509138440E+02 0.  0.
          4    1    4    4  501    0 -0.55845315040E+01  0.31872853519E+02 -0.76633881515E+02  0.83185440912E+02  0.00000000000E+00 0. -1.
         -3    1    4    4    0  501 -0.14632103210E+02  0.11518365772E+02  0.19191700073E+02  0.26741214373E+02  0.00000000000E+00 0.  1.
          5    1    3    3  502    0  0.50419045975E+02  0.44569325536E+02  0.58316317169E+02  0.89170554691E+02  0.47000000000E+01 0. -1.
         13    1    6    6    0    0 -0.80878479436E+01 -0.28878596464E+02  0.34498129861E+02  0.45711131926E+02  0.00000000000E+00 0. -1.
        -14    1    6    6    0    0 -0.26821194665E+02  0.30692525773E+02 -0.28348667979E+02  0.49649316187E+02  0.00000000000E+00 0.  1.
         -5    1    5    5    0  503  0.47066313480E+01 -0.89774474137E+02  0.75183596548E+02  0.11728713389E+03  0.47000000000E+01 0.  1.
<mgrwt>
<rscale>  2 0.19843793E+03</rscale>
<asrwt>0</asrwt>
<pdfrwt beam="1">  1       21 0.37996306E-01 0.19909529E+03</pdfrwt>
<pdfrwt beam="2">  1       21 0.25349046E-01 0.19909529E+03</pdfrwt>
<totfact> 0.98277872E+04</totfact>
</mgrwt>
</event>
<event>
12    1  0.1473662E-001  0.2202759E+03  0.7546771E-02  0.1133788E+00
         21   -1    0    0  504  503  0.00000000000E+00  0.00000000000E+00  0.31961941515E+03  0.31961941515E+03  0.00000000000E+00 0.  1.
         21   -1    0    0  502  504 -0.00000000000E+00 -0.00000000000E+00 -0.16486099304E+03  0.16486099304E+03  0.00000000000E+00 0. -1.
          6    2    1    2  502    0 -0.13428728349E+03  0.21725236901E+02  0.14668753783E+03  0.26464828855E+03  0.17325248181E+03 0.  0.
         24    2    3    3    0    0 -0.69596648166E+02  0.76933786201E+02  0.64255921238E+02  0.14611591480E+03  0.80365018803E+02 0.  0.
         -6    2    1    2    0  503  0.13428728349E+03 -0.21725236901E+02  0.80708842804E+01  0.21983211964E+03  0.17249916298E+03 0.  0.
        -24    2    5    5    0    0  0.62474207622E+02 -0.48296090796E+02 -0.49902194765E+02  0.12367549722E+03  0.81054676393E+02 0.  0.
          2    1    4    4  501    0 -0.54831926706E+02  0.89058680476E+02  0.33335196274E+02  0.10976895766E+03  0.00000000000E+00 0. -1.
         -1    1    4    4    0  501 -0.14764721460E+02 -0.12124894275E+02  0.30920724964E+02  0.36346957139E+02  0.00000000000E+00 0.  1.
          5    1    3    3  502    0 -0.64690635327E+02 -0.55208549300E+02  0.82431616591E+02  0.11853237376E+03  0.47000000000E+01 0. -1.
         11    1    6    6    0    0 -0.18647448470E+02 -0.92932961015E+00 -0.12993362671E+02  0.22746834098E+02  0.00000000000E+00 0. -1.
        -12    1    6    6    0    0  0.81121656092E+02 -0.47366761186E+02 -0.36908832094E+02  0.10092866312E+03  0.00000000000E+00 0.  1.
         -5    1    5    5    0  503  0.71813075871E+02  0.26570853895E+02  0.57973079045E+02  0.96156622428E+02  0.47000000000E+01 0.  1.
<mgrwt>
<rscale>  2 0.22012777E+03</rscale>
<asrwt>0</asrwt>
<pdfrwt beam="1">  1       21 0.49172218E-01 0.22027592E+03</pdfrwt>
<pdfrwt beam="2">  1       21 0.25363230E-01 0.22027592E+03</pdfrwt>
<totfact> 0.57402200E+04</totfact>
</mgrwt>
</event>
<event>
12    1  0.1473662E-001  0.1772774E+03  0.7546771E-02  0.1171263E+00
         21   -1    0    0  504  503  0.00000000000E+00  0.00000000000E+00  0.32783613143E+03  0.32783613143E+03  0.00000000000E+00 0.  1.
         21   -1    0    0  502  504 -0.00000000000E+00 -0.00000000000E+00 -0.35241288353E+03  0.35241288353E+03  0.00000000000E+00 0.  1.
          6    2    1    2  502    0 -0.28491405348E+02  0.19920965214E+02 -0.30342921776E+03  0.34981602739E+03  0.17056775133E+03 0.  0.
         24    2    3    3    0    0  0.50071289040E+02  0.30771738304E+02 -0.18939705184E+03  0.21083667248E+03  0.71601852998E+02 0.  0.
         -6    2    1    2    0  503  0.28491405348E+02 -0.19920965214E+02  0.27885246566E+03  0.33043298757E+03  0.17383514213E+03 0.  0.
        -24    2    5    5    0    0  0.86306003938E+02 -0.13414872377E+02  0.19498240045E+03  0.22825111593E+03  0.80322788309E+02 0.  0.
          4    1    4    4  501    0  0.80272659736E+01  0.23285132059E+02 -0.15226960883E+03  0.15424872170E+03  0.00000000000E+00 0. -1.
         -3    1    4    4    0  501  0.42044023067E+02  0.74866062450E+01 -0.37127443009E+02  0.56587950777E+02  0.00000000000E+00 0.  1.
          5    1    3    3  502    0 -0.78562694388E+02 -0.10850773091E+02 -0.11403216592E+03  0.13897935491E+03  0.47000000000E+01 0. -1.
         13    1    6    6    0    0  0.28399556447E+02 -0.86085960860E+01  0.56572708147E+01  0.30210055380E+02  0.00000000000E+00 0. -1.
        -14    1    6    6    0    0  0.57906447491E+02 -0.48062762911E+01  0.18932512963E+03  0.19804106055E+03  0.00000000000E+00 0.  1.
         -5    1    5    5    0  503 -0.57814598590E+02 -0.65060928365E+01  0.83870065208E+02  0.10218187164E+03  0.47000000000E+01 0.  1.
<mgrwt>
<rscale>  2 0.17647118E+03</rscale>
<asrwt>0</asrwt>
<pdfrwt beam="1">  1       21 0.50436328E-01 0.17727736E+03</pdfrwt>
<pdfrwt beam="2">  1       21 0.54217367E-01 0.17727736E+03</pdfrwt>
<totfact> 0.12155330E+04</totfact>
</mgrwt>
</event>
<event>
12    1  0.1473662E-001  0.1814556E+03  0.7546771E-02  0.1166462E+00
         21   -1    0    0  504  503  0.00000000000E+00  0.00000000000E+00  0.46860553719E+03  0.46860553719E+03  0.00000000000E+00 0. -1.
         21   -1    0    0  502  504 -0.00000000000E+00 -0.00000000000E+00 -0.11412409738E+03  0.11412409738E+03  0.00000000000E+00 0. -1.
          6    2    1    2  502    0 -0.39502074737E+02  0.37444459794E+02 -0.36638549710E+01  0.18123967709E+03  0.17283487855E+03 0.  0.
         24    2    3    3    0    0 -0.67417682188E+02  0.65938809671E+02  0.32220253018E+02  0.12737903914E+03  0.79336022183E+02 0.  0.
         -6    2    1    2    0  503  0.39502074737E+02 -0.37444459794E+02  0.35814529478E+03  0.40148995747E+03  0.17310006441E+03 0.  0.
        -24    2    5    5    0    0  0.38467949419E+02 -0.18100308787E+01  0.74198184350E+02  0.11527511952E+03  0.79372056015E+02 0.  0.
          2    1    4    4  501    0 -0.84209399434E+02  0.44710006157E+02  0.18843068087E+02  0.97186772858E+02  0.00000000000E+00 0. -1.
         -1    1    4    4    0  501  0.16791717246E+02  0.21228803515E+02  0.13377184931E+02  0.30192266285E+02  0.00000000000E+00 0.  1.
          5    1    3    3  502    0  0.27915607452E+02 -0.28494349877E+02 -0.35884107989E+02  0.53860637951E+02  0.47000000000E+01 0. -1.
         11    1    6    6    0    0  0.31688553229E+02 -0.23113514884E+02  0.82562472079E+02  0.91405474518E+02  0.00000000000E+00 0. -1.
        -12    1    6    6    0    0  0.67793961897E+01  0.21303484005E+02 -0.83642877290E+01  0.23869645005E+02  0.00000000000E+00 0.  1.
         -5    1    5    5    0  503  0.10341253178E+01 -0.35634428916E+02  0.28394711043E+03  0.28621483795E+03  0.47000000000E+01 0.  1.
<mgrwt>
<rscale>  2 0.18139232E+03</rscale>
<asrwt>0</asrwt>
<pdfrwt beam="1">  1       21 0.72093159E-01 0.18145560E+03</pdfrwt>
<pdfrwt beam="2">  1       21 0.17557554E-01 0.18145560E+03</pdfrwt>
<totfact> 0.51306086E+04</totfact>
</mgrwt>
</event>
<event>
12    1  0.1473662E-001  0.2257562E+03  0.7546771E-02  0.1130043E+00
         21   -1    0    0  504  503  0.00000000000E+00  0.00000000000E+00  0.23056013481E+03  0.23056013481E+03  0.00000000000E+00 0. -1.
         21   -1    0    0  502  504 -0.00000000000E+00 -0.00000000000E+00 -0.28407858482E+03  0.28407858482E+03  0.00000000000E+00 0. -1.
          6    2    1    2  502    0  0.68846912612E+02 -0.12287003643E+03 -0.14981997373E+03  0.26920063786E+03  0.17374123192E+03 0.  0.
         24    2    3    3    0    0  0.59277989725E+02 -0.58906290026E+02 -0.16393886895E+03  0.20283529795E+03  0.85336828356E+02 0.  0.
         -6    2    1    2    0  503 -0.68846912612E+02  0.12287003643E+03  0.96301523719E+02  0.24543808177E+03  0.17643391194E+03 0.  0.
        -24    2    5    5    0    0 -0.75165412095E+01  0.14090829399E+01  0.73935452642E+01  0.82831512677E+02  0.82145669845E+02 0.  0.
          2    1    4    4  501    0  0.54708794321E+02 -0.80477477517E+02 -0.13645249360E+03  0.16759761208E+03  0.00000000000E+00 0. -1.
         -1    1    4    4    0  501  0.45691954037E+01  0.21571187491E+02 -0.27486375347E+02  0.35237685879E+02  0.00000000000E+00 0.  1.
          5    1    3    3  502    0  0.95689228876E+01 -0.63963746401E+02  0.14118895222E+02  0.66365339908E+02  0.47000000000E+01 0. -1.
         11    1    6    6    0    0 -0.99009600347E+01  0.38322052469E+02 -0.11606705467E+02  0.41247112952E+02  0.00000000000E+00 0. -1.
        -12    1    6    6    0    0  0.23844188252E+01 -0.36912969529E+02  0.19000250731E+02  0.41584399725E+02  0.00000000000E+00 0.  1.
         -5    1    5    5    0  503 -0.61330371403E+02  0.12146095349E+03  0.88907978455E+02  0.16260656909E+03  0.47000000000E+01 0.  1.
<mgrwt>
<rscale>  2 0.22522986E+03</rscale>
<asrwt>0</asrwt>
<pdfrwt beam="1">  1       21 0.35470790E-01 0.22575621E+03</pdfrwt>
<pdfrwt beam="2">  1       21 0.43704397E-01 0.22575621E+03</pdfrwt>
<totfact> 0.37921381E+04</totfact>
</mgrwt>
</event>
<event>
12    1  0.1473662E-001  0.1783911E+03  0.7546771E-02  0.1169550E+00
         21   -1    0    0  504  503  0.00000000000E+00  0.00000000000E+00  0.55211412508E+03  0.55211412508E+03  0.00000000000E+00 0. -1.
         21   -1    0    0  502  504 -0.00000000000E+00 -0.00000000000E+00 -0.58498833160E+02  0.58498833160E+02  0.00000000000E+00 0. -1.
          6    2    1    2  502    0  0.29456621716E+02 -0.27220645256E+02  0.28812543177E+03  0.33849267020E+03  0.17306752224E+03 0.  0.
         24    2    3    3    0    0  0.37916140365E+02  0.38339936259E+02  0.10341645900E+03  0.14225493702E+03  0.81448871694E+02 0.  0.
         -6    2    1    2    0  503 -0.29456621716E+02  0.27220645256E+02  0.20548986015E+03  0.27212028804E+03  0.17382379713E+03 0.  0.
        -24    2    5    5    0    0  0.73571327455E+01  0.76380327326E+02  0.98511614543E+02  0.14867652800E+03  0.80697521490E+02 0.  0.
          4    1    4    4  501    0  0.54842367280E+02  0.41697790297E+02  0.10427369560E+03  0.12497757622E+03  0.00000000000E+00 0. -1.
         -3    1    4    4    0  501 -0.16926226915E+02 -0.33578540377E+01 -0.85723659936E+00  0.17277360791E+02  0.00000000000E+00 0.  1.
          5    1    3    3  502    0 -0.84595186487E+01 -0.65560581515E+02  0.18470897277E+03  0.19623773319E+03  0.47000000000E+01 0. -1.
         11    1    6    6    0    0  0.20241222905E+01  0.54204321454E+02  0.73893258116E+01  0.54743106153E+02  0.00000000000E+00 0. -1.
        -12    1    6    6    0    0  0.53330104550E+01  0.22176005872E+02  0.91122288731E+02  0.93933421851E+02  0.00000000000E+00 0.  1.
         -5    1    5    5    0  503 -0.36813754462E+02 -0.49159682069E+02  0.10697824560E+03  0.12344376003E+03  0.47000000000E+01 0.  1.
<mgrwt>
<rscale>  2 0.17820656E+03</rscale>
<asrwt>0</asrwt>
<pdfrwt beam="1">  1       21 0.84940631E-01 0.17839106E+03</pdfrwt>
<pdfrwt beam="2">  1       21 0.89998209E-02 0.17839106E+03</pdfrwt>
<totfact> 0.11787352E+05</totfact>
</mgrwt>
</event>
<event>
12    1  0.1473662E-001  0.1974598E+03  0.7546771E-02  0.1151944E+00
         21   -1    0    0  504  503  0.00000000000E+00  0.00000000000E+00  0.70840463216E+03  0.70840463216E+03  0.00000000000E+00 0. -1.
         21   -1    0    0  502  504 -0.00000000000E+00 -0.00000000000E+00 -0.62001230604E+02  0.62001230604E+02  0.00000000000E+00 0.  1.
          6    2    1    2  502    0  0.18418331778E+02  0.91811097641E+02  0.45294706102E+03  0.49411681159E+03  0.17384438678E+03 0.  0.
         24    2    3    3    0    0 -0.23927059409E+02  0.52286409559E+02  0.12448769799E+03  0.16055575829E+03  0.83514021402E+02 0.  0.
         -6    2    1    2    0  503 -0.18418331778E+02 -0.91811097641E+02  0.19345634054E+03  0.27628905118E+03  0.17361385748E+03 0.  0.
        -24    2    5    5    0    0  0.74676277296E+01 -0.12334209158E+03  0.18069438991E+03  0.23328621566E+03  0.80640925438E+02 0.  0.
          4    1    4    4  501    0 -0.20654558864E+02  0.71869217116E+02  0.11794248364E+03  0.13965036562E+03  0.00000000000E+00 0. -1.
         -3    1    4    4    0  501 -0.32725005444E+01 -0.19582807557E+02  0.65452143564E+01  0.20905392668E+02  0.00000000000E+00 0.  1.
          5    1    3    3  502    0  0.42345391187E+02  0.39524688082E+02  0.32845936302E+03  0.33356105330E+03  0.47000000000E+01 0. -1.
         11    1    6    6    0    0  0.27534852354E+02 -0.10845881202E+03  0.10452499386E+03  0.15312399009E+03  0.00000000000E+00 0. -1.
        -12    1    6    6    0    0 -0.20067224624E+02 -0.14883279555E+02  0.76169396050E+02  0.80162225575E+02  0.00000000000E+00 0.  1.
         -5    1    5    5    0  503 -0.25885959508E+02  0.31530993936E+02  0.12761950634E+02  0.43002835514E+02  0.47000000000E+01 0.  1.
<mgrwt>
<rscale>  2 0.19740908E+03</rscale>
<asrwt>0</asrwt>
<pdfrwt beam="1">  1       21 0.10898532E+00 0.19745983E+03</pdfrwt>
<pdfrwt beam="2">  1       21 0.95386514E-02 0.19745983E+03</pdfrwt>
<totfact> 0.58764338E+04</totfact>
</mgrwt>
</event>
<event>
12    1  0.1473662E-001  0.1818351E+03  0.7546771E-02  0.1166080E+00
         21   -1    0    0  504  503  0.00000000000E+00  0.00000000000E+00  0.23221205832E+03  0.23221205832E+03  0.00000000000E+00 0. -1.
         21   -1    0    0  502  504 -0.00000000000E+00 -0.00000000000E+00 -0.16379181603E+03  0.16379181603E+03  0.00000000000E+00 0. -1.
          6    2    1    2  502    0  0.48546501303E+02  0.25708676693E+02 -0.37606092885E+02  0.18551491896E+03  0.17315850567E+03 0.  0.
         24    2    3    3    0    0  0.73609423441E+02  0.68806379386E+02 -0.41501156405E+02  0.13528720187E+03  0.80172413858E+02 0.  0.
         -6    2    1    2    0  503 -0.48546501303E+02 -0.25708676693E+02  0.10602633517E+03  0.21048895540E+03  0.17333873702E+03 0.  0.
        -24    2    5    5    0    0 -0.58310716771E+02 -0.28769650189E+02  0.13963912996E+03  0.17504012699E+03  0.83139202402E+02 0.  0.
          4    1    4    4  501    0  0.50069184715E+02  0.52908649455E+02 -0.65605789061E+02  0.98032484430E+02  0.00000000000E+00 0. -1.
         -3    1    4    4    0  501  0.23540238726E+02  0.15897729931E+02  0.24104632655E+02  0.37254717442E+02  0.00000000000E+00 0.  1.
          5    1    3    3  502    0 -0.25062922138E+02 -0.43097702693E+02  0.38950635209E+01  0.50227717083E+02  0.47000000000E+01 0. -1.
         13    1    6    6    0    0 -0.14893669494E+02 -0.30634242956E+02  0.12441472758E+03  0.12899342104E+03  0.00000000000E+00 0. -1.
        -14    1    6    6    0    0 -0.43417047277E+02  0.18645927673E+01  0.15224402380E+02  0.46046705944E+02  0.00000000000E+00 0.  1.
         -5    1    5    5    0  503  0.97642154688E+01  0.30609734959E+01 -0.33612794790E+02  0.35448828416E+02  0.47000000000E+01 0.  1.
<mgrwt>
<rscale>  2 0.18179217E+03</rscale>
<asrwt>0</asrwt>
<pdfrwt beam="1">  1       21 0.35724932E-01 0.18183514E+03</pdfrwt>
<pdfrwt beam="2">  1       21 0.25198741E-01 0.18183514E+03</pdfrwt>
<totfact> 0.11315669E+05</totfact>
</mgrwt>
</event>
<event>
12    1  0.1473662E-001  0.2519851E+03  0.7546771E-02  0.1112163E+00
         21   -1    0    0  504  503  0.00000000000E+00  0.00000000000E+00  0.11006956075E+03  0.11006956075E+03  0.00000000000E+00 0.  1.
         21   -1    0    0  502  504 -0.00000000000E+00 -0.00000000000E+00 -0.79223269390E+03  0.79223269390E+03  0.00000000000E+00 0. -1.
          6    2    1    2  502    0  0.90645812802E+02 -0.15913454639E+03 -0.57681370707E+03  0.62918144894E+03  0.17208944124E+03 0.  0.
         24    2    3    3    0    0  0.25724120910E+02 -0.14820868031E+03 -0.30219537466E+03  0.34674292620E+03  0.79253196081E+02 0.  0.
         -6    2    1    2    0  503 -0.90645812802E+02  0.15913454639E+03 -0.10534942608E+03  0.27312080571E+03  0.17307803356E+03 0.  0.
        -24    2    5    5    0    0 -0.79370781953E+02  0.14607639183E+03 -0.14171429149E+03  0.23259753884E+03  0.79878917026E+02 0.  0.
          2    1    4    4  501    0 -0.11988433246E+02 -0.11667601998E+03 -0.17796205924E+03  0.21313730480E+03  0.00000000000E+00 0. -1.
         -1    1    4    4    0  501  0.37712554156E+02 -0.31532660328E+02 -0.12423331542E+03  0.13360562140E+03  0.00000000000E+00 0.  1.
          5    1    3    3  502    0  0.64921691892E+02 -0.10925866075E+02 -0.27461833241E+03  0.28243852273E+03  0.47000000000E+01 0. -1.
         13    1    6    6    0    0 -0.78563664664E+02  0.85400151033E+02 -0.12299264390E+03  0.16909354114E+03  0.00000000000E+00 0. -1.
        -14    1    6    6    0    0 -0.80711728857E+00  0.60676240792E+02 -0.18721647585E+02  0.63503997696E+02  0.00000000000E+00 0.  1.
         -5    1    5    5    0  503 -0.11275030849E+02  0.13058154563E+02  0.36364865411E+02  0.40523266867E+02  0.47000000000E+01 0.  1.
<mgrwt>
<rscale>  2 0.25181539E+03</rscale>
<asrwt>0</asrwt>
<pdfrwt beam="1">  1       21 0.16933779E-01 0.25198506E+03</pdfrwt>
<pdfrwt beam="2">  1       21 0.12188195E+00 0.25198506E+03</pdfrwt>
<totfact> 0.15400965E+04</totfact>
</mgrwt>
</event>
<event>
12    1  0.1473662E-001  0.3471102E+03  0.7546771E-02  0.1063968E+00
         21   -1    0    0  504  503  0.00000000000E+00  0.00000000000E+00  0.16770476258E+03  0.16770476258E+03  0.00000000000E+00 0. -1.
         21   -1    0    0  502  504 -0.00000000000E+00 -0.00000000000E+00 -0.84496883274E+03  0.84496883274E+03  0.00000000000E+00 0.  1.
          6    2    1    2  502    0 -0.27731447519E+03  0.11386386530E+03 -0.53766400537E+03  0.63997506498E+03  0.17497772187E+03 0.  0.
         24    2    3    3    0    0 -0.26491241418E+03  0.13322779550E+03 -0.53436751802E+03  0.61627422661E+03  0.79479842701E+02 0.  0.
         -6    2    1    2    0  503  0.27731447519E+03 -0.11386386530E+03 -0.13960006479E+03  0.37269853035E+03  0.17189449805E+03 0.  0.
        -24    2    5    5    0    0  0.22061286632E+03 -0.14864532254E+03 -0.11889323604E+03  0.30287242509E+03  0.82647659427E+02 0.  0.
          2    1    4    4  501    0 -0.14880082903E+03  0.33864798130E+02 -0.29807033106E+03  0.33486479889E+03  0.00000000000E+00 0. -1.
         -1    1    4    4    0  501 -0.11611158514E+03  0.99362997365E+02 -0.23629718696E+03  0.28140942773E+03  0.00000000000E+00 0.  1.
          5    1    3    3  502    0 -0.12402061016E+02 -0.19363930199E+02 -0.32964873473E+01  0.23700838361E+02  0.47000000000E+01 0. -1.
         13    1    6    6    0    0  0.75681499186E+02 -0.51428115653E+02  0.35879698687E+00  0.91502290321E+02  0.00000000000E+00 0. -1.
        -14    1    6    6    0    0  0.14493136713E+03 -0.97217206892E+02 -0.11925203302E+03  0.21137013477E+03  0.00000000000E+00 0.  1.
         -5    1    5    5    0  503  0.56701608877E+02  0.34781457248E+02 -0.20706828754E+02  0.69826105251E+02  0.47000000000E+01 0.  1.
<mgrwt>
<rscale>  2 0.34672357E+03</rscale>
<asrwt>0</asrwt>
<pdfrwt beam="1">  1       21 0.25800732E-01 0.34711021E+03</pdfrwt>
<pdfrwt beam="2">  1       21 0.12999521E+00 0.34711021E+03</pdfrwt>
<totfact> 0.56196365E+03</totfact>
</mgrwt>
</event>
<event>
12    1  0.1473662E-001  0.2092694E+03  0.7546771E-02  0.1142262E+00
         21   -1    0    0  504  503  0.00000000000E+00  0.00000000000E+00  0.26519845467E+03  0.26519845467E+03  0.00000000000E+00 0. -1.
         21   -1    0    0  502  504 -0.00000000000E+00 -0.00000000000E+00 -0.38402237451E+03  0.38402237451E+03  0.00000000000E+00 0. -1.
          6    2    1    2  502    0  0.11834145048E+03 -0.10724596792E+01 -0.30477802976E+03  0.36970708548E+03  0.17259151937E+03 0.  0.
         24    2    3    3    0    0 -0.24617961763E+01 -0.12569627717E+02 -0.16852060196E+03  0.18718644033E+03  0.80470579574E+02 0.  0.
         -6    2    1    2    0  503 -0.11834145048E+03  0.10724596792E+01  0.18595410992E+03  0.27951374369E+03  0.17188121724E+03 0.  0.
        -24    2    5    5    0    0 -0.13162473121E+03  0.38063266637E+02  0.11255690114E+03  0.19612306313E+03  0.83793303815E+02 0.  0.
          2    1    4    4  501    0  0.17910111605E+02 -0.41757636210E+02 -0.84600441814E+02  0.96029719539E+02  0.00000000000E+00 0. -1.
         -1    1    4    4    0  501 -0.20371907781E+02  0.29188008493E+02 -0.83920160150E+02  0.91156720795E+02  0.00000000000E+00 0.  1.
          5    1    3    3  502    0  0.12080324666E+03  0.11497168038E+02 -0.13625742780E+03  0.18252064515E+03  0.47000000000E+01 0. -1.
         11    1    6    6    0    0 -0.94475175155E+02  0.41856037427E+02  0.11967017716E+03  0.15810894311E+03  0.00000000000E+00 0. -1.
        -12    1    6    6    0    0 -0.37149556059E+02 -0.37927707900E+01 -0.71132760174E+01  0.38014120026E+02  0.00000000000E+00 0.  1.
         -5    1    5    5    0  503  0.13283280731E+02 -0.36990806957E+02  0.73397208783E+02  0.83390680555E+02  0.47000000000E+01 0.  1.
<mgrwt>
<rscale>  2 0.20912289E+03</rscale>
<asrwt>0</asrwt>
<pdfrwt beam="1">  1       21 0.40799762E-01 0.20926940E+03</pdfrwt>
<pdfrwt beam="2">  1       21 0.59080365E-01 0.20926940E+03</pdfrwt>
<totfact> 0.15339290E+04</totfact>
</mgrwt>
</event>
<event>
12    1  0.1473662E-001  0.1754015E+03  0.7546771E-02  0.1172856E+00
         21   -1    0    0  504  503  0.00000000000E+00  0.00000000000E+00  0.15141814131E+03  0.15141814131E+03  0.00000000000E+00 0. -1.
         21   -1    0    0  502  504 -0.00000000000E+00 -0.00000000000E+00 -0.59644312654E+03  0.59644312654E+03  0.00000000000E+00 0. -1.
          6    2    1    2  502    0 -0.24040882790E+02  0.22301962931E+01 -0.52752242145E+03  0.55591870556E+03  0.17373187455E+03 0.  0.
         24    2    3    3    0    0 -0.14609923955E+02 -0.65087456028E+02 -0.36782151052E+03  0.38228955981E+03  0.80017605148E+02 0.  0.
         -6    2    1    2    0  503  0.24040882790E+02 -0.22301962931E+01  0.82497436214E+02  0.19194256229E+03  0.17161929500E+03 0.  0.
        -24    2    5    5    0    0  0.27661679311E+02  0.17834834813E+02 -0.18609581105E+02  0.88693181706E+02  0.80230381634E+02 0.  0.
          4    1    4    4  501    0 -0.57819183736E+01 -0.27056560838E+02 -0.31698882136E+03  0.31819396746E+03  0.00000000000E+00 0. -1.
         -3    1    4    4    0  501 -0.88280055819E+01 -0.38030895191E+02 -0.50832689157E+02  0.64095592349E+02  0.00000000000E+00 0.  1.
          5    1    3    3  502    0 -0.94309588344E+01  0.67317652321E+02 -0.15970091093E+03  0.17362914574E+03  0.47000000000E+01 0. -1.
         11    1    6    6    0    0  0.49551214289E+02 -0.99898514372E+01 -0.16713088526E+02  0.53239527584E+02  0.00000000000E+00 0. -1.
        -12    1    6    6    0    0 -0.21889534978E+02  0.27824686251E+02 -0.18964925789E+01  0.35453654122E+02  0.00000000000E+00 0.  1.
         -5    1    5    5    0  503 -0.36207965212E+01 -0.20065031107E+02  0.10110701732E+03  0.10324938059E+03  0.47000000000E+01 0.  1.
<mgrwt>
<rscale>  2 0.17487613E+03</rscale>
<asrwt>0</asrwt>
<pdfrwt beam="1">  1       21 0.23295098E-01 0.17540155E+03</pdfrwt>
<pdfrwt beam="2">  1       21 0.91760482E-01 0.17540155E+03</pdfrwt>
<totfact> 0.17593842E+04</totfact>
</mgrwt>
</event>
<event>
12    1  0.1473662E-001  0.2339111E+03  0.7546771E-02  0.1123959E+00
         21   -1    0    0  504  503  0.00000000000E+00  0.00000000000E+00  0.29407538300E+03  0.29407538300E+03  0.00000000000E+00 0. -1.
         21   -1    0    0  502  504 -0.00000000000E+00 -0.00000000000E+00 -0.19259065081E+03  0.19259065081E+03  0.00000000000E+00 0.  1.
          6    2    1    2  502    0 -0.14661875829E+03  0.56217949001E+02  0.52371866538E+01  0.23372732133E+03  0.17304194445E+03 0.  0.
         24    2    3    3    0    0 -0.11431250379E+02  0.32745401005E+02  0.29142187003E+02  0.94371080538E+02  0.82787070285E+02 0.  0.
         -6    2    1    2    0  503  0.14661875829E+03 -0.56217949001E+02  0.96247545531E+02  0.25293871248E+03  0.17336921347E+03 0.  0.
        -24    2    5    5    0    0  0.13749785846E+03 -0.79081472759E+02  0.12313956847E+03  0.21618000698E+03  0.80068106525E+02 0.  0.
          4    1    4    4  501    0 -0.45783196164E+02  0.59510668747E+01  0.16094260915E+02  0.48893163964E+02  0.00000000000E+00 0. -1.
         -3    1    4    4    0  501  0.34351945786E+02  0.26794334130E+02  0.13047926088E+02  0.45477916575E+02  0.00000000000E+00 0.  1.
          5    1    3    3  502    0 -0.13518750791E+03  0.23472547996E+02 -0.23905000349E+02  0.13935624079E+03  0.47000000000E+01 0. -1.
         13    1    6    6    0    0  0.23623130695E+02 -0.56923647775E+02  0.40560673586E+02  0.73780229206E+02  0.00000000000E+00 0. -1.
        -14    1    6    6    0    0  0.11387472776E+03 -0.22157824984E+02  0.82578894880E+02  0.14239977778E+03  0.00000000000E+00 0.  1.
         -5    1    5    5    0  503  0.91208998304E+01  0.22863523758E+02 -0.26892022935E+02  0.36758705498E+02  0.47000000000E+01 0.  1.
<mgrwt>
<rscale>  2 0.23385046E+03</rscale>
<asrwt>0</asrwt>
<pdfrwt beam="1">  1       21 0.45242367E-01 0.23391110E+03</pdfrwt>
<pdfrwt beam="2">  1       21 0.29629331E-01 0.23391110E+03</pdfrwt>
<totfact> 0.50205028E+04</totfact>
</mgrwt>
</event>
<event>
12    1  0.1473662E-001  0.2202138E+03  0.7546771E-02  0.1133911E+00
         21   -1    0    0  504  503  0.00000000000E+00  0.00000000000E+00  0.26327511369E+03  0.26327511369E+03  0.00000000000E+00 0. -1.
         21   -1    0    0  502  504 -0.00000000000E+00 -0.00000000000E+00 -0.36775708032E+03  0.36775708032E+03  0.00000000000E+00 0. -1.
          6    2    1    2  502    0 -0.99860777751E+02 -0.92224004793E+02 -0.27560160469E+03  0.35214864991E+03  0.17197379198E+03 0.  0.
         24    2    3    3    0    0 -0.68671507695E+02  0.13331210873E+01 -0.78767875542E+02  0.13194121747E+03  0.80539142466E+02 0.  0.
         -6    2    1    2    0  503  0.99860777751E+02  0.92224004793E+02  0.17111963805E+03  0.27888354410E+03  0.17325316347E+03 0.  0.
        -24    2    5    5    0    0  0.60148272459E+02  0.12154900876E+03  0.16556895738E+03  0.22898425563E+03  0.81417034257E+02 0.  0.
          4    1    4    4  501    0 -0.17295348496E+02  0.11129903171E+02 -0.76903378412E+02  0.79606114309E+02  0.00000000000E+00 0. -1.
         -3    1    4    4    0  501 -0.51376159199E+02 -0.97967820841E+01 -0.18644971295E+01  0.52335103161E+02  0.00000000000E+00 0.  1.
          5    1    3    3  502    0 -0.31189270056E+02 -0.93557125881E+02 -0.19683372915E+03  0.22020743244E+03  0.47000000000E+01 0. -1.
         13    1    6    6    0    0  0.79493270348E+02  0.88069101771E+02  0.11404491798E+03  0.16456485055E+03  0.00000000000E+00 0. -1.
        -14    1    6    6    0    0 -0.19344997889E+02  0.33479906991E+02  0.51524039397E+02  0.64419405084E+02  0.00000000000E+00 0.  1.
         -5    1    5    5    0  503  0.39712505293E+02 -0.29325003969E+02  0.55506806740E+01  0.49899288475E+02  0.47000000000E+01 0.  1.
<mgrwt>
<rscale>  2 0.21996205E+03</rscale>
<asrwt>0</asrwt>
<pdfrwt beam="1">  1       21 0.40503864E-01 0.22021376E+03</pdfrwt>
<pdfrwt beam="2">  1       21 0.56578012E-01 0.22021376E+03</pdfrwt>
<totfact> 0.16968359E+04</totfact>
</mgrwt>
</event>
<event>
12    1  0.1473662E-001  0.2744172E+03  0.7546771E-02  0.1098951E+00
         21   -1    0    0  504  503  0.00000000000E+00  0.00000000000E+00  0.28370120561E+03  0.28370120561E+03  0.00000000000E+00 0. -1.
         21   -1    0    0  502  504 -0.00000000000E+00 -0.00000000000E+00 -0.26564555572E+03  0.26564555572E+03  0.00000000000E+00 0.  1.
          6    2    1    2  502    0 -0.11252811006E+03  0.17927763418E+03 -0.10913430210E+02  0.27463412881E+03  0.17464751954E+03 0.  0.
         24    2    3    3    0    0 -0.21348035769E+02  0.17353693528E+02  0.19475167776E+02  0.86276157414E+02  0.79419165621E+02 0.  0.
         -6    2    1    2    0  503  0.11252811006E+03 -0.17927763418E+03  0.28969080105E+02  0.27471263251E+03  0.17269851531E+03 0.  0.
        -24    2    5    5    0    0  0.51608693561E+02 -0.18717496764E+03  0.91791820199E+01  0.21000348904E+03  0.79493913397E+02 0.  0.
          4    1    4    4  501    0 -0.15618959690E+02 -0.22992230217E+02  0.33178767873E+02  0.43283082027E+02  0.00000000000E+00 0. -1.
         -3    1    4    4    0  501 -0.57290760788E+01  0.40345923745E+02 -0.13703600098E+02  0.42993075387E+02  0.00000000000E+00 0.  1.
          5    1    3    3  502    0 -0.91180074291E+02  0.16192394065E+03 -0.30388597986E+02  0.18835797140E+03  0.47000000000E+01 0. -1.
         13    1    6    6    0    0  0.45021132285E+02 -0.59540181198E+02 -0.23187778053E+02  0.78163985187E+02  0.00000000000E+00 0. -1.
        -14    1    6    6    0    0  0.65875612756E+01 -0.12763478644E+03  0.32366960072E+02  0.13183950385E+03  0.00000000000E+00 0.  1.
         -5    1    5    5    0  503  0.60919416499E+02  0.78973334587E+01  0.19789898085E+02  0.64709143470E+02  0.47000000000E+01 0.  1.
<mgrwt>
<rscale>  2 0.27410761E+03</rscale>
<asrwt>0</asrwt>
<pdfrwt beam="1">  1       21 0.43646340E-01 0.27441720E+03</pdfrwt>
<pdfrwt beam="2">  1       21 0.40868547E-01 0.27441720E+03</pdfrwt>
<totfact> 0.27968557E+04</totfact>
</mgrwt>
</event>
<event>
12    1  0.1473662E-001  0.1825290E+03  0.7546771E-02  0.1165460E+00
         21   -1    0    0  504  503  0.00000000000E+00  0.00000000000E+00  0.95745588091E+02  0.95745588091E+02  0.00000000000E+00 0.  1.
         21   -1    0    0  502  504 -0.00000000000E+00 -0.00000000000E+00 -0.42638978000E+03  0.42638978000E+03  0.00000000000E+00 0.  1.
          6    2    1    2  502    0 -0.51430412027E+02 -0.23791900215E+02 -0.27762274689E+03  0.33206140193E+03  0.17314515086E+03 0.  0.
         24    2    3    3    0    0  0.11168672125E+02 -0.66105049557E+02 -0.13121487970E+03  0.16723906874E+03  0.79100851103E+02 0.  0.
         -6    2    1    2    0  503  0.51430412027E+02  0.23791900215E+02 -0.53021445022E+02  0.19007396616E+03  0.17350993396E+03 0.  0.
        -24    2    5    5    0    0  0.79634873693E+02 -0.19613249482E+02 -0.70369092191E+02  0.13527862384E+03  0.81376312694E+02 0.  0.
          4    1    4    4  501    0  0.36437372485E+02 -0.41087261337E+01 -0.49469058722E+02  0.61577199635E+02  0.00000000000E+00 0. -1.
         -3    1    4    4    0  501 -0.25268700360E+02 -0.61996323423E+02 -0.81745820974E+02  0.10566186910E+03  0.00000000000E+00 0.  1.
          5    1    3    3  502    0 -0.62599084152E+02  0.42313149342E+02 -0.14640786719E+03  0.16482233319E+03  0.47000000000E+01 0. -1.
         13    1    6    6    0    0  0.43234337861E+02  0.12406556832E+02 -0.74070717928E+02  0.86657959110E+02  0.00000000000E+00 0. -1.
        -14    1    6    6    0    0  0.36400535832E+02 -0.32019806313E+02  0.37016257378E+01  0.48620664725E+02  0.00000000000E+00 0.  1.
         -5    1    5    5    0  503 -0.28204461667E+02  0.43405149696E+02  0.17347647169E+02  0.54795342324E+02  0.47000000000E+01 0.  1.
<mgrwt>
<rscale>  2 0.18244227E+03</rscale>
<asrwt>0</asrwt>
<pdfrwt beam="1">  1       21 0.14730090E-01 0.18252901E+03</pdfrwt>
<pdfrwt beam="2">  1       21 0.65598429E-01 0.18252901E+03</pdfrwt>
<totfact> 0.86976780E+04</totfact>
</mgrwt>
</event>
<event>
12    1  0.1473662E-001  0.2377128E+03  0.7546771E-02  0.1121650E+00
         21   -1    0    0  504  503  0.00000000000E+00  0.00000000000E+00  0.20796051512E+03  0.20796051512E+03  0.00000000000E+00 0.  1.
         21   -1    0    0  502  504 -0.00000000000E+00 -0.00000000000E+00 -0.28047490889E+03  0.28047490889E+03  0.00000000000E+00 0. -1.
          6    2    1    2  502    0 -0.16164276834E+03  0.33764689105E+01  0.11824505285E+02  0.23800673445E+03  0.17426302425E+03 0.  0.
         24    2    3    3    0    0 -0.18635298695E+03  0.70460843414E+01  0.32236261473E+02  0.20540626249E+03  0.79846559538E+02 0.  0.
         -6    2    1    2    0  503  0.16164276834E+03 -0.33764689105E+01 -0.84338899054E+02  0.25042868955E+03  0.17164408979E+03 0.  0.
        -24    2    5    5    0    0  0.13552918008E+03  0.83091771726E+01 -0.12507159363E+03  0.20043152740E+03  0.78055701685E+02 0.  0.
          2    1    4    4  501    0 -0.16167804769E+03  0.11825937378E+02 -0.29843457381E+01  0.16213744238E+03  0.00000000000E+00 0. -1.
         -1    1    4    4    0  501 -0.24674939254E+02 -0.47798530361E+01  0.35220607211E+02  0.43268820120E+02  0.00000000000E+00 0.  1.
          5    1    3    3  502    0  0.24710218609E+02 -0.36696154309E+01 -0.20411756188E+02  0.32600471957E+02  0.47000000000E+01 0. -1.
         11    1    6    6    0    0  0.12305306080E+03 -0.20587379410E+02 -0.94074345381E+02  0.15625581084E+03  0.00000000000E+00 0. -1.
        -12    1    6    6    0    0  0.12476119280E+02  0.28896556583E+02 -0.30997248247E+02  0.44175716559E+02  0.00000000000E+00 0.  1.
         -5    1    5    5    0  503  0.26113588258E+02 -0.11685646083E+02  0.40732694574E+02  0.49997162153E+02  0.47000000000E+01 0.  1.
<mgrwt>
<rscale>  2 0.23723308E+03</rscale>
<asrwt>0</asrwt>
<pdfrwt beam="1">  1       21 0.31993925E-01 0.23771282E+03</pdfrwt>
<pdfrwt beam="2">  1       21 0.43149986E-01 0.23771282E+03</pdfrwt>
<totfact> 0.47521191E+04</totfact>
</mgrwt>
</event>
<event>
12    1  0.1473662E-001  0.2268548E+03  0.7546771E-02  0.1128967E+00
         21   -1    0    0  504  503  0.00000000000E+00  0.00000000000E+00  0.94844811708E+02  0.94844811708E+02  0.00000000000E+00 0.  1.
         21   -1    0    0  502  504 -0.00000000000E+00 -0.00000000000E+00 -0.10667568159E+04  0.10667568159E+04  0.00000000000E+00 0. -1.
          6    2    1    2  502    0 -0.19294726478E+02  0.14584773359E+03 -0.89384767424E+03  0.92218587260E+03  0.17268257298E+03 0.  0.
         24    2    3    3    0    0  0.24172360453E+02  0.33763144798E+02 -0.55904876040E+03  0.56642648003E+03  0.81112192786E+02 0.  0.
         -6    2    1    2    0  503  0.19294726478E+02 -0.14584773359E+03 -0.78064329997E+02  0.23941575506E+03  0.17199423330E+03 0.  0.
        -24    2    5    5    0    0 -0.16649614275E+01 -0.27395660500E+02  0.14738505356E+02  0.87413589332E+02  0.81673849847E+02 0.  0.
          4    1    4    4  501    0  0.17838270400E+02  0.46050412371E+02 -0.54301588943E+03  0.54525691243E+03  0.00000000000E+00 0. -1.
         -3    1    4    4    0  501  0.63340900528E+01 -0.12287267572E+02 -0.16032870969E+02  0.21169567607E+02  0.00000000000E+00 0.  1.
          5    1    3    3  502    0 -0.43467086931E+02  0.11208458879E+03 -0.33479891384E+03  0.35575939257E+03  0.47000000000E+01 0. -1.
         11    1    6    6    0    0 -0.82043992342E+01  0.27951342094E+02  0.12321405906E+02  0.31629206995E+02  0.00000000000E+00 0. -1.
        -12    1    6    6    0    0  0.65394378067E+01 -0.55347002594E+02  0.24170994505E+01  0.55784382337E+02  0.00000000000E+00 0.  1.
         -5    1    5    5    0  503  0.20959687906E+02 -0.11845207309E+03 -0.92802835353E+02  0.15200216573E+03  0.47000000000E+01 0.  1.
<mgrwt>
<rscale>  2 0.22672385E+03</rscale>
<asrwt>0</asrwt>
<pdfrwt beam="1">  1       21 0.14591510E-01 0.22685484E+03</pdfrwt>
<pdfrwt beam="2">  1       21 0.16411642E+00 0.22685484E+03</pdfrwt>
<totfact> 0.94474503E+03</totfact>
</mgrwt>
</event>
<event>
12    1  0.1473662E-001  0.3127175E+03  0.7546771E-02  0.1079129E+00
         21   -1    0    0  504  503  0.00000000000E+00  0.00000000000E+00  0.58645610009E+03  0.58645610009E+03  0.00000000000E+00 0.  1.
         21   -1    0    0  502  504 -0.00000000000E+00 -0.00000000000E+00 -0.18354294640E+03  0.18354294640E+03  0.00000000000E+00 0.  1.
          6    2    1    2  502    0  0.14813093956E+03 -0.21439481660E+03  0.31893424383E+03  0.44620179244E+03  0.17166559077E+03 0.  0.
         24    2    3    3    0    0  0.43828717943E+02 -0.14852678440E+03  0.12895242070E+03  0.21963450835E+03  0.87346598414E+02 0.  0.
         -6    2    1    2    0  503 -0.14813093956E+03  0.21439481660E+03  0.83978909861E+02  0.32379725405E+03  0.17287073723E+03 0.  0.
        -24    2    5    5    0    0 -0.17131106328E+03  0.14554016282E+03  0.75781996403E+02  0.25053361456E+03  0.80590084070E+02 0.  0.
          4    1    4    4  501    0  0.18554548439E+02 -0.12361175601E+03  0.13461111044E+03  0.18369618545E+03  0.00000000000E+00 0. -1.
         -3    1    4    4    0  501  0.25274169504E+02 -0.24915028390E+02 -0.56586897464E+01  0.35938322908E+02  0.00000000000E+00 0.  1.
          5    1    3    3  502    0  0.10430222162E+03 -0.65868032193E+02  0.18998182313E+03  0.22656728409E+03  0.47000000000E+01 0. -1.
         11    1    6    6    0    0  0.74383547401E+01  0.26953449374E+01  0.93965514791E+01  0.12283695912E+02  0.00000000000E+00 0. -1.
        -12    1    6    6    0    0 -0.17874941802E+03  0.14284481788E+03  0.66385444924E+02  0.23824991865E+03  0.00000000000E+00 0.  1.
         -5    1    5    5    0  503  0.23180123712E+02  0.68854653775E+02  0.81969134579E+01  0.73263639495E+02  0.47000000000E+01 0.  1.
<mgrwt>
<rscale>  2 0.31255117E+03</rscale>
<asrwt>0</asrwt>
<pdfrwt beam="1">  1       21 0.90224015E-01 0.31271745E+03</pdfrwt>
<pdfrwt beam="2">  1       21 0.28237377E-01 0.31271745E+03</pdfrwt>
<totfact> 0.11730844E+04</totfact>
</mgrwt>
</event>
<event>
12    1  0.1473662E-001  0.1852997E+03  0.7546771E-02  0.1164653E+00
         21   -1    0    0  504  503  0.00000000000E+00  0.00000000000E+00  0.43042012860E+03  0.43042012860E+03  0.00000000000E+00 0.  1.
         21   -1    0    0  502  504 -0.00000000000E+00 -0.00000000000E+00 -0.14059504198E+03  0.14059504198E+03  0.00000000000E+00 0.  1.
          6    2    1    2  502    0 -0.33747623773E+02 -0.17546476195E+02 -0.49683754778E+02  0.18423069225E+03  0.17327922998E+03 0.  0.
         24    2    3    3    0    0 -0.52407222992E+02 -0.75844263667E+01  0.30437473025E+02  0.10123114873E+03  0.80729580483E+02 0.  0.
         -6    2    1    2    0  503  0.33747623773E+02  0.17546476195E+02  0.33950884140E+03  0.38678447832E+03  0.18135379330E+03 0.  0.
        -24    2    5    5    0    0  0.47502444219E+02 -0.54085532023E+02  0.16499928653E+03  0.19758613153E+03  0.81448068350E+02 0.  0.
          4    1    4    4  501    0 -0.26523444296E+02  0.20680187828E+02  0.48373182738E+02  0.58916280213E+02  0.00000000000E+00 0. -1.
         -3    1    4    4    0  501 -0.25883778695E+02 -0.28264614194E+02 -0.17935709713E+02  0.42314868522E+02  0.00000000000E+00 0.  1.
          5    1    3    3  502    0  0.18659599219E+02 -0.99620498285E+01 -0.80121227803E+02  0.82999543520E+02  0.47000000000E+01 0. -1.
         11    1    6    6    0    0 -0.20714141818E+02 -0.10157208271E+02  0.64010139771E+02  0.68040741799E+02  0.00000000000E+00 0. -1.
        -12    1    6    6    0    0  0.68216586037E+02 -0.43928323753E+02  0.10098914676E+03  0.12954538973E+03  0.00000000000E+00 0.  1.
         -5    1    5    5    0  503 -0.13754820447E+02  0.71632008218E+02  0.17450955487E+03  0.18919834679E+03  0.47000000000E+01 0.  1.
<mgrwt>
<rscale>  2 0.18329364E+03</rscale>
<asrwt>0</asrwt>
<pdfrwt beam="1">  1       21 0.66218481E-01 0.18529970E+03</pdfrwt>
<pdfrwt beam="2">  1       21 0.21630007E-01 0.18529970E+03</pdfrwt>
<totfact> 0.41865895E+04</totfact>
</mgrwt>
</event>
<event>
12    1  0.1473662E-001  0.1916712E+03  0.7546771E-02  0.1157889E+00
         21   -1    0    0  504  503  0.00000000000E+00  0.00000000000E+00  0.62843558894E+02  0.62843558894E+02  0.00000000000E+00 0. -1.
         21   -1    0    0  502  504 -0.00000000000E+00 -0.00000000000E+00 -0.61368327566E+03  0.61368327566E+03  0.00000000000E+00 0. -1.
          6    2    1    2  502    0  0.71087644603E+02  0.25054799480E+02 -0.36065539029E+03  0.40651218968E+03  0.17175172086E+03 0.  0.
         24    2    3    3    0    0 -0.30152833652E+01  0.39543112164E+02 -0.28535332140E+03  0.29977116328E+03  0.82846138392E+02 0.  0.
         -6    2    1    2    0  503 -0.71087644603E+02 -0.25054799480E+02 -0.19018432647E+03  0.27001464487E+03  0.17622892560E+03 0.  0.
        -24    2    5    5    0    0 -0.43563987468E+02  0.56251974499E+01 -0.15657249676E+02  0.90625112153E+02  0.77706483867E+02 0.  0.
          2    1    4    4  501    0  0.76065828320E+01  0.59013838510E+02 -0.25686616502E+03  0.26366782127E+03  0.00000000000E+00 0. -1.
         -1    1    4    4    0  501 -0.10621866197E+02 -0.19470726346E+02 -0.28487156372E+02  0.36103342008E+02  0.00000000000E+00 0.  1.
          5    1    3    3  502    0  0.74102927968E+02 -0.14488312684E+02 -0.75302068896E+02  0.10674102640E+03  0.47000000000E+01 0. -1.
         11    1    6    6    0    0 -0.38090126279E+02  0.37611548470E+02 -0.21436999225E+02  0.57663083806E+02  0.00000000000E+00 0. -1.
        -12    1    6    6    0    0 -0.54738611882E+01 -0.31986351020E+02  0.57797495495E+01  0.32962028347E+02  0.00000000000E+00 0.  1.
         -5    1    5    5    0  503 -0.27523657136E+02 -0.30679996930E+02 -0.17452707680E+03  0.17938953272E+03  0.47000000000E+01 0.  1.
<mgrwt>
<rscale>  2 0.19063573E+03</rscale>
<asrwt>0</asrwt>
<pdfrwt beam="1">  1       21 0.96682397E-02 0.19167115E+03</pdfrwt>
<pdfrwt beam="2">  1       21 0.94412813E-01 0.19167115E+03</pdfrwt>
<totfact> 0.80982929E+04</totfact>
</mgrwt>
</event>
<event>
12    1  0.1473662E-001  0.2190337E+03  0.7546771E-02  0.1134612E+00
         21   -1    0    0  504  503  0.00000000000E+00  0.00000000000E+00  0.25322509207E+03  0.25322509207E+03  0.00000000000E+00 0. -1.
         21   -1    0    0  502  504 -0.00000000000E+00 -0.00000000000E+00 -0.22321355981E+03  0.22321355981E+03  0.00000000000E+00 0. -1.
          6    2    1    2  502    0  0.12886776375E+03 -0.37274354481E+02 -0.77672866928E+02  0.23239800004E+03  0.17314582909E+03 0.  0.
         24    2    3    3    0    0  0.21836037047E+00  0.94049870878E+01 -0.36320547018E+02  0.89353481513E+02  0.81094765919E+02 0.  0.
         -6    2    1    2    0  503 -0.12886776375E+03  0.37274354481E+02  0.10768439919E+03  0.24404065185E+03  0.17310006323E+03 0.  0.
        -24    2    5    5    0    0 -0.21666110982E+01  0.21110852397E+02  0.12755594316E+02  0.84830071553E+02  0.81136142136E+02 0.  0.
          4    1    4    4  501    0 -0.40127987526E+01  0.42480758817E+02 -0.39038273843E+01  0.42848072206E+02  0.00000000000E+00 0. -1.
         -3    1    4    4    0  501  0.42311591231E+01 -0.33075771730E+02 -0.32416719634E+02  0.46505409307E+02  0.00000000000E+00 0.  1.
          5    1    3    3  502    0  0.12864940338E+03 -0.46679341569E+02 -0.41352319910E+02  0.14304451853E+03  0.47000000000E+01 0. -1.
         13    1    6    6    0    0 -0.38863616558E+02 -0.18241722805E+01  0.14499520393E+02  0.41520409296E+02  0.00000000000E+00 0. -1.
        -14    1    6    6    0    0  0.36697005460E+02  0.22935024678E+02 -0.17439260771E+01  0.43309662257E+02  0.00000000000E+00 0.  1.
         -5    1    5    5    0  503 -0.12670115265E+03  0.16163502084E+02  0.94928804875E+02  0.15921058029E+03  0.47000000000E+01 0.  1.
<mgrwt>
<rscale>  2 0.21902464E+03</rscale>
<asrwt>0</asrwt>
<pdfrwt beam="1">  1       21 0.38957707E-01 0.21903369E+03</pdfrwt>
<pdfrwt beam="2">  1       21 0.34340548E-01 0.21903369E+03</pdfrwt>
<totfact> 0.51273641E+04</totfact>
</mgrwt>
</event>
<event>
12    1  0.1473662E-001  0.2138366E+03  0.7546771E-02  0.1138872E+00
         21   -1    0    0  504  503  0.00000000000E+00  0.00000000000E+00  0.29887619463E+03  0.29887619463E+03  0.00000000000E+00 0. -1.
         21   -1    0    0  502  504 -0.00000000000E+00 -0.00000000000E+00 -0.27555438739E+03  0.27555438739E+03  0.00000000000E+00 0. -1.
          6    2    1    2  502    0  0.62521964443E+02 -0.10747932110E+03 -0.18079583693E+03  0.27881240760E+03  0.17201285848E+03 0.  0.
         24    2    3    3    0    0  0.43147136431E+02  0.30545787170E+01 -0.40464998427E+02  0.99068252750E+02  0.79410936098E+02 0.  0.
         -6    2    1    2    0  503 -0.62521964443E+02  0.10747932110E+03  0.20411764416E+03  0.29561817442E+03  0.17396922683E+03 0.  0.
        -24    2    5    5    0    0 -0.42701184583E+02  0.41526708432E+02  0.28294214953E+02  0.10673043344E+03  0.83922369751E+02 0.  0.
          4    1    4    4  501    0 -0.48204379849E+01  0.17046381442E+02 -0.45521058161E+02  0.48846519617E+02  0.00000000000E+00 0. -1.
         -3    1    4    4    0  501  0.47967574416E+02 -0.13991802725E+02  0.50560597337E+01  0.50221733133E+02  0.00000000000E+00 0.  1.
          5    1    3    3  502    0  0.19374828013E+02 -0.11053389982E+03 -0.14033083850E+03  0.17974415485E+03  0.47000000000E+01 0. -1.
         13    1    6    6    0    0  0.13476061974E+02  0.40035524886E+02  0.27728857406E+02  0.50530555432E+02  0.00000000000E+00 0. -1.
        -14    1    6    6    0    0 -0.56177246556E+02  0.14911835467E+01  0.56535754670E+00  0.56199878009E+02  0.00000000000E+00 0.  1.
         -5    1    5    5    0  503 -0.19820779861E+02  0.65952612672E+02  0.17582342921E+03  0.18888774098E+03  0.47000000000E+01 0.  1.
<mgrwt>
<rscale>  2 0.21343835E+03</rscale>
<asrwt>0</asrwt>
<pdfrwt beam="1">  1       21 0.45980953E-01 0.21383660E+03</pdfrwt>
<pdfrwt beam="2">  1       21 0.42392983E-01 0.21383660E+03</pdfrwt>
<totfact> 0.23978959E+04</totfact>
</mgrwt>
</event>
<event>
12    1  0.1473662E-001  0.2033347E+03  0.7546771E-02  0.1147303E+00
         21   -1    0    0  504  503  0.00000000000E+00  0.00000000000E+00  0.54487875113E+03  0.54487875113E+03  0.00000000000E+00 0. -1.
         21   -1    0    0  502  504 -0.00000000000E+00 -0.00000000000E+00 -0.29372035026E+03  0.29372035026E+03  0.00000000000E+00 0. -1.
          6    2    1    2  502    0 -0.11320400176E+02 -0.10180900889E+03 -0.23616977263E+03  0.31055197440E+03  0.17370417827E+03 0.  0.
         24    2    3    3    0    0 -0.30139595692E+01 -0.40084787376E+02 -0.35414251241E+02  0.10030510559E+03  0.84800182105E+02 0.  0.
         -6    2    1    2    0  503  0.11320400176E+02  0.10180900889E+03  0.48732817349E+03  0.52804712700E+03  0.17564678732E+03 0.  0.
        -24    2    5    5    0    0  0.40119009532E+02  0.17785880059E+02  0.36820282667E+03  0.37937909299E+03  0.80182929434E+02 0.  0.
          2    1    4    4  501    0 -0.24325332123E+02  0.39499465735E+01 -0.44196001704E+02  0.50602474519E+02  0.00000000000E+00 0. -1.
         -1    1    4    4    0  501  0.21311372553E+02 -0.44034733950E+02  0.87817504634E+01  0.49702631071E+02  0.00000000000E+00 0.  1.
          5    1    3    3  502    0 -0.83064406067E+01 -0.61724221515E+02 -0.20075552138E+03  0.21024686881E+03  0.47000000000E+01 0. -1.
         11    1    6    6    0    0 -0.11061107363E+02  0.27470079056E+02  0.61193002784E+02  0.67981886773E+02  0.00000000000E+00 0. -1.
        -12    1    6    6    0    0  0.51180116895E+02 -0.96841989976E+01  0.30700982389E+03  0.31139720622E+03  0.00000000000E+00 0.  1.
         -5    1    5    5    0  503 -0.28798609356E+02  0.84023128832E+02  0.11912534682E+03  0.14866803400E+03  0.47000000000E+01 0.  1.
<mgrwt>
<rscale>  2 0.20291452E+03</rscale>
<asrwt>0</asrwt>
<pdfrwt beam="1">  1       21 0.83827500E-01 0.20333475E+03</pdfrwt>
<pdfrwt beam="2">  1       21 0.45187746E-01 0.20333475E+03</pdfrwt>
<totfact> 0.57640738E+03</totfact>
</mgrwt>
</event>
