<event>
12    1  0.2769346E-001  0.2056612E+03  0.7546771E-02  0.1145074E+00
         21   -1    0    0  504  503  0.00000000000E+00  0.00000000000E+00  0.13986858481E+04  0.13986858481E+04  0.00000000000E+00 0.  1.
         21   -1    0    0  502  504 -0.00000000000E+00 -0.00000000000E+00 -0.11013524615E+03  0.11013524615E+03  0.00000000000E+00 0.  1.
          6    2    1    2  502    0 -0.85071557340E+02  0.69233164948E+02  0.17088335775E+01  0.20566832865E+03  0.17397166522E+03 0.  0.
         24    2    3    3    0    0 -0.48936291358E+02 -0.66647601717E+01 -0.49663387969E+02  0.10704050483E+03  0.80944659667E+02 0.  0.
         -6    2    1    2    0  503  0.85071557340E+02 -0.69233164948E+02  0.12868417684E+04  0.13031527656E+04  0.17382460324E+03 0.  0.
        -24    2    5    5    0    0  0.73781071868E+02  0.98058350670E+01  0.97468699830E+03  0.98091476496E+03  0.81481473294E+02 0.  0.
          2    1    4    4  501    0  0.11294495317E+02 -0.21008256856E+02 -0.36720437171E+02  0.43787018471E+02  0.00000000000E+00 0. -1.
         -1    1    4    4    0  501 -0.60230786675E+02  0.14343496684E+02 -0.12942950799E+02  0.63253486354E+02  0.00000000000E+00 0.  1.
          5    1    3    3  502    0 -0.36135265982E+02  0.75897925120E+02  0.51372221547E+02  0.98627823821E+02  0.47000000000E+01 0. -1.
         11    1    6    6    0    0  0.19915585217E+02  0.23435512197E+02  0.10388222790E+03  0.10833914823E+03  0.00000000000E+00 0. -1.
        -12    1    6    6    0    0  0.53865486651E+02 -0.13629677130E+02  0.87080477041E+03  0.87257561673E+03  0.00000000000E+00 0.  1.
         -5    1    5    5    0  503  0.11290485471E+02 -0.79039000015E+02  0.31215477009E+03  0.32223800067E+03  0.47000000000E+01 0.  1.
<mgrwt>
<rscale>  2 0.20563013E+03</rscale>
<asrwt>0</asrwt>
<pdfrwt beam="1">  1       21 0.21518243E+00 0.20566123E+03</pdfrwt>
<pdfrwt beam="2">  1       21 0.16943885E-01 0.20566123E+03</pdfrwt>
<totfact> 0.33378491E+03</totfact>
</mgrwt>
</event>
<event>
12    1  0.2769346E-001  0.1763689E+03  0.7546771E-02  0.1171386E+00
         21   -1    0    0  504  503  0.00000000000E+00  0.00000000000E+00  0.92191865162E+02  0.92191865162E+02  0.00000000000E+00 0. -1.
         21   -1    0    0  502  504 -0.00000000000E+00 -0.00000000000E+00 -0.40548982183E+03  0.40548982183E+03  0.00000000000E+00 0. -1.
          6    2    1    2  502    0 -0.14597571710E+02 -0.15232164170E+02 -0.25877171315E+03  0.31315937419E+03  0.17510250196E+03 0.  0.
         24    2    3    3    0    0 -0.51237486866E+01 -0.77290601916E+02 -0.18707732552E+03  0.21774879702E+03  0.80103201779E+02 0.  0.
         -6    2    1    2    0  503  0.14597571710E+02  0.15232164170E+02 -0.54526243516E+02  0.18452231280E+03  0.17501504154E+03 0.  0.
        -24    2    5    5    0    0  0.11084453835E+02  0.65079211019E+02  0.12527683189E+02  0.10076439279E+03  0.75088955151E+02 0.  0.
          2    1    4    4  501    0 -0.13014932493E+02 -0.21673870126E+02 -0.14596354883E+03  0.14813677026E+03  0.00000000000E+00 0. -1.
         -1    1    4    4    0  501  0.78911838061E+01 -0.55616731790E+02 -0.41113776689E+02  0.69612026766E+02  0.00000000000E+00 0.  1.
          5    1    3    3  502    0 -0.94738230236E+01  0.62058437747E+02 -0.71694387626E+02  0.95410577167E+02  0.47000000000E+01 0. -1.
         11    1    6    6    0    0  0.53748403272E+01  0.44564001421E+02  0.43940403927E+02  0.62813997074E+02  0.00000000000E+00 0. -1.
        -12    1    6    6    0    0  0.57096135079E+01  0.20515209598E+02 -0.31412720737E+02  0.37950395721E+02  0.00000000000E+00 0.  1.
         -5    1    5    5    0  503  0.35131178751E+01 -0.49847046849E+02 -0.67053926705E+02  0.83757920004E+02  0.47000000000E+01 0.  1.
<mgrwt>
<rscale>  2 0.17634720E+03</rscale>
<asrwt>0</asrwt>
<pdfrwt beam="1">  1       21 0.14183364E-01 0.17636891E+03</pdfrwt>
<pdfrwt beam="2">  1       21 0.62383048E-01 0.17636891E+03</pdfrwt>
<totfact> 0.10411861E+05</totfact>
</mgrwt>
</event>
<event>
12    1  0.2769346E-001  0.1838811E+03  0.7546771E-02  0.1164287E+00
         21   -1    0    0  504  503  0.00000000000E+00  0.00000000000E+00  0.32570509518E+03  0.32570509518E+03  0.00000000000E+00 0.  1.
         21   -1    0    0  502  504 -0.00000000000E+00 -0.00000000000E+00 -0.16111310714E+03  0.16111310714E+03  0.00000000000E+00 0. -1.
          6    2    1    2  502    0 -0.49154124295E+02 -0.40266803073E+02 -0.63318076969E+02  0.19447732576E+03  0.17255349316E+03 0.  0.
         24    2    3    3    0    0 -0.23952222788E+02 -0.86192821941E+02 -0.12257327216E+02  0.12117231083E+03  0.80805787613E+02 0.  0.
         -6    2    1    2    0  503  0.49154124295E+02  0.40266803073E+02  0.22791006500E+03  0.29234087656E+03  0.17170511644E+03 0.  0.
        -24    2    5    5    0    0 -0.27661103197E+02  0.50796672751E+02  0.16780542977E+03  0.19412624167E+03  0.78618680042E+02 0.  0.
          2    1    4    4  501    0 -0.23803706498E-01 -0.76348188900E+02 -0.37468173058E+02  0.85046519666E+02  0.00000000000E+00 0. -1.
         -1    1    4    4    0  501 -0.23928419081E+02 -0.98446330413E+01  0.25210845842E+02  0.36125791168E+02  0.00000000000E+00 0.  1.
          5    1    3    3  502    0 -0.25201901507E+02  0.45926018868E+02 -0.51060749753E+02  0.73305014931E+02  0.47000000000E+01 0. -1.
         13    1    6    6    0    0 -0.24390999356E+02 -0.13945439637E+02  0.26325471045E+02  0.38502292945E+02  0.00000000000E+00 0. -1.
        -14    1    6    6    0    0 -0.32701038409E+01  0.64742112388E+02  0.14147995872E+03  0.15562394872E+03  0.00000000000E+00 0.  1.
         -5    1    5    5    0  503  0.76815227492E+02 -0.10529869678E+02  0.60104635237E+02  0.98214634892E+02  0.47000000000E+01 0.  1.
<mgrwt>
<rscale>  2 0.18368179E+03</rscale>
<asrwt>0</asrwt>
<pdfrwt beam="1">  1       21 0.50108476E-01 0.18388108E+03</pdfrwt>
<pdfrwt beam="2">  1       21 0.24786632E-01 0.18388108E+03</pdfrwt>
<totfact> 0.58632526E+04</totfact>
</mgrwt>
</event>
<event>
12    1  0.2769346E-001  0.1942200E+03  0.7546771E-02  0.1155246E+00
         21   -1    0    0  504  503  0.00000000000E+00  0.00000000000E+00  0.37512732741E+03  0.37512732741E+03  0.00000000000E+00 0.  1.
         21   -1    0    0  502  504 -0.00000000000E+00 -0.00000000000E+00 -0.13724393075E+03  0.13724393075E+03  0.00000000000E+00 0.  1.
          6    2    1    2  502    0  0.82027043503E+02 -0.15579893755E+02 -0.16300157941E+02  0.19247956791E+03  0.17266012845E+03 0.  0.
         24    2    3    3    0    0 -0.87866066972E+01 -0.48755715120E+01 -0.54426240631E+02  0.93295951526E+02  0.75106213106E+02 0.  0.
         -6    2    1    2    0  503 -0.82027043503E+02  0.15579893755E+02  0.25418355460E+03  0.31989169026E+03  0.17535747806E+03 0.  0.
        -24    2    5    5    0    0  0.13355759365E+02 -0.29866995934E+02  0.74960607368E+02  0.11179014370E+03  0.76207150696E+02 0.  0.
          2    1    4    4  501    0 -0.40791758869E+02 -0.86055484114E+01 -0.20327036884E+02  0.46381154401E+02  0.00000000000E+00 0. -1.
         -1    1    4    4    0  501  0.32005152171E+02  0.37299768994E+01 -0.34099203746E+02  0.46914797126E+02  0.00000000000E+00 0.  1.
          5    1    3    3  502    0  0.90813650200E+02 -0.10704322243E+02  0.38126082690E+02  0.99183616382E+02  0.47000000000E+01 0. -1.
         13    1    6    6    0    0  0.35332987640E+02  0.59348648319E+01  0.15620373237E+02  0.39085018821E+02  0.00000000000E+00 0. -1.
        -14    1    6    6    0    0 -0.21977228276E+02 -0.35801860766E+02  0.59340234130E+02  0.72705124879E+02  0.00000000000E+00 0.  1.
         -5    1    5    5    0  503 -0.95382802867E+02  0.45446889689E+02  0.17922294723E+03  0.20810154656E+03  0.47000000000E+01 0.  1.
<mgrwt>
<rscale>  2 0.19360917E+03</rscale>
<asrwt>0</asrwt>
<pdfrwt beam="1">  1       21 0.57711896E-01 0.19422001E+03</pdfrwt>
<pdfrwt beam="2">  1       21 0.21114451E-01 0.19422001E+03</pdfrwt>
<totfact> 0.58686903E+04</totfact>
</mgrwt>
</event>
<event>
12    1  0.2769346E-001  0.1743975E+03  0.7546771E-02  0.1173532E+00
         21   -1    0    0  504  503  0.00000000000E+00  0.00000000000E+00  0.12872467528E+03  0.12872467528E+03  0.00000000000E+00 0.  1.
         21   -1    0    0  502  504 -0.00000000000E+00 -0.00000000000E+00 -0.27714924736E+03  0.27714924736E+03  0.00000000000E+00 0.  1.
          6    2    1    2  502    0  0.56848153018E+00 -0.22571144421E+02 -0.15299210543E+03  0.23141658171E+03  0.17215478569E+03 0.  0.
         24    2    3    3    0    0 -0.19003677821E+01 -0.62238507977E+02 -0.36921856897E+02  0.10864041325E+03  0.81007855186E+02 0.  0.
         -6    2    1    2    0  503 -0.56848153018E+00  0.22571144421E+02  0.45675333546E+01  0.17445734092E+03  0.17292981730E+03 0.  0.
        -24    2    5    5    0    0 -0.49268341740E+02 -0.33278700729E+02  0.23587165755E+01  0.10017510577E+03  0.80589371833E+02 0.  0.
          4    1    4    4  501    0  0.32348693526E+02 -0.35224823299E+01 -0.30178401181E+01  0.32679553448E+02  0.00000000000E+00 0. -1.
         -3    1    4    4    0  501 -0.34249061308E+02 -0.58716025647E+02 -0.33904016779E+02  0.75960859803E+02  0.00000000000E+00 0.  1.
          5    1    3    3  502    0  0.24688493123E+01  0.39667363556E+02 -0.11607024853E+03  0.12277616846E+03  0.47000000000E+01 0. -1.
         11    1    6    6    0    0 -0.60655023510E+02 -0.11350576617E+02  0.25078156634E+02  0.66609169089E+02  0.00000000000E+00 0. -1.
        -12    1    6    6    0    0  0.11386681770E+02 -0.21928124112E+02 -0.22719440059E+02  0.33565936683E+02  0.00000000000E+00 0.  1.
         -5    1    5    5    0  503  0.48699860210E+02  0.55849845150E+02  0.22088167791E+01  0.74282235153E+02  0.47000000000E+01 0.  1.
<mgrwt>
<rscale>  2 0.17420510E+03</rscale>
<asrwt>0</asrwt>
<pdfrwt beam="1">  1       21 0.19803797E-01 0.17439754E+03</pdfrwt>
<pdfrwt beam="2">  1       21 0.42638345E-01 0.17439754E+03</pdfrwt>
<totfact> 0.12520502E+05</totfact>
</mgrwt>
</event>
<event>
12    1  0.2769346E-001  0.2178654E+03  0.7546771E-02  0.1136484E+00
         21   -1    0    0  504  503  0.00000000000E+00  0.00000000000E+00  0.86509282615E+02  0.86509282615E+02  0.00000000000E+00 0. -1.
         21   -1    0    0  502  504 -0.00000000000E+00 -0.00000000000E+00 -0.59313398524E+03  0.59313398524E+03  0.00000000000E+00 0. -1.
          6    2    1    2  502    0  0.62196219161E+02 -0.11491975891E+03 -0.36193221217E+03  0.42244556516E+03  0.17432845048E+03 0.  0.
         24    2    3    3    0    0  0.49332634149E+00 -0.93596115279E+01 -0.70308639326E+02  0.10619156924E+03  0.79028469010E+02 0.  0.
         -6    2    1    2    0  503 -0.62196219161E+02  0.11491975891E+03 -0.14469249045E+03  0.25719770269E+03  0.16774927962E+03 0.  0.
        -24    2    5    5    0    0  0.21040845564E+01  0.94672347986E+02 -0.14281154757E+03  0.18959507957E+03  0.81141083502E+02 0.  0.
          4    1    4    4  501    0  0.36968456319E+02  0.98923162240E+01 -0.31629893922E+02  0.49648513295E+02  0.00000000000E+00 0. -1.
         -3    1    4    4    0  501 -0.36475129978E+02 -0.19251927752E+02 -0.38678745404E+02  0.56543055941E+02  0.00000000000E+00 0.  1.
          5    1    3    3  502    0  0.61702892819E+02 -0.10556014738E+03 -0.29162357285E+03  0.31625399592E+03  0.47000000000E+01 0. -1.
         13    1    6    6    0    0 -0.10109682940E+02  0.11913169632E+02  0.76837587076E+01  0.17411761763E+02  0.00000000000E+00 0. -1.
        -14    1    6    6    0    0  0.12213767496E+02  0.82759178354E+02 -0.15049530628E+03  0.17218331781E+03  0.00000000000E+00 0.  1.
         -5    1    5    5    0  503 -0.64300303717E+02  0.20247410920E+02 -0.18809428743E+01  0.67602623123E+02  0.47000000000E+01 0.  1.
<mgrwt>
<rscale>  2 0.21654651E+03</rscale>
<asrwt>0</asrwt>
<pdfrwt beam="1">  1       21 0.13309121E-01 0.21786539E+03</pdfrwt>
<pdfrwt beam="2">  1       21 0.91251378E-01 0.21786539E+03</pdfrwt>
<totfact> 0.48958402E+04</totfact>
</mgrwt>
</event>
<event>
12    1  0.2769346E-001  0.2522228E+03  0.7546771E-02  0.1112246E+00
         21   -1    0    0  504  503  0.00000000000E+00  0.00000000000E+00  0.55083736858E+03  0.55083736858E+03  0.00000000000E+00 0.  1.
         21   -1    0    0  502  504 -0.00000000000E+00 -0.00000000000E+00 -0.11764219124E+03  0.11764219124E+03  0.00000000000E+00 0.  1.
          6    2    1    2  502    0 -0.53224888589E+02  0.17496542108E+03  0.16112991408E+03  0.29748649540E+03  0.17055667209E+03 0.  0.
         24    2    3    3    0    0  0.42480202264E+01  0.12528577511E+03  0.42834921026E+02  0.15682023131E+03  0.83923675850E+02 0.  0.
         -6    2    1    2    0  503  0.53224888589E+02 -0.17496542108E+03  0.27206526326E+03  0.37099306442E+03  0.17369674444E+03 0.  0.
        -24    2    5    5    0    0  0.46479825016E+02 -0.12781921039E+03  0.86537703483E+02  0.17939236895E+03  0.78706564115E+02 0.  0.
          4    1    4    4  501    0  0.20158067586E+02 -0.32830565819E+01  0.16446050466E+00  0.20424328547E+02  0.00000000000E+00 0. -1.
         -3    1    4    4    0  501 -0.15910047360E+02  0.12856883169E+03  0.42670460521E+02  0.13639590276E+03  0.00000000000E+00 0.  1.
          5    1    3    3  502    0 -0.57472908815E+02  0.49679645976E+02  0.11829499306E+03  0.14066626409E+03  0.47000000000E+01 0. -1.
         11    1    6    6    0    0  0.16263485232E+02 -0.15883937365E+02  0.54582465803E+02  0.59127370914E+02  0.00000000000E+00 0. -1.
        -12    1    6    6    0    0  0.30216339785E+02 -0.11193527302E+03  0.31955237680E+02  0.12026499803E+03  0.00000000000E+00 0.  1.
         -5    1    5    5    0  503  0.67450635727E+01 -0.47146210694E+02  0.18552755978E+03  0.19160069547E+03  0.47000000000E+01 0.  1.
<mgrwt>
<rscale>  2 0.25168306E+03</rscale>
<asrwt>0</asrwt>
<pdfrwt beam="1">  1       21 0.84744209E-01 0.25222281E+03</pdfrwt>
<pdfrwt beam="2">  1       21 0.18098799E-01 0.25222281E+03</pdfrwt>
<totfact> 0.32548223E+04</totfact>
</mgrwt>
</event>
<event>
12    1  0.2769346E-001  0.2433951E+03  0.7546771E-02  0.1117685E+00
         21   -1    0    0  504  503  0.00000000000E+00  0.00000000000E+00  0.30761204397E+03  0.30761204397E+03  0.00000000000E+00 0.  1.
         21   -1    0    0  502  504 -0.00000000000E+00 -0.00000000000E+00 -0.30721205921E+03  0.30721205921E+03  0.00000000000E+00 0. -1.
          6    2    1    2  502    0 -0.14815626421E+03 -0.83619065553E+02 -0.18810491291E+03  0.30761114173E+03  0.17406530242E+03 0.  0.
         24    2    3    3    0    0 -0.15987122256E+03 -0.32601682635E+02 -0.10715338517E+03  0.21109558106E+03  0.80360555453E+02 0.  0.
         -6    2    1    2    0  503  0.14815626421E+03  0.83619065553E+02  0.18850489768E+03  0.30721296145E+03  0.17292565016E+03 0.  0.
        -24    2    5    5    0    0  0.11068653837E+03  0.86287074470E+02  0.57896692483E+02  0.17122880100E+03  0.79185265650E+02 0.  0.
          2    1    4    4  501    0 -0.12466337332E+03 -0.58868275488E+02 -0.78431729851E+02  0.15861263113E+03  0.00000000000E+00 0. -1.
         -1    1    4    4    0  501 -0.35207849239E+02  0.26266592853E+02 -0.28721655322E+02  0.52482949922E+02  0.00000000000E+00 0.  1.
          5    1    3    3  502    0  0.11714958352E+02 -0.51017382918E+02 -0.80951527740E+02  0.96515560675E+02  0.47000000000E+01 0. -1.
         13    1    6    6    0    0 -0.12119747968E+02  0.50634786481E+01  0.96144557028E+01  0.16277741406E+02  0.00000000000E+00 0. -1.
        -14    1    6    6    0    0  0.12280628634E+03  0.81223595822E+02  0.48282236780E+02  0.15495105960E+03  0.00000000000E+00 0.  1.
         -5    1    5    5    0  503  0.37469725842E+02 -0.26680089173E+01  0.13060820520E+03  0.13598416044E+03  0.47000000000E+01 0.  1.
<mgrwt>
<rscale>  2 0.24319138E+03</rscale>
<asrwt>0</asrwt>
<pdfrwt beam="1">  1       21 0.47324930E-01 0.24339506E+03</pdfrwt>
<pdfrwt beam="2">  1       21 0.47263394E-01 0.24339506E+03</pdfrwt>
<totfact> 0.17775523E+04</totfact>
</mgrwt>
</event>
<event>
12    1  0.2769346E-001  0.2043918E+03  0.7546771E-02  0.1146730E+00
         21   -1    0    0  504  503  0.00000000000E+00  0.00000000000E+00  0.89502059889E+02  0.89502059889E+02  0.00000000000E+00 0. -1.
         21   -1    0    0  502  504 -0.00000000000E+00 -0.00000000000E+00 -0.49933111152E+03  0.49933111152E+03  0.00000000000E+00 0. -1.
          6    2    1    2  502    0 -0.29743103931E+02 -0.98251928045E+02 -0.28933401792E+03  0.35424592621E+03  0.17674249266E+03 0.  0.
         24    2    3    3    0    0  0.33045798642E+02 -0.74134124451E+02 -0.25307642544E+03  0.27768994833E+03  0.80474449806E+02 0.  0.
         -6    2    1    2    0  503  0.29743103931E+02  0.98251928045E+02 -0.12049503371E+03  0.23458724520E+03  0.17313009232E+03 0.  0.
        -24    2    5    5    0    0 -0.41234589309E+02  0.96045382045E+02 -0.10493978405E+03  0.16173974988E+03  0.64979855698E+02 0.  0.
          2    1    4    4  501    0 -0.25739762560E+02 -0.35481833940E+02 -0.10309579680E+03  0.11202785026E+03  0.00000000000E+00 0. -1.
         -1    1    4    4    0  501  0.58785561203E+02 -0.38652290511E+02 -0.14998062864E+03  0.16566209806E+03  0.00000000000E+00 0.  1.
          5    1    3    3  502    0 -0.62788902574E+02 -0.24117803593E+02 -0.36257592479E+02  0.76555977878E+02  0.47000000000E+01 0. -1.
         11    1    6    6    0    0  0.11848341400E+02  0.19878673997E+00 -0.33248389991E+01  0.12307610023E+02  0.00000000000E+00 0. -1.
        -12    1    6    6    0    0 -0.53082930709E+02  0.95846595305E+02 -0.10161494505E+03  0.14943213985E+03  0.00000000000E+00 0.  1.
         -5    1    5    5    0  503  0.70977693240E+02  0.22065460000E+01 -0.15555249659E+02  0.72847495324E+02  0.47000000000E+01 0.  1.
<mgrwt>
<rscale>  2 0.20360841E+03</rscale>
<asrwt>0</asrwt>
<pdfrwt beam="1">  1       21 0.13769547E-01 0.20439179E+03</pdfrwt>
<pdfrwt beam="2">  1       21 0.76820173E-01 0.20439179E+03</pdfrwt>
<totfact> 0.68672360E+04</totfact>
</mgrwt>
</event>
<event>
12    1  0.2769346E-001  0.1856823E+03  0.7546771E-02  0.1162665E+00
         21   -1    0    0  504  503  0.00000000000E+00  0.00000000000E+00  0.24278746466E+03  0.24278746466E+03  0.00000000000E+00 0.  1.
         21   -1    0    0  502  504 -0.00000000000E+00 -0.00000000000E+00 -0.14287799338E+03  0.14287799338E+03  0.00000000000E+00 0.  1.
          6    2    1    2  502    0  0.65522322271E+02  0.22819111922E+02  0.28824148593E+02  0.18684129074E+03  0.17107001432E+03 0.  0.
         24    2    3    3    0    0  0.73398378449E+02  0.65235188456E+02  0.52169878716E+02  0.13756382201E+03  0.80988623333E+02 0.  0.
         -6    2    1    2    0  503 -0.65522322271E+02 -0.22819111922E+02  0.71085322691E+02  0.19882416731E+03  0.17223251673E+03 0.  0.
        -24    2    5    5    0    0 -0.33757398208E+02  0.36573826804E+02  0.87421187782E+02  0.12935847750E+03  0.81326163612E+02 0.  0.
          4    1    4    4  501    0  0.60361493567E+02  0.64715736725E+02  0.71822741500E+02  0.11397430711E+03  0.00000000000E+00 0. -1.
         -3    1    4    4    0  501  0.13036884882E+02  0.51945173022E+00 -0.19652862784E+02  0.23589514898E+02  0.00000000000E+00 0.  1.
          5    1    3    3  502    0 -0.78760561778E+01 -0.42416076534E+02 -0.23345730123E+02  0.49277468729E+02  0.47000000000E+01 0. -1.
         11    1    6    6    0    0 -0.10625457622E+02 -0.26284328058E+02  0.24875429447E+02  0.37716750142E+02  0.00000000000E+00 0. -1.
        -12    1    6    6    0    0 -0.23131940586E+02  0.62858154863E+02  0.62545758335E+02  0.91641727361E+02  0.00000000000E+00 0.  1.
         -5    1    5    5    0  503 -0.31764924063E+02 -0.59392938726E+02 -0.16335865092E+02  0.69465689802E+02  0.47000000000E+01 0.  1.
<mgrwt>
<rscale>  2 0.18541229E+03</rscale>
<asrwt>0</asrwt>
<pdfrwt beam="1">  1       21 0.37351918E-01 0.18568233E+03</pdfrwt>
<pdfrwt beam="2">  1       21 0.21981230E-01 0.18568233E+03</pdfrwt>
<totfact> 0.13396572E+05</totfact>
</mgrwt>
</event>
<event>
12    1  0.2769346E-001  0.1885075E+03  0.7546771E-02  0.1162225E+00
         21   -1    0    0  504  503  0.00000000000E+00  0.00000000000E+00  0.61396059575E+02  0.61396059575E+02  0.00000000000E+00 0.  1.
         21   -1    0    0  502  504 -0.00000000000E+00 -0.00000000000E+00 -0.98441308674E+03  0.98441308674E+03  0.00000000000E+00 0.  1.
          6    2    1    2  502    0 -0.46425264779E+02 -0.57617305786E+02 -0.80253263227E+03  0.82208709553E+03  0.16215272937E+03 0.  0.
         24    2    3    3    0    0 -0.62826546670E+02 -0.77776317649E+02 -0.42058206945E+03  0.43922457419E+03  0.77669935478E+02 0.  0.
         -6    2    1    2    0  503  0.46425264779E+02  0.57617305786E+02 -0.12048439489E+03  0.22372205079E+03  0.17337822083E+03 0.  0.
        -24    2    5    5    0    0  0.98598211959E+02  0.48863872906E+02 -0.90978275740E+02  0.16296565135E+03  0.78558712990E+02 0.  0.
          4    1    4    4  501    0 -0.57917911353E+02 -0.10370204659E+02 -0.20752552426E+03  0.21570551412E+03  0.00000000000E+00 0. -1.
         -3    1    4    4    0  501 -0.49086353169E+01 -0.67406112990E+02 -0.21305654519E+03  0.22351906007E+03  0.00000000000E+00 0.  1.
          5    1    3    3  502    0  0.16401281892E+02  0.20159011863E+02 -0.38195056282E+03  0.38286252134E+03  0.47000000000E+01 0. -1.
         13    1    6    6    0    0  0.18807458345E+02 -0.40721004113E+01 -0.58927971432E+02  0.61990388837E+02  0.00000000000E+00 0. -1.
        -14    1    6    6    0    0  0.79790753614E+02  0.52935973317E+02 -0.32050304309E+02  0.10097526251E+03  0.00000000000E+00 0.  1.
         -5    1    5    5    0  503 -0.52172947181E+02  0.87534328795E+01 -0.29506119154E+02  0.60756399435E+02  0.47000000000E+01 0.  1.
<mgrwt>
<rscale>  2 0.18588576E+03</rscale>
<asrwt>0</asrwt>
<pdfrwt beam="1">  1       21 0.94455482E-02 0.18850747E+03</pdfrwt>
<pdfrwt beam="2">  1       21 0.15144816E+00 0.18850747E+03</pdfrwt>
<totfact> 0.26219595E+04</totfact>
</mgrwt>
</event>
<event>
12    1  0.2769346E-001  0.3001554E+03  0.7546771E-02  0.1085213E+00
         21   -1    0    0  504  503  0.00000000000E+00  0.00000000000E+00  0.84946756907E+02  0.84946756907E+02  0.00000000000E+00 0. -1.
         21   -1    0    0  502  504 -0.00000000000E+00 -0.00000000000E+00 -0.12179595324E+04  0.12179595324E+04  0.00000000000E+00 0.  1.
          6    2    1    2  502    0 -0.58612426763E+02 -0.23847667825E+03 -0.80204628244E+03  0.85637111665E+03  0.17258826038E+03 0.  0.
         24    2    3    3    0    0  0.16348666943E+02 -0.55322653615E+02 -0.33886045350E+03  0.35265714580E+03  0.78821193962E+02 0.  0.
         -6    2    1    2    0  503  0.58612426763E+02  0.23847667825E+03 -0.33096649305E+03  0.44653517265E+03  0.17189618453E+03 0.  0.
        -24    2    5    5    0    0  0.91344022701E+02  0.11417721602E+03 -0.15005491787E+03  0.22456039545E+03  0.80812905433E+02 0.  0.
          2    1    4    4  501    0 -0.54989612017E+01  0.64658040307E+01 -0.18781156802E+03  0.18800327199E+03  0.00000000000E+00 0. -1.
         -1    1    4    4    0  501  0.21847628145E+02 -0.61788457646E+02 -0.15104888549E+03  0.16465387381E+03  0.00000000000E+00 0.  1.
          5    1    3    3  502    0 -0.74961093705E+02 -0.18315402463E+03 -0.46318582894E+03  0.50371397086E+03  0.47000000000E+01 0. -1.
         11    1    6    6    0    0  0.35980721578E+02  0.98539777915E+02 -0.70531991389E+02  0.12640989663E+03  0.00000000000E+00 0. -1.
        -12    1    6    6    0    0  0.55363301123E+02  0.15637438108E+02 -0.79522926485E+02  0.98150498820E+02  0.00000000000E+00 0.  1.
         -5    1    5    5    0  503 -0.32731595939E+02  0.12429946222E+03 -0.18091157518E+03  0.22197477720E+03  0.47000000000E+01 0.  1.
<mgrwt>
<rscale>  2 0.30005598E+03</rscale>
<asrwt>0</asrwt>
<pdfrwt beam="1">  1       21 0.13068733E-01 0.30015538E+03</pdfrwt>
<pdfrwt beam="2">  1       21 0.18737837E+00 0.30015538E+03</pdfrwt>
<totfact> 0.75890954E+03</totfact>
</mgrwt>
</event>
<event>
12    1  0.2769346E-001  0.2097397E+03  0.7546771E-02  0.1141959E+00
         21   -1    0    0  504  503  0.00000000000E+00  0.00000000000E+00  0.34629832820E+03  0.34629832820E+03  0.00000000000E+00 0.  1.
         21   -1    0    0  502  504 -0.00000000000E+00 -0.00000000000E+00 -0.25003181505E+03  0.25003181505E+03  0.00000000000E+00 0.  1.
          6    2    1    2  502    0  0.38398184985E+02  0.11119602110E+03 -0.16153239020E+03  0.26398845526E+03  0.17250569761E+03 0.  0.
         24    2    3    3    0    0  0.58329537876E+02  0.13048887222E+03 -0.86232720996E+02  0.18360435787E+03  0.76451273995E+02 0.  0.
         -6    2    1    2    0  503 -0.38398184985E+02 -0.11119602110E+03  0.25779890335E+03  0.33234168798E+03  0.17364258487E+03 0.  0.
        -24    2    5    5    0    0 -0.69305288510E+02 -0.13373875578E+03  0.22153058157E+03  0.27941811006E+03  0.79431755894E+02 0.  0.
          4    1    4    4  501    0  0.45552224371E+02  0.26841460388E+02 -0.88054884682E+01  0.53600426939E+02  0.00000000000E+00 0. -1.
         -3    1    4    4    0  501  0.12777313505E+02  0.10364741183E+03 -0.77427232528E+02  0.13000393093E+03  0.00000000000E+00 0.  1.
          5    1    3    3  502    0 -0.19931352892E+02 -0.19292851114E+02 -0.75299669205E+02  0.80384097399E+02  0.47000000000E+01 0. -1.
         11    1    6    6    0    0 -0.49150193342E+02 -0.12397178003E+03  0.13394109170E+03  0.18901047536E+03  0.00000000000E+00 0. -1.
        -12    1    6    6    0    0 -0.20155095168E+02 -0.97669757516E+01  0.87589489870E+02  0.90407634701E+02  0.00000000000E+00 0.  1.
         -5    1    5    5    0  503  0.30907103525E+02  0.22542734676E+02  0.36268321778E+02  0.52923577917E+02  0.47000000000E+01 0.  1.
<mgrwt>
<rscale>  2 0.20950420E+03</rscale>
<asrwt>0</asrwt>
<pdfrwt beam="1">  1       21 0.53276666E-01 0.20973966E+03</pdfrwt>
<pdfrwt beam="2">  1       21 0.38466433E-01 0.20973966E+03</pdfrwt>
<totfact> 0.21523889E+04</totfact>
</mgrwt>
</event>
<event>
12    1  0.2769346E-001  0.1766216E+03  0.7546771E-02  0.1171791E+00
         21   -1    0    0  504  503  0.00000000000E+00  0.00000000000E+00  0.18391494759E+03  0.18391494759E+03  0.00000000000E+00 0. -1.
         21   -1    0    0  502  504 -0.00000000000E+00 -0.00000000000E+00 -0.16865798891E+03  0.16865798891E+03  0.00000000000E+00 0. -1.
          6    2    1    2  502    0 -0.16520860474E+02 -0.24362926188E+02  0.24906849577E+02  0.17568791069E+03  0.17140420008E+03 0.  0.
         24    2    3    3    0    0  0.53769527491E+02 -0.51497197912E+01  0.31810720257E+02  0.10234188578E+03  0.80896588064E+02 0.  0.
         -6    2    1    2    0  503  0.16520860474E+02  0.24362926188E+02 -0.96498908983E+01  0.17688502581E+03  0.17415137369E+03 0.  0.
        -24    2    5    5    0    0  0.30171489471E+02 -0.31331109772E+02  0.41596766747E+02  0.99836500623E+02  0.79656001886E+02 0.  0.
          2    1    4    4  501    0  0.29628610789E+02  0.26318090642E+02 -0.13740392039E+02  0.41943948857E+02  0.00000000000E+00 0. -1.
         -1    1    4    4    0  501  0.24140916702E+02 -0.31467810433E+02  0.45551112296E+02  0.60397936919E+02  0.00000000000E+00 0.  1.
          5    1    3    3  502    0 -0.70290387965E+02 -0.19213206397E+02 -0.69038706805E+01  0.73346024914E+02  0.47000000000E+01 0. -1.
         11    1    6    6    0    0 -0.15929476739E+02 -0.35937940277E+02  0.28045193625E+01  0.39410012806E+02  0.00000000000E+00 0. -1.
        -12    1    6    6    0    0  0.46100966210E+02  0.46068305051E+01  0.38792247384E+02  0.60426487817E+02  0.00000000000E+00 0.  1.
         -5    1    5    5    0  503 -0.13650628997E+02  0.55694035959E+02 -0.51246657645E+02  0.77048525185E+02  0.47000000000E+01 0.  1.
<mgrwt>
<rscale>  2 0.17594064E+03</rscale>
<asrwt>0</asrwt>
<pdfrwt beam="1">  1       21 0.28294607E-01 0.17662161E+03</pdfrwt>
<pdfrwt beam="2">  1       21 0.25947383E-01 0.17662161E+03</pdfrwt>
<totfact> 0.16924964E+05</totfact>
</mgrwt>
</event>
<event>
12    1  0.2769346E-001  0.3693233E+03  0.7546771E-02  0.1055081E+00
         21   -1    0    0  504  503  0.00000000000E+00  0.00000000000E+00  0.87687447511E+02  0.87687447511E+02  0.00000000000E+00 0.  1.
         21   -1    0    0  502  504 -0.00000000000E+00 -0.00000000000E+00 -0.16618151289E+04  0.16618151289E+04  0.00000000000E+00 0. -1.
          6    2    1    2  502    0 -0.30265149205E+03 -0.11867041390E+03 -0.10154660765E+04  0.10805420145E+04  0.17526865044E+03 0.  0.
         24    2    3    3    0    0 -0.22914515392E+03 -0.21584001251E+02 -0.59920884529E+03  0.64681269131E+03  0.79636968154E+02 0.  0.
         -6    2    1    2    0  503  0.30265149205E+03  0.11867041390E+03 -0.55866160495E+03  0.66896056196E+03  0.17240896682E+03 0.  0.
        -24    2    5    5    0    0  0.13028284295E+03  0.11139300940E+03 -0.22839174758E+03  0.29631571697E+03  0.79108735630E+02 0.  0.
          4    1    4    4  501    0 -0.51089463493E+02  0.27372923556E+02 -0.16836091729E+03  0.17805844180E+03  0.00000000000E+00 0. -1.
         -3    1    4    4    0  501 -0.17805569043E+03 -0.48956924807E+02 -0.43084792800E+03  0.46875424952E+03  0.00000000000E+00 0.  1.
          5    1    3    3  502    0 -0.73506338126E+02 -0.97086412653E+02 -0.41625723119E+03  0.43372932318E+03  0.47000000000E+01 0. -1.
         11    1    6    6    0    0  0.12668948460E+03  0.65886162265E+02 -0.16523606704E+03  0.21838994880E+03  0.00000000000E+00 0. -1.
        -12    1    6    6    0    0  0.35933583421E+01  0.45506847134E+02 -0.63155680545E+02  0.77925768173E+02  0.00000000000E+00 0.  1.
         -5    1    5    5    0  503  0.17236864910E+03  0.72774045048E+01 -0.33026985737E+03  0.37264484499E+03  0.47000000000E+01 0.  1.
<mgrwt>
<rscale>  2 0.36898570E+03</rscale>
<asrwt>0</asrwt>
<pdfrwt beam="1">  1       21 0.13490376E-01 0.36932329E+03</pdfrwt>
<pdfrwt beam="2">  1       21 0.25566387E+00 0.36932329E+03</pdfrwt>
<totfact> 0.25444119E+03</totfact>
</mgrwt>
</event>
<event>
12    1  0.2769346E-001  0.2025646E+03  0.7546771E-02  0.1148029E+00
         21   -1    0    0  504  503  0.00000000000E+00  0.00000000000E+00  0.37146458975E+03  0.37146458975E+03  0.00000000000E+00 0.  1.
         21   -1    0    0  502  504 -0.00000000000E+00 -0.00000000000E+00 -0.10938396524E+03  0.10938396524E+03  0.00000000000E+00 0.  1.
          6    2    1    2  502    0  0.73359781759E+02 -0.69118804927E+02  0.12607918774E+03  0.23859667346E+03  0.17570812227E+03 0.  0.
         24    2    3    3    0    0  0.37060528300E+02 -0.49274692304E+02 -0.64279227050E+01  0.99702292990E+02  0.78088097542E+02 0.  0.
         -6    2    1    2    0  503 -0.73359781759E+02  0.69118804927E+02  0.13600143677E+03  0.24225188153E+03  0.17329315199E+03 0.  0.
        -24    2    5    5    0    0 -0.32689882927E+02 -0.39933328024E+01  0.57518656586E+01  0.87376234222E+02  0.80727611110E+02 0.  0.
          4    1    4    4  501    0  0.64229966504E+01  0.18917215915E+02 -0.14245066867E+02  0.24536460095E+02  0.00000000000E+00 0. -1.
         -3    1    4    4    0  501  0.30637531649E+02 -0.68191908218E+02  0.78171441616E+01  0.75165832896E+02  0.00000000000E+00 0.  1.
          5    1    3    3  502    0  0.36299253459E+02 -0.19844112623E+02  0.13250711045E+03  0.13889438047E+03  0.47000000000E+01 0. -1.
         13    1    6    6    0    0 -0.34470204229E+02 -0.19667989515E+02 -0.29038842209E+02  0.49176001749E+02  0.00000000000E+00 0. -1.
        -14    1    6    6    0    0  0.17803213022E+01  0.15674656713E+02  0.34790707868E+02  0.38200232472E+02  0.00000000000E+00 0.  1.
         -5    1    5    5    0  503 -0.40669898832E+02  0.73112137729E+02  0.13024957111E+03  0.15487564731E+03  0.47000000000E+01 0.  1.
<mgrwt>
<rscale>  2 0.20203975E+03</rscale>
<asrwt>0</asrwt>
<pdfrwt beam="1">  1       21 0.57148398E-01 0.20256458E+03</pdfrwt>
<pdfrwt beam="2">  1       21 0.16828303E-01 0.20256458E+03</pdfrwt>
<totfact> 0.91021475E+04</totfact>
</mgrwt>
</event>
<event>
12    1  0.2769346E-001  0.2052054E+03  0.7546771E-02  0.1145944E+00
         21   -1    0    0  504  503  0.00000000000E+00  0.00000000000E+00  0.74978894761E+02  0.74978894761E+02  0.00000000000E+00 0. -1.
         21   -1    0    0  502  504 -0.00000000000E+00 -0.00000000000E+00 -0.55581493306E+03  0.55581493306E+03  0.00000000000E+00 0.  1.
          6    2    1    2  502    0  0.10500196871E+03  0.60403095225E+01 -0.25332111031E+03  0.32440793356E+03  0.17322535512E+03 0.  0.
         24    2    3    3    0    0  0.31740147406E+02  0.58002495857E+02 -0.87780652061E+02  0.13601181739E+03  0.80137663500E+02 0.  0.
         -6    2    1    2    0  503 -0.10500196871E+03 -0.60403095225E+01 -0.22751492799E+03  0.30638589426E+03  0.17620265314E+03 0.  0.
        -24    2    5    5    0    0 -0.13197572786E+03 -0.29790747343E+02 -0.21664810381E+03  0.26854616848E+03  0.82919010786E+02 0.  0.
          2    1    4    4  501    0  0.30115595827E+01  0.60180007149E+02 -0.21908590064E+02  0.64114655658E+02  0.00000000000E+00 0. -1.
         -1    1    4    4    0  501  0.28728587823E+02 -0.21775112917E+01 -0.65872061997E+02  0.71897161735E+02  0.00000000000E+00 0.  1.
          5    1    3    3  502    0  0.73261821305E+02 -0.51962186335E+02 -0.16554045825E+03  0.18839611617E+03  0.47000000000E+01 0. -1.
         11    1    6    6    0    0 -0.22900665977E+02  0.23629023932E+01  0.93289931735E+00  0.23041139534E+02  0.00000000000E+00 0. -1.
        -12    1    6    6    0    0 -0.10907506189E+03 -0.32153649736E+02 -0.21758100313E+03  0.24550502895E+03  0.00000000000E+00 0.  1.
         -5    1    5    5    0  503  0.26973759152E+02  0.23750437821E+02 -0.10866824181E+02  0.37839725782E+02  0.47000000000E+01 0.  1.
<mgrwt>
<rscale>  2 0.20456476E+03</rscale>
<asrwt>0</asrwt>
<pdfrwt beam="1">  1       21 0.11535214E-01 0.20520544E+03</pdfrwt>
<pdfrwt beam="2">  1       21 0.85509991E-01 0.20520544E+03</pdfrwt>
<totfact> 0.74006397E+04</totfact>
</mgrwt>
</event>
<event>
12    1  0.2769346E-001  0.2185616E+03  0.7546771E-02  0.1135080E+00
         21   -1    0    0  504  503  0.00000000000E+00  0.00000000000E+00  0.15046694791E+03  0.15046694791E+03  0.00000000000E+00 0. -1.
         21   -1    0    0  502  504 -0.00000000000E+00 -0.00000000000E+00 -0.35054784499E+03  0.35054784499E+03  0.00000000000E+00 0.  1.
          6    2    1    2  502    0 -0.12995255259E+03 -0.27232145971E+02 -0.17818458953E+03  0.28199099340E+03  0.17360851568E+03 0.  0.
         24    2    3    3    0    0 -0.68771981261E+02  0.28433919065E+02 -0.27967963345E+02  0.11044246416E+03  0.76663275143E+02 0.  0.
         -6    2    1    2    0  503  0.12995255259E+03  0.27232145971E+02 -0.21896307549E+02  0.21902379949E+03  0.17280833534E+03 0.  0.
        -24    2    5    5    0    0  0.14001044164E+03  0.67652075573E+01  0.28293133280E+02  0.16369634997E+03  0.79669955454E+02 0.  0.
          4    1    4    4  501    0  0.11237194677E+01  0.17415979193E+01  0.20949090676E+02  0.21051373088E+02  0.00000000000E+00 0. -1.
         -3    1    4    4    0  501 -0.69895700729E+02  0.26692321145E+02 -0.48917054021E+02  0.89391091069E+02  0.00000000000E+00 0.  1.
          5    1    3    3  502    0 -0.61180571324E+02 -0.55666065035E+02 -0.15021662619E+03  0.17154852925E+03  0.47000000000E+01 0. -1.
         11    1    6    6    0    0  0.61268053901E+02  0.42525684682E+02  0.93528535068E+01  0.75164380894E+02  0.00000000000E+00 0. -1.
        -12    1    6    6    0    0  0.78742387734E+02 -0.35760477125E+02  0.18940279773E+02  0.88531969074E+02  0.00000000000E+00 0.  1.
         -5    1    5    5    0  503 -0.10057889050E+02  0.20466938413E+02 -0.50189440829E+02  0.55327449525E+02  0.47000000000E+01 0.  1.
<mgrwt>
<rscale>  2 0.21840266E+03</rscale>
<asrwt>0</asrwt>
<pdfrwt beam="1">  1       21 0.23148761E-01 0.21856160E+03</pdfrwt>
<pdfrwt beam="2">  1       21 0.53930437E-01 0.21856160E+03</pdfrwt>
<totfact> 0.56325612E+04</totfact>
</mgrwt>
</event>
<event>
12    1  0.2769346E-001  0.1864795E+03  0.7546771E-02  0.1162061E+00
         21   -1    0    0  504  503  0.00000000000E+00  0.00000000000E+00  0.82062506372E+03  0.82062506372E+03  0.00000000000E+00 0.  1.
         21   -1    0    0  502  504 -0.00000000000E+00 -0.00000000000E+00 -0.10815799952E+03  0.10815799952E+03  0.00000000000E+00 0.  1.
          6    2    1    2  502    0  0.25468481109E+02 -0.61696733117E+02 -0.63492477763E+01  0.18658752828E+03  0.17412484704E+03 0.  0.
         24    2    3    3    0    0 -0.15796033861E+02  0.20249907121E+02 -0.34612716346E+02  0.90468197774E+02  0.79541695050E+02 0.  0.
         -6    2    1    2    0  503 -0.25468481109E+02  0.61696733117E+02  0.71881631198E+03  0.74219553495E+03  0.17234323697E+03 0.  0.
        -24    2    5    5    0    0  0.17918559895E+02  0.29055286700E+02  0.15989502596E+03  0.18062363990E+03  0.76767151109E+02 0.  0.
          2    1    4    4  501    0 -0.15361572293E+02  0.50660599504E+02 -0.25206123444E+02  0.58632950672E+02  0.00000000000E+00 0. -1.
         -1    1    4    4    0  501 -0.43446156743E+00 -0.30410692382E+02 -0.94065929011E+01  0.31835247102E+02  0.00000000000E+00 0.  1.
          5    1    3    3  502    0  0.41264514969E+02 -0.81946640238E+02  0.28263468569E+02  0.96119330509E+02  0.47000000000E+01 0. -1.
         13    1    6    6    0    0 -0.23049801170E+02 -0.11491383832E+02  0.39708083833E+02  0.47329453388E+02  0.00000000000E+00 0. -1.
        -14    1    6    6    0    0  0.40968361065E+02  0.40546670532E+02  0.12018694213E+03  0.13329418651E+03  0.00000000000E+00 0.  1.
         -5    1    5    5    0  503 -0.43387041004E+02  0.32641446416E+02  0.55892128601E+03  0.56157189505E+03  0.47000000000E+01 0.  1.
<mgrwt>
<rscale>  2 0.18606245E+03</rscale>
<asrwt>0</asrwt>
<pdfrwt beam="1">  1       21 0.12625001E+00 0.18647947E+03</pdfrwt>
<pdfrwt beam="2">  1       21 0.16639693E-01 0.18647947E+03</pdfrwt>
<totfact> 0.15161374E+04</totfact>
</mgrwt>
</event>
<event>
12    1  0.2769346E-001  0.1755311E+03  0.7546771E-02  0.1172255E+00
         21   -1    0    0  504  503  0.00000000000E+00  0.00000000000E+00  0.50597015273E+03  0.50597015273E+03  0.00000000000E+00 0. -1.
         21   -1    0    0  502  504 -0.00000000000E+00 -0.00000000000E+00 -0.14861924016E+03  0.14861924016E+03  0.00000000000E+00 0. -1.
          6    2    1    2  502    0  0.15105420186E+02  0.24086588327E+02 -0.72936404286E+02  0.18987619906E+03  0.17298819163E+03 0.  0.
         24    2    3    3    0    0  0.18705917870E+02 -0.31716008398E+02  0.10336230686E+02  0.89460487542E+02  0.80873509968E+02 0.  0.
         -6    2    1    2    0  503 -0.15105420186E+02 -0.24086588327E+02  0.43028731686E+03  0.46471319383E+03  0.17321327898E+03 0.  0.
        -24    2    5    5    0    0 -0.49581404595E+02  0.39980768195E+02  0.24562798609E+03  0.26618264678E+03  0.80394753495E+02 0.  0.
          4    1    4    4  501    0 -0.26473042411E+01 -0.55588566397E+02 -0.48239266728E+00  0.55653657889E+02  0.00000000000E+00 0. -1.
         -3    1    4    4    0  501  0.21353222111E+02  0.23872557999E+02  0.10818623353E+02  0.33806829653E+02  0.00000000000E+00 0.  1.
          5    1    3    3  502    0 -0.36004976841E+01  0.55802596725E+02 -0.83272634972E+02  0.10041571152E+03  0.47000000000E+01 0. -1.
         11    1    6    6    0    0 -0.27969757956E+02  0.15699535732E+02  0.22588470979E+03  0.22815057506E+03  0.00000000000E+00 0. -1.
        -12    1    6    6    0    0 -0.21611646639E+02  0.24281232464E+02  0.19743276297E+02  0.38032071720E+02  0.00000000000E+00 0.  1.
         -5    1    5    5    0  503  0.34475984409E+02 -0.64067356523E+02  0.18465933077E+03  0.19853054705E+03  0.47000000000E+01 0.  1.
<mgrwt>
<rscale>  2 0.17547558E+03</rscale>
<asrwt>0</asrwt>
<pdfrwt beam="1">  1       21 0.77841561E-01 0.17553113E+03</pdfrwt>
<pdfrwt beam="2">  1       21 0.22864499E-01 0.17553113E+03</pdfrwt>
<totfact> 0.26513317E+04</totfact>
</mgrwt>
</event>
<event>
12    1  0.2769346E-001  0.2118784E+03  0.7546771E-02  0.1140435E+00
         21   -1    0    0  504  503  0.00000000000E+00  0.00000000000E+00  0.28675556694E+03  0.28675556694E+03  0.00000000000E+00 0.  1.
         21   -1    0    0  502  504 -0.00000000000E+00 -0.00000000000E+00 -0.15567989795E+03  0.15567989795E+03  0.00000000000E+00 0.  1.
          6    2    1    2  502    0 -0.10971783343E+03  0.49192573240E+02  0.54182053320E+02  0.21869652120E+03  0.17445504077E+03 0.  0.
         24    2    3    3    0    0 -0.22698933180E+00 -0.17400014896E+02  0.13369141467E+02  0.84120886299E+02  0.81208235577E+02 0.  0.
         -6    2    1    2    0  503  0.10971783343E+03 -0.49192573240E+02  0.76893615677E+02  0.22373894369E+03  0.17230372764E+03 0.  0.
        -24    2    5    5    0    0  0.11868248526E+02 -0.65566852655E+02  0.70299293535E+02  0.12419883431E+03  0.77739901475E+02 0.  0.
          4    1    4    4  501    0  0.40345907147E+02 -0.72802036202E+01  0.34348794713E+01  0.41141122800E+02  0.00000000000E+00 0. -1.
         -3    1    4    4    0  501 -0.40572896479E+02 -0.10119811275E+02  0.99342619960E+01  0.42979763498E+02  0.00000000000E+00 0.  1.
          5    1    3    3  502    0 -0.10949084410E+03  0.66592588136E+02  0.40812911853E+02  0.13457563490E+03  0.47000000000E+01 0. -1.
         11    1    6    6    0    0 -0.38712074414E+01 -0.50532008370E+01  0.60588767639E+02  0.60922244293E+02  0.00000000000E+00 0. -1.
        -12    1    6    6    0    0  0.15739455968E+02 -0.60513651818E+02  0.97105258968E+01  0.63276590013E+02  0.00000000000E+00 0.  1.
         -5    1    5    5    0  503  0.97849584901E+02  0.16374279415E+02  0.65943221418E+01  0.99540109384E+02  0.47000000000E+01 0.  1.
<mgrwt>
<rscale>  2 0.21143510E+03</rscale>
<asrwt>0</asrwt>
<pdfrwt beam="1">  1       21 0.44116241E-01 0.21187844E+03</pdfrwt>
<pdfrwt beam="2">  1       21 0.23950753E-01 0.21187844E+03</pdfrwt>
<totfact> 0.80456940E+04</totfact>
</mgrwt>
</event>
<event>
12    1  0.2769346E-001  0.2442994E+03  0.7546771E-02  0.1117084E+00
         21   -1    0    0  504  503  0.00000000000E+00  0.00000000000E+00  0.39528971976E+02  0.39528971976E+02  0.00000000000E+00 0.  1.
         21   -1    0    0  502  504 -0.00000000000E+00 -0.00000000000E+00 -0.16030545562E+04  0.16030545562E+04  0.00000000000E+00 0. -1.
          6    2    1    2  502    0  0.16583963735E+03 -0.47477962077E+02 -0.57995743855E+03  0.62931139967E+03  0.17298920495E+03 0.  0.
         24    2    3    3    0    0  0.15364905410E+03  0.18406359690E+02 -0.37829636942E+03  0.41675874508E+03  0.81442510869E+02 0.  0.
         -6    2    1    2    0  503 -0.16583963735E+03  0.47477962077E+02 -0.98356814566E+03  0.10132721285E+04  0.17192197945E+03 0.  0.
        -24    2    5    5    0    0 -0.14346166831E+03  0.91991161985E+02 -0.84934427893E+03  0.87002292303E+03  0.80688030654E+02 0.  0.
          4    1    4    4  501    0  0.84451937229E+02  0.41472004558E+02 -0.27225477047E+03  0.28805332303E+03  0.00000000000E+00 0. -1.
         -3    1    4    4    0  501  0.69197116868E+02 -0.23065644869E+02 -0.10604159895E+03  0.12870542205E+03  0.00000000000E+00 0.  1.
          5    1    3    3  502    0  0.12190583251E+02 -0.65884321766E+02 -0.20166106912E+03  0.21255265459E+03  0.47000000000E+01 0. -1.
         13    1    6    6    0    0 -0.58799421011E+02  0.32327018071E+02 -0.53174363365E+03  0.53596053953E+03  0.00000000000E+00 0. -1.
        -14    1    6    6    0    0 -0.84662247296E+02  0.59664143914E+02 -0.31760064528E+03  0.33406238350E+03  0.00000000000E+00 0.  1.
         -5    1    5    5    0  503 -0.22377969041E+02 -0.44513199908E+02 -0.13422386672E+03  0.14324920545E+03  0.47000000000E+01 0.  1.
<mgrwt>
<rscale>  2 0.24411057E+03</rscale>
<asrwt>0</asrwt>
<pdfrwt beam="1">  1       21 0.60813786E-02 0.24429942E+03</pdfrwt>
<pdfrwt beam="2">  1       21 0.24662385E+00 0.24429942E+03</pdfrwt>
<totfact> 0.12849742E+04</totfact>
</mgrwt>
</event>
<event>
12    1  0.2769346E-001  0.1969599E+03  0.7546771E-02  0.1152442E+00
         21   -1    0    0  504  503  0.00000000000E+00  0.00000000000E+00  0.91745175142E+03  0.91745175142E+03  0.00000000000E+00 0. -1.
         21   -1    0    0  502  504 -0.00000000000E+00 -0.00000000000E+00 -0.27302917101E+03  0.27302917101E+03  0.00000000000E+00 0. -1.
          6    2    1    2  502    0  0.56988313407E+02  0.76276735045E+02 -0.22519802257E+03  0.29883458048E+03  0.17182010636E+03 0.  0.
         24    2    3    3    0    0  0.50794403968E+02  0.10671873129E+03 -0.22603379067E+03  0.26740421050E+03  0.80279375836E+02 0.  0.
         -6    2    1    2    0  503 -0.56988313407E+02 -0.76276735045E+02  0.86962060298E+03  0.89164634195E+03  0.17241635021E+03 0.  0.
        -24    2    5    5    0    0 -0.85640284290E+02 -0.74589347463E+01  0.43610536432E+03  0.45174365133E+03  0.80588731979E+02 0.  0.
          4    1    4    4  501    0  0.65581473315E+02  0.10738050307E+03 -0.21433365452E+03  0.24853655172E+03  0.00000000000E+00 0. -1.
         -3    1    4    4    0  501 -0.14787069346E+02 -0.66177178065E+00 -0.11700136148E+02  0.18867658774E+02  0.00000000000E+00 0.  1.
          5    1    3    3  502    0  0.61939094389E+01 -0.30441996241E+02  0.83576810346E+00  0.31430369988E+02  0.47000000000E+01 0. -1.
         11    1    6    6    0    0 -0.41216441671E+02  0.11267516592E+01  0.36593583259E+03  0.36825140625E+03  0.00000000000E+00 0. -1.
        -12    1    6    6    0    0 -0.44423842619E+02 -0.85856864055E+01  0.70169531737E+02  0.83492245079E+02  0.00000000000E+00 0.  1.
         -5    1    5    5    0  503  0.28651970883E+02 -0.68817800298E+02  0.43351523865E+03  0.43990269062E+03  0.47000000000E+01 0.  1.
<mgrwt>
<rscale>  2 0.19682935E+03</rscale>
<asrwt>0</asrwt>
<pdfrwt beam="1">  1       21 0.14114642E+00 0.19695991E+03</pdfrwt>
<pdfrwt beam="2">  1       21 0.42004488E-01 0.19695991E+03</pdfrwt>
<totfact> 0.19034197E+03</totfact>
</mgrwt>
</event>
<event>
12    1  0.2769346E-001  0.2079421E+03  0.7546771E-02  0.1143216E+00
         21   -1    0    0  504  503  0.00000000000E+00  0.00000000000E+00  0.25154694053E+02  0.25154694053E+02  0.00000000000E+00 0.  1.
         21   -1    0    0  502  504 -0.00000000000E+00 -0.00000000000E+00 -0.20481408052E+04  0.20481408052E+04  0.00000000000E+00 0.  1.
          6    2    1    2  502    0  0.91317122171E+02 -0.69066830007E+02 -0.14272387900E+04  0.14423004094E+04  0.17352482075E+03 0.  0.
         24    2    3    3    0    0  0.45927631087E+02 -0.47979724646E+01 -0.35118494360E+03  0.36336358903E+03  0.81054706142E+02 0.  0.
         -6    2    1    2    0  503 -0.91317122171E+02  0.69066830007E+02 -0.59574732112E+03  0.63099508985E+03  0.17358251345E+03 0.  0.
        -24    2    5    5    0    0 -0.82260668634E+02  0.24221589634E+01 -0.21327310802E+03  0.24262394620E+03  0.81291304618E+02 0.  0.
          4    1    4    4  501    0  0.28326644915E+01  0.31524752818E+02 -0.18978084540E+03  0.19240219154E+03  0.00000000000E+00 0. -1.
         -3    1    4    4    0  501  0.43094966596E+02 -0.36322725283E+02 -0.16140409820E+03  0.17096139750E+03  0.00000000000E+00 0.  1.
          5    1    3    3  502    0  0.45389491084E+02 -0.64268857542E+02 -0.10760538464E+04  0.10789368203E+04  0.47000000000E+01 0. -1.
         11    1    6    6    0    0 -0.27270960355E+02 -0.12264447700E+02 -0.16589477744E+03  0.16856808458E+03  0.00000000000E+00 0. -1.
        -12    1    6    6    0    0 -0.54989708279E+02  0.14686606663E+02 -0.47378330577E+02  0.74055861619E+02  0.00000000000E+00 0.  1.
         -5    1    5    5    0  503 -0.90564535376E+01  0.66644671043E+02 -0.38247421310E+03  0.38837114365E+03  0.47000000000E+01 0.  1.
<mgrwt>
<rscale>  2 0.20793010E+03</rscale>
<asrwt>0</asrwt>
<pdfrwt beam="1">  1       21 0.38699532E-02 0.20794214E+03</pdfrwt>
<pdfrwt beam="2">  1       21 0.31509856E+00 0.20794214E+03</pdfrwt>
<totfact> 0.11383760E+04</totfact>
</mgrwt>
</event>
<event>
12    1  0.2769346E-001  0.1748476E+03  0.7546771E-02  0.1172902E+00
         21   -1    0    0  504  503  0.00000000000E+00  0.00000000000E+00  0.10394382832E+03  0.10394382832E+03  0.00000000000E+00 0.  1.
         21   -1    0    0  502  504 -0.00000000000E+00 -0.00000000000E+00 -0.29512342850E+03  0.29512342850E+03  0.00000000000E+00 0.  1.
          6    2    1    2  502    0  0.24923716691E+02  0.10477370436E+01 -0.83256355162E+02  0.19359433303E+03  0.17298802184E+03 0.  0.
         24    2    3    3    0    0  0.62173681002E+01 -0.14929153678E+02 -0.12260577083E+03  0.14695041565E+03  0.79377039030E+02 0.  0.
         -6    2    1    2    0  503 -0.24923716691E+02 -0.10477370436E+01 -0.10792324502E+03  0.20547292380E+03  0.17305896738E+03 0.  0.
        -24    2    5    5    0    0  0.12342330693E+02  0.48673854687E+02 -0.18248181636E+02  0.96272640075E+02  0.80087126537E+02 0.  0.
          4    1    4    4  501    0  0.27558295920E+02  0.11991056067E+02 -0.14215406538E+02  0.33246396536E+02  0.00000000000E+00 0. -1.
         -3    1    4    4    0  501 -0.21340927819E+02 -0.26920209745E+02 -0.10839036429E+03  0.11370401912E+03  0.00000000000E+00 0.  1.
          5    1    3    3  502    0  0.18706348590E+02  0.15976890722E+02  0.39349415666E+02  0.46643917374E+02  0.47000000000E+01 0. -1.
         13    1    6    6    0    0  0.33243212165E+02  0.73133284019E+01 -0.33230307862E+02  0.47569415468E+02  0.00000000000E+00 0. -1.
        -14    1    6    6    0    0 -0.20900881473E+02  0.41360526285E+02  0.14982126225E+02  0.48703224607E+02  0.00000000000E+00 0.  1.
         -5    1    5    5    0  503 -0.37266047383E+02 -0.49721591730E+02 -0.89675063385E+02  0.10920028372E+03  0.47000000000E+01 0.  1.
<mgrwt>
<rscale>  2 0.17483008E+03</rscale>
<asrwt>0</asrwt>
<pdfrwt beam="1">  1       21 0.15991358E-01 0.17484764E+03</pdfrwt>
<pdfrwt beam="2">  1       21 0.45403604E-01 0.17484764E+03</pdfrwt>
<totfact> 0.16330009E+05</totfact>
</mgrwt>
</event>
<event>
12    1  0.2769346E-001  0.1940547E+03  0.7546771E-02  0.1155206E+00
         21   -1    0    0  504  503  0.00000000000E+00  0.00000000000E+00  0.47368960424E+03  0.47368960424E+03  0.00000000000E+00 0.  1.
         21   -1    0    0  502  504 -0.00000000000E+00 -0.00000000000E+00 -0.85255120380E+02  0.85255120380E+02  0.00000000000E+00 0.  1.
          6    2    1    2  502    0 -0.43272708293E+02 -0.70670436344E+02  0.27010669138E+03  0.33165922003E+03  0.17370485211E+03 0.  0.
         24    2    3    3    0    0 -0.24615614167E+02 -0.60627473955E+02  0.28639605565E+03  0.30452286724E+03  0.80186388625E+02 0.  0.
         -6    2    1    2    0  503  0.43272708293E+02  0.70670436344E+02  0.11832779247E+03  0.22728550458E+03  0.17547192444E+03 0.  0.
        -24    2    5    5    0    0 -0.12955352732E+02 -0.11176957616E+02  0.22305467184E+02  0.89072018631E+02  0.84519377014E+02 0.  0.
          2    1    4    4  501    0  0.77282463921E+01 -0.36219184630E+02  0.24035068034E+03  0.24318718031E+03  0.00000000000E+00 0. -1.
         -1    1    4    4    0  501 -0.32343860559E+02 -0.24408289325E+02  0.46045375312E+02  0.61335686931E+02  0.00000000000E+00 0.  1.
          5    1    3    3  502    0 -0.18657094126E+02 -0.10042962389E+02 -0.16289364267E+02  0.27136352795E+02  0.47000000000E+01 0. -1.
         11    1    6    6    0    0  0.17267131101E+02 -0.39109637647E+02  0.10764003248E+01  0.42765362280E+02  0.00000000000E+00 0. -1.
        -12    1    6    6    0    0 -0.30222483832E+02  0.27932680031E+02  0.21229066859E+02  0.46306656351E+02  0.00000000000E+00 0.  1.
         -5    1    5    5    0  503  0.56228061024E+02  0.81847393960E+02  0.96022325289E+02  0.13821348595E+03  0.47000000000E+01 0.  1.
<mgrwt>
<rscale>  2 0.19365439E+03</rscale>
<asrwt>0</asrwt>
<pdfrwt beam="1">  1       21 0.72875322E-01 0.19405472E+03</pdfrwt>
<pdfrwt beam="2">  1       21 0.13116173E-01 0.19405472E+03</pdfrwt>
<totfact> 0.84742008E+04</totfact>
</mgrwt>
</event>
<event>
12    1  0.2769346E-001  0.2221830E+03  0.7546771E-02  0.1132438E+00
         21   -1    0    0  504  503  0.00000000000E+00  0.00000000000E+00  0.14776662475E+03  0.14776662475E+03  0.00000000000E+00 0.  1.
         21   -1    0    0  502  504 -0.00000000000E+00 -0.00000000000E+00 -0.33267463155E+03  0.33267463155E+03  0.00000000000E+00 0.  1.
          6    2    1    2  502    0  0.13978747061E+01  0.13971946097E+03 -0.92726130250E+02  0.23989443197E+03  0.17154510028E+03 0.  0.
         24    2    3    3    0    0  0.20429008109E+02  0.13001490181E+03 -0.12604241441E+03  0.20003935328E+03  0.82509596811E+02 0.  0.
         -6    2    1    2    0  503 -0.13978747061E+01 -0.13971946097E+03 -0.92181876545E+02  0.24054682434E+03  0.17274777714E+03 0.  0.
        -24    2    5    5    0    0  0.55331942611E+01 -0.14034182751E+03 -0.12580113405E+03  0.20589467387E+03  0.82705783429E+02 0.  0.
          4    1    4    4  501    0  0.42124152029E+02  0.33032780537E+02 -0.27891333095E+02  0.60361703389E+02  0.00000000000E+00 0. -1.
         -3    1    4    4    0  501 -0.21695143920E+02  0.96982121271E+02 -0.98151081314E+02  0.13967764989E+03  0.00000000000E+00 0.  1.
          5    1    3    3  502    0 -0.19031133402E+02  0.97045591654E+01  0.33316284158E+02  0.39855078689E+02  0.47000000000E+01 0. -1.
         13    1    6    6    0    0 -0.37131321125E+02 -0.43650729129E+02 -0.44099874425E+02  0.72311272194E+02  0.00000000000E+00 0. -1.
        -14    1    6    6    0    0  0.42664515387E+02 -0.96691098383E+02 -0.81701259621E+02  0.13358340168E+03  0.00000000000E+00 0.  1.
         -5    1    5    5    0  503 -0.69310689672E+01  0.62236653791E+00  0.33619257500E+02  0.34652150467E+02  0.47000000000E+01 0.  1.
<mgrwt>
<rscale>  2 0.22194916E+03</rscale>
<asrwt>0</asrwt>
<pdfrwt beam="1">  1       21 0.22733327E-01 0.22218298E+03</pdfrwt>
<pdfrwt beam="2">  1       21 0.51180712E-01 0.22218298E+03</pdfrwt>
<totfact> 0.64993654E+04</totfact>
</mgrwt>
</event>
<event>
12    1  0.2769346E-001  0.1887232E+03  0.7546771E-02  0.1159666E+00
         21   -1    0    0  504  503  0.00000000000E+00  0.00000000000E+00  0.10682135486E+03  0.10682135486E+03  0.00000000000E+00 0.  1.
         21   -1    0    0  502  504 -0.00000000000E+00 -0.00000000000E+00 -0.34228882390E+03  0.34228882390E+03  0.00000000000E+00 0.  1.
          6    2    1    2  502    0 -0.72912181958E+02 -0.22553097696E+01 -0.15456727915E+03  0.24377805679E+03  0.17382584528E+03 0.  0.
         24    2    3    3    0    0 -0.80945673174E+02 -0.16451040003E+02 -0.17965165089E+03  0.21348991648E+03  0.80500869873E+02 0.  0.
         -6    2    1    2    0  503  0.72912181958E+02  0.22553097696E+01 -0.80900189888E+02  0.20533212196E+03  0.17405506854E+03 0.  0.
        -24    2    5    5    0    0  0.50849767386E+02  0.24607514801E+02 -0.11988813670E+03  0.15504771878E+03  0.80469877275E+02 0.  0.
          2    1    4    4  501    0 -0.64126114745E+02  0.16855785629E+02 -0.15549173965E+03  0.16903833057E+03  0.00000000000E+00 0. -1.
         -1    1    4    4    0  501 -0.16819558429E+02 -0.33306825632E+02 -0.24159911238E+02  0.44451585916E+02  0.00000000000E+00 0.  1.
          5    1    3    3  502    0  0.80334912165E+01  0.14195730233E+02  0.25084371734E+02  0.30288140307E+02  0.47000000000E+01 0. -1.
         13    1    6    6    0    0  0.38509958163E+00  0.30077675087E+02 -0.64405483010E+01  0.30761916435E+02  0.00000000000E+00 0. -1.
        -14    1    6    6    0    0  0.50464667805E+02 -0.54701602859E+01 -0.11344758840E+03  0.12428580235E+03  0.00000000000E+00 0.  1.
         -5    1    5    5    0  503  0.22062414571E+02 -0.22352205031E+02  0.38987946816E+02  0.50284403183E+02  0.47000000000E+01 0.  1.
<mgrwt>
<rscale>  2 0.18867031E+03</rscale>
<asrwt>0</asrwt>
<pdfrwt beam="1">  1       21 0.16434055E-01 0.18872318E+03</pdfrwt>
<pdfrwt beam="2">  1       21 0.52659819E-01 0.18872318E+03</pdfrwt>
<totfact> 0.11365972E+05</totfact>
</mgrwt>
</event>
<event>
12    1  0.2769346E-001  0.2199990E+03  0.7546771E-02  0.1134423E+00
         21   -1    0    0  504  503  0.00000000000E+00  0.00000000000E+00  0.81963267707E+02  0.81963267707E+02  0.00000000000E+00 0. -1.
         21   -1    0    0  502  504 -0.00000000000E+00 -0.00000000000E+00 -0.64436729575E+03  0.64436729575E+03  0.00000000000E+00 0. -1.
          6    2    1    2  502    0  0.12841296355E+03 -0.28203660803E+02 -0.39177370335E+03  0.44791668616E+03  0.17279290325E+03 0.  0.
         24    2    3    3    0    0  0.15459931994E+03 -0.20066302067E+02 -0.26226529850E+03  0.31545363925E+03  0.80151765532E+02 0.  0.
         -6    2    1    2    0  503 -0.12841296355E+03  0.28203660803E+02 -0.17063032469E+03  0.27841387730E+03  0.17639230051E+03 0.  0.
        -24    2    5    5    0    0 -0.13387011423E+03  0.24156754533E+02 -0.19610078203E+03  0.25163716837E+03  0.79755824364E+02 0.  0.
          4    1    4    4  501    0  0.13921047696E+03  0.23553409363E+01 -0.24879999552E+03  0.28510794850E+03  0.00000000000E+00 0. -1.
         -3    1    4    4    0  501  0.15388842976E+02 -0.22421643003E+02 -0.13465302982E+02  0.30345690757E+02  0.00000000000E+00 0.  1.
          5    1    3    3  502    0 -0.26186356390E+02 -0.81373587359E+01 -0.12950840485E+03  0.13246304690E+03  0.47000000000E+01 0. -1.
         11    1    6    6    0    0 -0.31966414860E+02 -0.12380733195E+02 -0.10399907760E+03  0.10950316149E+03  0.00000000000E+00 0. -1.
        -12    1    6    6    0    0 -0.10190369937E+03  0.36537487728E+02 -0.92101704427E+02  0.14213400689E+03  0.00000000000E+00 0.  1.
         -5    1    5    5    0  503  0.54571506840E+01  0.40469062704E+01  0.25470457338E+02  0.26776708927E+02  0.47000000000E+01 0.  1.
<mgrwt>
<rscale>  2 0.21927667E+03</rscale>
<asrwt>0</asrwt>
<pdfrwt beam="1">  1       21 0.12609733E-01 0.21999904E+03</pdfrwt>
<pdfrwt beam="2">  1       21 0.99133432E-01 0.21999904E+03</pdfrwt>
<totfact> 0.44373558E+04</totfact>
</mgrwt>
</event>
<event>
12    1  0.2769346E-001  0.2420454E+03  0.7546771E-02  0.1119538E+00
         21   -1    0    0  504  503  0.00000000000E+00  0.00000000000E+00  0.58939025986E+03  0.58939025986E+03  0.00000000000E+00 0. -1.
         21   -1    0    0  502  504 -0.00000000000E+00 -0.00000000000E+00 -0.20559191919E+03  0.20559191919E+03  0.00000000000E+00 0. -1.
          6    2    1    2  502    0  0.73423338274E+02 -0.14441857378E+03 -0.98592025428E+02  0.25527257483E+03  0.17086833799E+03 0.  0.
         24    2    3    3    0    0  0.88119696667E+02 -0.15512035060E+03 -0.11784705147E+03  0.22837727775E+03  0.80254902301E+02 0.  0.
         -6    2    1    2    0  503 -0.73423338274E+02  0.14441857378E+03  0.48239036610E+03  0.53970960422E+03  0.17982847527E+03 0.  0.
        -24    2    5    5    0    0  0.11456912399E+01  0.19394688264E+02  0.26699106581E+03  0.27968948831E+03  0.81021689099E+02 0.  0.
          2    1    4    4  501    0  0.66869554908E+02 -0.15961893899E+03 -0.97607402028E+02  0.19868806705E+03  0.00000000000E+00 0. -1.
         -1    1    4    4    0  501  0.21250141759E+02  0.44985883965E+01 -0.20239649443E+02  0.29689210699E+02  0.00000000000E+00 0.  1.
          5    1    3    3  502    0 -0.14696358393E+02  0.10701776818E+02  0.19255026043E+02  0.26895297080E+02  0.47000000000E+01 0. -1.
         13    1    6    6    0    0 -0.28998708436E+02  0.21109641300E+02  0.55684726688E+02  0.66236929527E+02  0.00000000000E+00 0. -1.
        -14    1    6    6    0    0  0.30144399676E+02 -0.17149530358E+01  0.21130633913E+03  0.21345255878E+03  0.00000000000E+00 0.  1.
         -5    1    5    5    0  503 -0.74569029514E+02  0.12502388552E+03  0.21539930029E+03  0.26002011591E+03  0.47000000000E+01 0.  1.
<mgrwt>
<rscale>  2 0.24038325E+03</rscale>
<asrwt>0</asrwt>
<pdfrwt beam="1">  1       21 0.90675424E-01 0.24204543E+03</pdfrwt>
<pdfrwt beam="2">  1       21 0.31629526E-01 0.24204543E+03</pdfrwt>
<totfact> 0.96092914E+03</totfact>
</mgrwt>
</event>
<event>
12    1  0.2769346E-001  0.1942549E+03  0.7546771E-02  0.1155481E+00
         21   -1    0    0  504  503  0.00000000000E+00  0.00000000000E+00  0.56453085745E+02  0.56453085745E+02  0.00000000000E+00 0. -1.
         21   -1    0    0  502  504 -0.00000000000E+00 -0.00000000000E+00 -0.19364785510E+04  0.19364785510E+04  0.00000000000E+00 0. -1.
          6    2    1    2  502    0  0.50527687344E+02  0.72180370829E+02 -0.17472894724E+04  0.17576577521E+04  0.16904798126E+03 0.  0.
         24    2    3    3    0    0 -0.19840582838E+02  0.46123752326E+02 -0.60254967473E+03  0.61045160880E+03  0.84047646668E+02 0.  0.
         -6    2    1    2    0  503 -0.50527687344E+02 -0.72180370829E+02 -0.13273599293E+03  0.23527388474E+03  0.17312395530E+03 0.  0.
        -24    2    5    5    0    0 -0.20820263760E+02 -0.33248484409E+02 -0.15653196758E+03  0.18062444553E+03  0.81141779299E+02 0.  0.
          4    1    4    4  501    0 -0.25595150926E+02  0.47003078974E+02 -0.60224907985E+03  0.60462248996E+03  0.00000000000E+00 0. -1.
         -3    1    4    4    0  501  0.57545680879E+01 -0.87932664786E+00 -0.30059488703E+00  0.58291188457E+01  0.00000000000E+00 0.  1.
          5    1    3    3  502    0  0.70368270181E+02  0.26056618503E+02 -0.11447397976E+04  0.11472061433E+04  0.47000000000E+01 0. -1.
         13    1    6    6    0    0  0.20310780461E+01  0.23425202891E+02 -0.19362459866E+02  0.30459321407E+02  0.00000000000E+00 0. -1.
        -14    1    6    6    0    0 -0.22851341806E+02 -0.56673687300E+02 -0.13716950772E+03  0.15016512412E+03  0.00000000000E+00 0.  1.
         -5    1    5    5    0  503 -0.29707423584E+02 -0.38931886421E+02  0.23795974654E+02  0.54649439210E+02  0.47000000000E+01 0.  1.
<mgrwt>
<rscale>  2 0.19334256E+03</rscale>
<asrwt>0</asrwt>
<pdfrwt beam="1">  1       21 0.86850897E-02 0.19425488E+03</pdfrwt>
<pdfrwt beam="2">  1       21 0.29791979E+00 0.19425488E+03</pdfrwt>
<totfact> 0.36413191E+03</totfact>
</mgrwt>
</event>
<event>
12    1  0.2769346E-001  0.1912560E+03  0.7546771E-02  0.1157387E+00
         21   -1    0    0  504  503  0.00000000000E+00  0.00000000000E+00  0.10778395378E+03  0.10778395378E+03  0.00000000000E+00 0. -1.
         21   -1    0    0  502  504 -0.00000000000E+00 -0.00000000000E+00 -0.45298422762E+03  0.45298422762E+03  0.00000000000E+00 0. -1.
          6    2    1    2  502    0 -0.25314926774E+02 -0.78447173672E+02 -0.31319890323E+03  0.36685344022E+03  0.17231682750E+03 0.  0.
         24    2    3    3    0    0 -0.50308861059E+02 -0.87841375382E+02 -0.31391042049E+03  0.33973252516E+03  0.81433088036E+02 0.  0.
         -6    2    1    2    0  503  0.25314926774E+02  0.78447173672E+02 -0.32001370608E+02  0.19391474119E+03  0.17258051615E+03 0.  0.
        -24    2    5    5    0    0  0.37869899854E+02  0.10335429623E+03 -0.63822654291E+02  0.15133920598E+03  0.81938905296E+02 0.  0.
          4    1    4    4  501    0 -0.63467450588E+02 -0.74437907599E+02 -0.18321356136E+03  0.20769287045E+03  0.00000000000E+00 0. -1.
         -3    1    4    4    0  501  0.13158589530E+02 -0.13403467784E+02 -0.13069685914E+03  0.13203965471E+03  0.00000000000E+00 0.  1.
          5    1    3    3  502    0  0.24993934284E+02  0.93942017104E+01  0.71151726327E+00  0.27120915058E+02  0.47000000000E+01 0. -1.
         11    1    6    6    0    0  0.34741482534E+02  0.96120921242E+01 -0.41415541697E+02  0.54905464370E+02  0.00000000000E+00 0. -1.
        -12    1    6    6    0    0  0.31284173200E+01  0.93742204107E+02 -0.22407112594E+02  0.96433741609E+02  0.00000000000E+00 0.  1.
         -5    1    5    5    0  503 -0.12554973080E+02 -0.24907122560E+02  0.31821283683E+02  0.42575535211E+02  0.47000000000E+01 0.  1.
<mgrwt>
<rscale>  2 0.19119645E+03</rscale>
<asrwt>0</asrwt>
<pdfrwt beam="1">  1       21 0.16582147E-01 0.19125595E+03</pdfrwt>
<pdfrwt beam="2">  1       21 0.69689880E-01 0.19125595E+03</pdfrwt>
<totfact> 0.61146431E+04</totfact>
</mgrwt>
</event>
<event>
12    1  0.2769346E-001  0.1897123E+03  0.7546771E-02  0.1161594E+00
         21   -1    0    0  504  503  0.00000000000E+00  0.00000000000E+00  0.99141591147E+03  0.99141591147E+03  0.00000000000E+00 0.  1.
         21   -1    0    0  502  504 -0.00000000000E+00 -0.00000000000E+00 -0.54093693528E+02  0.54093693528E+02  0.00000000000E+00 0. -1.
          6    2    1    2  502    0 -0.50321523762E+02 -0.33842010984E+01  0.15994997549E+03  0.24814261893E+03  0.18288536327E+03 0.  0.
         24    2    3    3    0    0  0.40231707788E+02  0.40292637454E+01  0.52596463355E+02  0.10742405664E+03  0.84490914955E+02 0.  0.
         -6    2    1    2    0  503  0.50321523762E+02  0.33842010984E+01  0.77737224245E+03  0.79736698607E+03  0.17012583155E+03 0.  0.
        -24    2    5    5    0    0 -0.19185624942E+02 -0.21734394791E+01  0.16336591871E+03  0.17939612374E+03  0.71566289360E+02 0.  0.
          2    1    4    4  501    0  0.57246747830E+02  0.59256160878E+01  0.60990022625E+01  0.57874872714E+02  0.00000000000E+00 0. -1.
         -1    1    4    4    0  501 -0.17015040042E+02 -0.18963523424E+01  0.46497461092E+02  0.49549183927E+02  0.00000000000E+00 0.  1.
          5    1    3    3  502    0 -0.90553231550E+02 -0.74134648438E+01  0.10735351213E+03  0.14071856229E+03  0.47000000000E+01 0. -1.
         13    1    6    6    0    0 -0.16585156663E+02  0.33857073932E+02  0.91472523924E+02  0.98937311009E+02  0.00000000000E+00 0. -1.
        -14    1    6    6    0    0 -0.26004682796E+01 -0.36030513411E+02  0.71893394786E+02  0.80458812729E+02  0.00000000000E+00 0.  1.
         -5    1    5    5    0  503  0.69507148704E+02  0.55576405775E+01  0.61400632374E+03  0.61797086233E+03  0.47000000000E+01 0.  1.
<mgrwt>
<rscale>  2 0.18656802E+03</rscale>
<asrwt>0</asrwt>
<pdfrwt beam="1">  1       21 0.15252551E+00 0.18971232E+03</pdfrwt>
<pdfrwt beam="2">  1       21 0.83221074E-02 0.18971232E+03</pdfrwt>
<totfact> 0.32099600E+04</totfact>
</mgrwt>
</event>
<event>
12    1  0.2769346E-001  0.1917156E+03  0.7546771E-02  0.1157161E+00
         21   -1    0    0  504  503  0.00000000000E+00  0.00000000000E+00  0.29009505771E+03  0.29009505771E+03  0.00000000000E+00 0.  1.
         21   -1    0    0  502  504 -0.00000000000E+00 -0.00000000000E+00 -0.33069310433E+03  0.33069310433E+03  0.00000000000E+00 0.  1.
          6    2    1    2  502    0  0.75721598047E+02 -0.26066702767E+02 -0.26448231318E+03  0.32603564978E+03  0.17301767983E+03 0.  0.
         24    2    3    3    0    0 -0.27576900202E+02 -0.22991169394E+02 -0.12853755759E+03  0.15520501663E+03  0.79231396449E+02 0.  0.
         -6    2    1    2    0  503 -0.75721598047E+02  0.26066702767E+02  0.22388426657E+03  0.29475251227E+03  0.17418853369E+03 0.  0.
        -24    2    5    5    0    0 -0.40637876315E+02  0.47432824898E+02  0.46203211062E+02  0.11232437247E+03  0.81121625165E+02 0.  0.
          4    1    4    4  501    0 -0.57744239108E+01 -0.50903842023E+02 -0.69185228430E+02  0.86087983697E+02  0.00000000000E+00 0. -1.
         -3    1    4    4    0  501 -0.21802476291E+02  0.27912672628E+02 -0.59352329156E+02  0.69117032936E+02  0.00000000000E+00 0.  1.
          5    1    3    3  502    0  0.10329849825E+03 -0.30755333732E+01 -0.13594475560E+03  0.17083063314E+03  0.47000000000E+01 0. -1.
         13    1    6    6    0    0  0.23217267461E+02  0.12184127556E+02  0.25333720478E+02  0.36459455097E+02  0.00000000000E+00 0. -1.
        -14    1    6    6    0    0 -0.63855143776E+02  0.35248697342E+02  0.20869490584E+02  0.75864917374E+02  0.00000000000E+00 0.  1.
         -5    1    5    5    0  503 -0.35083721732E+02 -0.21366122131E+02  0.17768105550E+03  0.18242813980E+03  0.47000000000E+01 0.  1.
<mgrwt>
<rscale>  2 0.19144927E+03</rscale>
<asrwt>0</asrwt>
<pdfrwt beam="1">  1       21 0.44630009E-01 0.19171562E+03</pdfrwt>
<pdfrwt beam="2">  1       21 0.50875862E-01 0.19171562E+03</pdfrwt>
<totfact> 0.17721864E+04</totfact>
</mgrwt>
</event>
<event>
12    1  0.2769346E-001  0.2300346E+03  0.7546771E-02  0.1126767E+00
         21   -1    0    0  504  503  0.00000000000E+00  0.00000000000E+00  0.10982605294E+03  0.10982605294E+03  0.00000000000E+00 0.  1.
         21   -1    0    0  502  504 -0.00000000000E+00 -0.00000000000E+00 -0.48015393901E+03  0.48015393901E+03  0.00000000000E+00 0.  1.
          6    2    1    2  502    0 -0.83482300885E+02 -0.12667862641E+03 -0.19047648490E+03  0.29865903693E+03  0.17291373599E+03 0.  0.
         24    2    3    3    0    0 -0.76755836672E+02 -0.86258429264E+02 -0.44181244837E+02  0.14666092865E+03  0.78901650899E+02 0.  0.
         -6    2    1    2    0  503  0.83482300885E+02  0.12667862641E+03 -0.17985140118E+03  0.29132095502E+03  0.17176904081E+03 0.  0.
        -24    2    5    5    0    0 -0.14291035271E+02  0.85276087617E+02 -0.10468335451E+03  0.16114368849E+03  0.86789623926E+02 0.  0.
          2    1    4    4  501    0 -0.82671148340E+02 -0.45660091913E+02 -0.13438552790E+02  0.95393697184E+02  0.00000000000E+00 0. -1.
         -1    1    4    4    0  501  0.59153116677E+01 -0.40598337351E+02 -0.30742692048E+02  0.51267231466E+02  0.00000000000E+00 0.  1.
          5    1    3    3  502    0 -0.67264642128E+01 -0.40420197141E+02 -0.14629524006E+03  0.15199810828E+03  0.47000000000E+01 0. -1.
         11    1    6    6    0    0  0.53933873687E+00  0.28447078120E+02  0.11713040622E+02  0.30768855365E+02  0.00000000000E+00 0. -1.
        -12    1    6    6    0    0 -0.14830374008E+02  0.56829009497E+02 -0.11639639513E+03  0.13037483313E+03  0.00000000000E+00 0.  1.
         -5    1    5    5    0  503  0.97773336156E+02  0.41402538788E+02 -0.75168046667E+02  0.13017726653E+03  0.47000000000E+01 0.  1.
<mgrwt>
<rscale>  2 0.22981952E+03</rscale>
<asrwt>0</asrwt>
<pdfrwt beam="1">  1       21 0.16896315E-01 0.23003463E+03</pdfrwt>
<pdfrwt beam="2">  1       21 0.73869839E-01 0.23003463E+03</pdfrwt>
<totfact> 0.50984989E+04</totfact>
</mgrwt>
</event>
<event>
12    1  0.2769346E-001  0.2148194E+03  0.7546771E-02  0.1138247E+00
         21   -1    0    0  504  503  0.00000000000E+00  0.00000000000E+00  0.20322575900E+03  0.20322575900E+03  0.00000000000E+00 0. -1.
         21   -1    0    0  502  504 -0.00000000000E+00 -0.00000000000E+00 -0.24518195137E+03  0.24518195137E+03  0.00000000000E+00 0. -1.
          6    2    1    2  502    0  0.59595095821E+02  0.10527579986E+03 -0.85727588549E+02  0.22917422362E+03  0.17474849312E+03 0.  0.
         24    2    3    3    0    0  0.10375982401E+03  0.55526168706E+02 -0.74933434211E+02  0.16161570983E+03  0.81580399678E+02 0.  0.
         -6    2    1    2    0  503 -0.59595095821E+02 -0.10527579986E+03  0.43771396185E+02  0.21923348676E+03  0.17751849794E+03 0.  0.
        -24    2    5    5    0    0 -0.25622265425E+02 -0.14994990535E+02  0.79154898181E+02  0.11637990174E+03  0.79983957118E+02 0.  0.
          4    1    4    4  501    0  0.16922413684E+02  0.53097289632E+02 -0.22173878520E+02  0.59978088830E+02  0.00000000000E+00 0. -1.
         -3    1    4    4    0  501  0.86837410331E+02  0.24288790744E+01 -0.52759555691E+02  0.10163762100E+03  0.00000000000E+00 0.  1.
          5    1    3    3  502    0 -0.44164728194E+02  0.49749631156E+02 -0.10794154338E+02  0.67558513782E+02  0.47000000000E+01 0. -1.
         13    1    6    6    0    0 -0.38181259205E+02 -0.36492618619E+02  0.74064697944E+02  0.90967572517E+02  0.00000000000E+00 0. -1.
        -14    1    6    6    0    0  0.12558993780E+02  0.21497628084E+02  0.50902002370E+01  0.25412329222E+02  0.00000000000E+00 0.  1.
         -5    1    5    5    0  503 -0.33972830396E+02 -0.90280809327E+02 -0.35383501996E+02  0.10285358502E+03  0.47000000000E+01 0.  1.
<mgrwt>
<rscale>  2 0.21424631E+03</rscale>
<asrwt>0</asrwt>
<pdfrwt beam="1">  1       21 0.31265501E-01 0.21481943E+03</pdfrwt>
<pdfrwt beam="2">  1       21 0.37720300E-01 0.21481943E+03</pdfrwt>
<totfact> 0.65974938E+04</totfact>
</mgrwt>
</event>
<event>
12    1  0.2769346E-001  0.2050256E+03  0.7546771E-02  0.1145988E+00
         21   -1    0    0  504  503  0.00000000000E+00  0.00000000000E+00  0.21633508949E+03  0.21633508949E+03  0.00000000000E+00 0.  1.
         21   -1    0    0  502  504 -0.00000000000E+00 -0.00000000000E+00 -0.19697047599E+03  0.19697047599E+03  0.00000000000E+00 0.  1.
          6    2    1    2  502    0  0.89276078909E+02 -0.64753766331E+02  0.41311097467E+02  0.20914616173E+03  0.17283588075E+03 0.  0.
         24    2    3    3    0    0  0.11437293457E+03 -0.13077761587E+02  0.55822903562E+02  0.14970758717E+03  0.77742968058E+02 0.  0.
         -6    2    1    2    0  503 -0.89276078909E+02  0.64753766331E+02 -0.21946483971E+02  0.20415940375E+03  0.17039995734E+03 0.  0.
        -24    2    5    5    0    0 -0.12131358630E+03  0.54754369943E+02 -0.43232406330E+01  0.16596177930E+03  0.99043397209E+02 0.  0.
          2    1    4    4  501    0  0.87217657054E+02  0.15707899310E+02  0.63979790452E+02  0.10930265957E+03  0.00000000000E+00 0. -1.
         -1    1    4    4    0  501  0.27155277517E+02 -0.28785660897E+02 -0.81568868905E+01  0.40404927596E+02  0.00000000000E+00 0.  1.
          5    1    3    3  502    0 -0.25096855662E+02 -0.51676004744E+02 -0.14511806095E+02  0.59438574567E+02  0.47000000000E+01 0. -1.
         13    1    6    6    0    0  0.10349928131E+02 -0.79900314690E+00  0.18532622989E+02  0.21241881583E+02  0.00000000000E+00 0. -1.
        -14    1    6    6    0    0 -0.13166351443E+03  0.55553373090E+02 -0.22855863622E+02  0.14471989772E+03  0.00000000000E+00 0.  1.
         -5    1    5    5    0  503  0.32037507388E+02  0.99993963874E+01 -0.17623243338E+02  0.38197624449E+02  0.47000000000E+01 0.  1.
<mgrwt>
<rscale>  2 0.20451139E+03</rscale>
<asrwt>0</asrwt>
<pdfrwt beam="1">  1       21 0.33282321E-01 0.20502563E+03</pdfrwt>
<pdfrwt beam="2">  1       21 0.30303150E-01 0.20502563E+03</pdfrwt>
<totfact> 0.90374941E+04</totfact>
</mgrwt>
</event>
<event>
12    1  0.2769346E-001  0.2081215E+03  0.7546771E-02  0.1143141E+00
         21   -1    0    0  504  503  0.00000000000E+00  0.00000000000E+00  0.19595283520E+03  0.19595283520E+03  0.00000000000E+00 0. -1.
         21   -1    0    0  502  504 -0.00000000000E+00 -0.00000000000E+00 -0.46571675335E+03  0.46571675335E+03  0.00000000000E+00 0. -1.
          6    2    1    2  502    0 -0.10342449968E+03  0.48826789899E+02 -0.37482124689E+03  0.42853532754E+03  0.17340956515E+03 0.  0.
         24    2    3    3    0    0  0.85538242057E+01  0.24410301037E+02 -0.22476072404E+03  0.23965557621E+03  0.79046704095E+02 0.  0.
         -6    2    1    2    0  503  0.10342449968E+03 -0.48826789899E+02  0.10505732873E+03  0.23313426101E+03  0.17387886241E+03 0.  0.
        -24    2    5    5    0    0  0.76360728441E+02  0.19149439212E+02  0.11222988847E+03  0.15946777575E+03  0.81466322902E+02 0.  0.
          4    1    4    4  501    0  0.87364447373E+01 -0.21513119991E+02 -0.15094346494E+03  0.15271892289E+03  0.00000000000E+00 0. -1.
         -3    1    4    4    0  501 -0.18262053160E+00  0.45923421028E+02 -0.73817259101E+02  0.86936653320E+02  0.00000000000E+00 0.  1.
          5    1    3    3  502    0 -0.11197832388E+03  0.24416488862E+02 -0.15006052284E+03  0.18887975133E+03  0.47000000000E+01 0. -1.
         11    1    6    6    0    0  0.76301568435E+02  0.27257016071E+02  0.46863636958E+02  0.93600612924E+02  0.00000000000E+00 0. -1.
        -12    1    6    6    0    0  0.59160006055E-01 -0.81075768595E+01  0.65366251510E+02  0.65867162827E+02  0.00000000000E+00 0.  1.
         -5    1    5    5    0  503  0.27063771238E+02 -0.67976229110E+02 -0.71725597403E+01  0.73666485262E+02  0.47000000000E+01 0.  1.
<mgrwt>
<rscale>  2 0.20802341E+03</rscale>
<asrwt>0</asrwt>
<pdfrwt beam="1">  1       21 0.30146590E-01 0.20812146E+03</pdfrwt>
<pdfrwt beam="2">  1       21 0.71648730E-01 0.20812146E+03</pdfrwt>
<totfact> 0.18402839E+04</totfact>
</mgrwt>
</event>
<event>
12    1  0.2769346E-001  0.1742497E+03  0.7546771E-02  0.1174029E+00
         21   -1    0    0  504  503  0.00000000000E+00  0.00000000000E+00  0.43031726418E+03  0.43031726418E+03  0.00000000000E+00 0. -1.
         21   -1    0    0  502  504 -0.00000000000E+00 -0.00000000000E+00 -0.10102023774E+03  0.10102023774E+03  0.00000000000E+00 0. -1.
          6    2    1    2  502    0 -0.94198150974E+01  0.63439888975E-01  0.17418522092E+02  0.17511815229E+03  0.17399490052E+03 0.  0.
         24    2    3    3    0    0 -0.40551942797E+02  0.43468894695E+02 -0.32788413863E+02  0.10166020990E+03  0.75668443377E+02 0.  0.
         -6    2    1    2    0  503  0.94198150974E+01 -0.63439888975E-01  0.31187850435E+03  0.35621934963E+03  0.17185833305E+03 0.  0.
        -24    2    5    5    0    0  0.46943364500E+02 -0.50947634088E+02  0.16682142518E+03  0.19791311414E+03  0.80875657398E+02 0.  0.
          4    1    4    4  501    0 -0.18562308412E+02 -0.12662600597E+02  0.12998297143E+02  0.25958745657E+02  0.00000000000E+00 0. -1.
         -3    1    4    4    0  501 -0.21989634384E+02  0.56131495292E+02 -0.45786711005E+02  0.75701464245E+02  0.00000000000E+00 0.  1.
          5    1    3    3  502    0  0.31132127699E+02 -0.43405454806E+02  0.50206935954E+02  0.73457942389E+02  0.47000000000E+01 0. -1.
         11    1    6    6    0    0  0.40617674245E+02  0.12677595267E+02  0.66168424216E+02  0.78668781902E+02  0.00000000000E+00 0. -1.
        -12    1    6    6    0    0  0.63256902556E+01 -0.63625229355E+02  0.10065300096E+03  0.11924433224E+03  0.00000000000E+00 0.  1.
         -5    1    5    5    0  503 -0.37523549403E+02  0.50884194199E+02  0.14505707917E+03  0.15830623549E+03  0.47000000000E+01 0.  1.
<mgrwt>
<rscale>  2 0.17371390E+03</rscale>
<asrwt>0</asrwt>
<pdfrwt beam="1">  1       21 0.66202655E-01 0.17424971E+03</pdfrwt>
<pdfrwt beam="2">  1       21 0.15541575E-01 0.17424971E+03</pdfrwt>
<totfact> 0.77606572E+04</totfact>
</mgrwt>
</event>
<event>
12    1  0.2769346E-001  0.1903440E+03  0.7546771E-02  0.1158718E+00
         21   -1    0    0  504  503  0.00000000000E+00  0.00000000000E+00  0.50302229458E+03  0.50302229458E+03  0.00000000000E+00 0. -1.
         21   -1    0    0  502  504 -0.00000000000E+00 -0.00000000000E+00 -0.77906139739E+02  0.77906139739E+02  0.00000000000E+00 0. -1.
          6    2    1    2  502    0  0.11888053421E+02  0.77650751279E+02  0.29723034334E+03  0.35161286567E+03  0.17063049350E+03 0.  0.
         24    2    3    3    0    0  0.41892246428E+02 -0.72270739763E+01  0.19303221385E+03  0.21383101996E+03  0.81578665125E+02 0.  0.
         -6    2    1    2    0  503 -0.11888053421E+02 -0.77650751279E+02  0.12788581150E+03  0.22931556865E+03  0.17337786552E+03 0.  0.
        -24    2    5    5    0    0  0.52571972258E+01 -0.34642096475E+02 -0.49434551672E+01  0.88569669630E+02  0.81193815396E+02 0.  0.
          2    1    4    4  501    0  0.28711452387E+02 -0.21497847151E+02  0.19095430194E+03  0.19429372187E+03  0.00000000000E+00 0. -1.
         -1    1    4    4    0  501  0.13180794041E+02  0.14270773175E+02  0.20779119108E+01  0.19537298085E+02  0.00000000000E+00 0.  1.
          5    1    3    3  502    0 -0.30004193007E+02  0.84877825255E+02  0.10419812950E+03  0.13778184571E+03  0.47000000000E+01 0. -1.
         11    1    6    6    0    0 -0.27710250845E+02 -0.18053852913E+02 -0.29437005426E+02  0.44275691924E+02  0.00000000000E+00 0. -1.
        -12    1    6    6    0    0  0.32967448071E+02 -0.16588243563E+02  0.24493550258E+02  0.44293977706E+02  0.00000000000E+00 0.  1.
         -5    1    5    5    0  503 -0.17145250647E+02 -0.43008654804E+02  0.13282926666E+03  0.14074589902E+03  0.47000000000E+01 0.  1.
<mgrwt>
<rscale>  2 0.18971616E+03</rscale>
<asrwt>0</asrwt>
<pdfrwt beam="1">  1       21 0.77388043E-01 0.19034403E+03</pdfrwt>
<pdfrwt beam="2">  1       21 0.11985560E-01 0.19034403E+03</pdfrwt>
<totfact> 0.87248035E+04</totfact>
</mgrwt>
</event>
<event>
12    1  0.2769346E-001  0.2149459E+03  0.7546771E-02  0.1137722E+00
         21   -1    0    0  504  503  0.00000000000E+00  0.00000000000E+00  0.22196100100E+03  0.22196100100E+03  0.00000000000E+00 0.  1.
         21   -1    0    0  502  504 -0.00000000000E+00 -0.00000000000E+00 -0.21195210831E+03  0.21195210831E+03  0.00000000000E+00 0.  1.
          6    2    1    2  502    0 -0.11611807618E+01 -0.12743302912E+03  0.34321526017E+02  0.21766876317E+03  0.17309303297E+03 0.  0.
         24    2    3    3    0    0  0.39487058473E+02 -0.13555515131E+03  0.55301296034E+02  0.17097305703E+03  0.78988138704E+02 0.  0.
         -6    2    1    2    0  503  0.11611807618E+01  0.12743302912E+03 -0.24312633326E+02  0.21624434613E+03  0.17300285502E+03 0.  0.
        -24    2    5    5    0    0  0.67316060326E+02  0.72240546482E+02  0.41606604799E+00  0.12648758147E+03  0.79049267051E+02 0.  0.
          4    1    4    4  501    0 -0.20562187023E+02 -0.27444177233E+02 -0.26598297676E+01  0.34395655155E+02  0.00000000000E+00 0. -1.
         -3    1    4    4    0  501  0.60049245496E+02 -0.10811097407E+03  0.57961125802E+02  0.13657740188E+03  0.00000000000E+00 0.  1.
          5    1    3    3  502    0 -0.40648239235E+02  0.81221221865E+01 -0.20979770017E+02  0.46695706137E+02  0.47000000000E+01 0. -1.
         13    1    6    6    0    0  0.64095817062E+02  0.72765871723E+02 -0.25580445490E+02  0.10028711305E+03  0.00000000000E+00 0. -1.
        -14    1    6    6    0    0  0.32202432644E+01 -0.52532524029E+00  0.25996511538E+02  0.26200468420E+02  0.00000000000E+00 0.  1.
         -5    1    5    5    0  503 -0.66154879565E+02  0.55192482637E+02 -0.24728699374E+02  0.89756764662E+02  0.47000000000E+01 0.  1.
<mgrwt>
<rscale>  2 0.21492771E+03</rscale>
<asrwt>0</asrwt>
<pdfrwt beam="1">  1       21 0.34147846E-01 0.21494586E+03</pdfrwt>
<pdfrwt beam="2">  1       21 0.32608017E-01 0.21494586E+03</pdfrwt>
<totfact> 0.74077209E+04</totfact>
</mgrwt>
</event>
<event>
12    1  0.2769346E-001  0.2134285E+03  0.7546771E-02  0.1138882E+00
         21   -1    0    0  504  503  0.00000000000E+00  0.00000000000E+00  0.82920983291E+03  0.82920983291E+03  0.00000000000E+00 0.  1.
         21   -1    0    0  502  504 -0.00000000000E+00 -0.00000000000E+00 -0.56701377923E+02  0.56701377923E+02  0.00000000000E+00 0.  1.
          6    2    1    2  502    0 -0.11217255655E+03 -0.54592022904E+02  0.30796020118E+03  0.37468051859E+03  0.17315609747E+03 0.  0.
         24    2    3    3    0    0  0.27945404353E+01  0.57990020427E+01  0.82931544722E+02  0.11482576010E+03  0.79157287672E+02 0.  0.
         -6    2    1    2    0  503  0.11217255655E+03  0.54592022904E+02  0.46454825381E+03  0.51123069225E+03  0.17317265711E+03 0.  0.
        -24    2    5    5    0    0  0.11281063078E+03  0.84224256110E+02  0.27279711937E+03  0.31714549461E+03  0.79643158392E+02 0.  0.
          2    1    4    4  501    0  0.30132410296E+02  0.26395408267E+02  0.24064379145E+02  0.46730868507E+02  0.00000000000E+00 0. -1.
         -1    1    4    4    0  501 -0.27337869861E+02 -0.20596406224E+02  0.58867165577E+02  0.68094891592E+02  0.00000000000E+00 0.  1.
          5    1    3    3  502    0 -0.11496709698E+03 -0.60391024947E+02  0.22502865645E+03  0.25985475849E+03  0.47000000000E+01 0. -1.
         11    1    6    6    0    0 -0.88655067407E+01  0.59553943282E+01  0.52596380385E+02  0.53669760210E+02  0.00000000000E+00 0. -1.
        -12    1    6    6    0    0  0.12167613752E+03  0.78268861781E+02  0.22020073898E+03  0.26347573440E+03  0.00000000000E+00 0.  1.
         -5    1    5    5    0  503 -0.63807423214E+00 -0.29632233206E+02  0.19175113444E+03  0.19408519764E+03  0.47000000000E+01 0.  1.
<mgrwt>
<rscale>  2 0.21342518E+03</rscale>
<asrwt>0</asrwt>
<pdfrwt beam="1">  1       21 0.12757074E+00 0.21342854E+03</pdfrwt>
<pdfrwt beam="2">  1       21 0.87232895E-02 0.21342854E+03</pdfrwt>
<totfact> 0.46246572E+04</totfact>
</mgrwt>
</event>
<event>
12    1  0.2769346E-001  0.2038859E+03  0.7546771E-02  0.1147755E+00
         21   -1    0    0  504  503  0.00000000000E+00  0.00000000000E+00  0.34678120908E+03  0.34678120908E+03  0.00000000000E+00 0.  1.
         21   -1    0    0  502  504 -0.00000000000E+00 -0.00000000000E+00 -0.11833036368E+03  0.11833036368E+03  0.00000000000E+00 0.  1.
          6    2    1    2  502    0  0.15361402759E+02 -0.10796947984E+03  0.85980748639E+02  0.22127393426E+03  0.17226747682E+03 0.  0.
         24    2    3    3    0    0  0.47906646428E+02 -0.74947587567E+00  0.34357522445E+02  0.97813942277E+02  0.78048186841E+02 0.  0.
         -6    2    1    2    0  503 -0.15361402759E+02  0.10796947984E+03  0.14247009676E+03  0.24383763851E+03  0.16512323946E+03 0.  0.
        -24    2    5    5    0    0 -0.12491597577E+02 -0.90349653233E+01  0.70372054232E+02  0.10629312314E+03  0.78155814892E+02 0.  0.
          4    1    4    4  501    0  0.14011197537E+01 -0.60458264363E+01 -0.22976789796E+02  0.23800168554E+02  0.00000000000E+00 0. -1.
         -3    1    4    4    0  501  0.46505526675E+02  0.52963505606E+01  0.57334312241E+02  0.74013773723E+02  0.00000000000E+00 0.  1.
          5    1    3    3  502    0 -0.32545243669E+02 -0.10722000397E+03  0.51623226194E+02  0.12345999198E+03  0.47000000000E+01 0. -1.
         11    1    6    6    0    0  0.15109770727E+02  0.28978349679E+02  0.28370157183E+02  0.43277196537E+02  0.00000000000E+00 0. -1.
        -12    1    6    6    0    0 -0.27601368304E+02 -0.38013315003E+02  0.42001897049E+02  0.63015926602E+02  0.00000000000E+00 0.  1.
         -5    1    5    5    0  503 -0.28698051817E+01  0.11700444517E+03  0.72098042529E+02  0.13754451537E+03  0.47000000000E+01 0.  1.
<mgrwt>
<rscale>  2 0.20236922E+03</rscale>
<asrwt>0</asrwt>
<pdfrwt beam="1">  1       21 0.53350955E-01 0.20388591E+03</pdfrwt>
<pdfrwt beam="2">  1       21 0.18204671E-01 0.20388591E+03</pdfrwt>
<totfact> 0.91023718E+04</totfact>
</mgrwt>
</event>
<event>
12    1  0.2769346E-001  0.2243277E+03  0.7546771E-02  0.1131291E+00
         21   -1    0    0  504  503  0.00000000000E+00  0.00000000000E+00  0.17209967953E+04  0.17209967953E+04  0.00000000000E+00 0.  1.
         21   -1    0    0  502  504 -0.00000000000E+00 -0.00000000000E+00 -0.31986610260E+02  0.31986610260E+02  0.00000000000E+00 0.  1.
          6    2    1    2  502    0  0.48072982348E+02 -0.13394886877E+03  0.57424993073E+03  0.61651107321E+03  0.17340590926E+03 0.  0.
         24    2    3    3    0    0  0.58845638653E+02 -0.12291200342E+03  0.57888457301E+03  0.59973512526E+03  0.77490011157E+02 0.  0.
         -6    2    1    2    0  503 -0.48072982348E+02  0.13394886877E+03  0.11147602543E+04  0.11364723323E+04  0.16919109474E+03 0.  0.
        -24    2    5    5    0    0 -0.95574896899E+02  0.11047868649E+03  0.87018032869E+03  0.88617508635E+03  0.82172855238E+02 0.  0.
          2    1    4    4  501    0  0.56396179170E+02 -0.47737841954E+02  0.37971054100E+03  0.38683268415E+03  0.00000000000E+00 0. -1.
         -1    1    4    4    0  501  0.24494594833E+01 -0.75174161470E+02  0.19917403201E+03  0.21290244111E+03  0.00000000000E+00 0.  1.
          5    1    3    3  502    0 -0.10772656305E+02 -0.11036865348E+02 -0.46346422753E+01  0.16775947949E+02  0.47000000000E+01 0. -1.
         13    1    6    6    0    0 -0.62237536493E+02  0.17468037415E+02  0.44466826631E+03  0.44934230865E+03  0.00000000000E+00 0. -1.
        -14    1    6    6    0    0 -0.33337360406E+02  0.93010649070E+02  0.42551206238E+03  0.43683277769E+03  0.00000000000E+00 0.  1.
         -5    1    5    5    0  503  0.47501914551E+02  0.23470182286E+02  0.24457992560E+03  0.25029724599E+03  0.47000000000E+01 0.  1.
<mgrwt>
<rscale>  2 0.22351280E+03</rscale>
<asrwt>0</asrwt>
<pdfrwt beam="1">  1       21 0.26476867E+00 0.22432771E+03</pdfrwt>
<pdfrwt beam="2">  1       21 0.49210183E-02 0.22432771E+03</pdfrwt>
<totfact> 0.14643433E+04</totfact>
</mgrwt>
</event>
<event>
12    1  0.2769346E-001  0.2116238E+03  0.7546771E-02  0.1141156E+00
         21   -1    0    0  504  503  0.00000000000E+00  0.00000000000E+00  0.11040868081E+04  0.11040868081E+04  0.00000000000E+00 0.  1.
         21   -1    0    0  502  504 -0.00000000000E+00 -0.00000000000E+00 -0.40329451882E+02  0.40329451882E+02  0.00000000000E+00 0. -1.
          6    2    1    2  502    0 -0.10016252501E+03  0.52085282604E+02  0.60735487701E+03  0.64316762258E+03  0.17899507264E+03 0.  0.
         24    2    3    3    0    0 -0.47196265565E+02  0.77595889233E+02  0.22113475870E+03  0.25247044384E+03  0.81191957712E+02 0.  0.
         -6    2    1    2    0  503  0.10016252501E+03 -0.52085282604E+02  0.45640247923E+03  0.50124863743E+03  0.17378597582E+03 0.  0.
        -24    2    5    5    0    0  0.12123245357E+03 -0.51248417055E+02  0.23879441050E+03  0.28257078347E+03  0.74160428361E+02 0.  0.
          2    1    4    4  501    0 -0.39784053423E+02  0.39399460615E+02  0.44276488374E+02  0.71382741796E+02  0.00000000000E+00 0. -1.
         -1    1    4    4    0  501 -0.74122121412E+01  0.38196428618E+02  0.17685827033E+03  0.18108770204E+03  0.00000000000E+00 0.  1.
          5    1    3    3  502    0 -0.52966259446E+02 -0.25510606629E+02  0.38622011831E+03  0.39069717875E+03  0.47000000000E+01 0. -1.
         11    1    6    6    0    0  0.50273189368E+02 -0.59702602625E+02  0.10429687831E+03  0.13026754452E+03  0.00000000000E+00 0. -1.
        -12    1    6    6    0    0  0.70959264204E+02  0.84541855701E+01  0.13449753219E+03  0.15230323895E+03  0.00000000000E+00 0.  1.
         -5    1    5    5    0  503 -0.21069928562E+02 -0.83686554879E+00  0.21760806874E+03  0.21867785396E+03  0.47000000000E+01 0.  1.
<mgrwt>
<rscale>  2 0.21051837E+03</rscale>
<asrwt>0</asrwt>
<pdfrwt beam="1">  1       21 0.16985949E+00 0.21162383E+03</pdfrwt>
<pdfrwt beam="2">  1       21 0.62045319E-02 0.21162383E+03</pdfrwt>
<totfact> 0.39352601E+04</totfact>
</mgrwt>
</event>
<event>
12    1  0.2769346E-001  0.2634903E+03  0.7546771E-02  0.1105259E+00
         21   -1    0    0  504  503  0.00000000000E+00  0.00000000000E+00  0.73747605563E+02  0.73747605563E+02  0.00000000000E+00 0. -1.
         21   -1    0    0  502  504 -0.00000000000E+00 -0.00000000000E+00 -0.17350786196E+04  0.17350786196E+04  0.00000000000E+00 0.  1.
          6    2    1    2  502    0  0.70107707413E+02  0.18696302907E+03 -0.14452818770E+04  0.14691041035E+04  0.17192119746E+03 0.  0.
         24    2    3    3    0    0  0.70086644196E+02  0.19921143113E+03 -0.14342295082E+04  0.14519498430E+04  0.80911881526E+02 0.  0.
         -6    2    1    2    0  503 -0.70107707413E+02 -0.18696302907E+03 -0.21604913702E+03  0.33972212162E+03  0.16989298229E+03 0.  0.
        -24    2    5    5    0    0 -0.64196735667E+02 -0.19931591467E+03 -0.14501580901E+03  0.26722828010E+03  0.80828918791E+02 0.  0.
          4    1    4    4  501    0  0.55035654622E+01  0.95869201251E+02 -0.83132829824E+03  0.83685598070E+03  0.00000000000E+00 0. -1.
         -3    1    4    4    0  501  0.64583078733E+02  0.10334222988E+03 -0.60290120993E+03  0.61509386233E+03  0.00000000000E+00 0.  1.
          5    1    3    3  502    0  0.21063217791E-01 -0.12248402054E+02 -0.11052368827E+02  0.17154260497E+02  0.47000000000E+01 0. -1.
         11    1    6    6    0    0 -0.12661607036E+02 -0.15615333296E+03 -0.11005226238E+03  0.19145673178E+03  0.00000000000E+00 0. -1.
        -12    1    6    6    0    0 -0.51535128631E+02 -0.43162581709E+02 -0.34963546624E+02  0.75771548324E+02  0.00000000000E+00 0.  1.
         -5    1    5    5    0  503 -0.59109717467E+01  0.12352885593E+02 -0.71033328015E+02  0.72493841521E+02  0.47000000000E+01 0.  1.
<mgrwt>
<rscale>  2 0.26316001E+03</rscale>
<asrwt>0</asrwt>
<pdfrwt beam="1">  1       21 0.11345787E-01 0.26349035E+03</pdfrwt>
<pdfrwt beam="2">  1       21 0.26693514E+00 0.26349035E+03</pdfrwt>
<totfact> 0.32063455E+03</totfact>
</mgrwt>
</event>
<event>
12    1  0.2769346E-001  0.1825994E+03  0.7546771E-02  0.1166199E+00
         21   -1    0    0  504  503  0.00000000000E+00  0.00000000000E+00  0.18509648049E+03  0.18509648049E+03  0.00000000000E+00 0.  1.
         21   -1    0    0  502  504 -0.00000000000E+00 -0.00000000000E+00 -0.39980673787E+03  0.39980673787E+03  0.00000000000E+00 0.  1.
          6    2    1    2  502    0  0.27231029963E+02 -0.36762595943E+02 -0.32639750918E+03  0.37400250465E+03  0.17677534340E+03 0.  0.
         24    2    3    3    0    0 -0.18910315949E+02 -0.37673799439E+02 -0.31304426361E+03  0.32572980779E+03  0.79537924894E+02 0.  0.
         -6    2    1    2    0  503 -0.27231029963E+02  0.36762595943E+02  0.11168725179E+03  0.21090071370E+03  0.17295100859E+03 0.  0.
        -24    2    5    5    0    0 -0.35796090596E+02  0.95680827644E+01 -0.99934365092E+01  0.85836003586E+02  0.76779179656E+02 0.  0.
          2    1    4    4  501    0  0.22097068556E+02  0.57121364050E+01 -0.15709752908E+03  0.15874678763E+03  0.00000000000E+00 0. -1.
         -1    1    4    4    0  501 -0.41007384504E+02 -0.43385935844E+02 -0.15594673453E+03  0.16698302016E+03  0.00000000000E+00 0.  1.
          5    1    3    3  502    0  0.46141345912E+02  0.91120349582E+00 -0.13353245572E+02  0.48272696855E+02  0.47000000000E+01 0. -1.
         11    1    6    6    0    0 -0.20152818368E+02 -0.31670864877E+02  0.76869871041E+01  0.38318005441E+02  0.00000000000E+00 0. -1.
        -12    1    6    6    0    0 -0.15643272227E+02  0.41238947641E+02 -0.17680423613E+02  0.47517998145E+02  0.00000000000E+00 0.  1.
         -5    1    5    5    0  503  0.85650606328E+01  0.27194513179E+02  0.12168068830E+03  0.12506471012E+03  0.47000000000E+01 0.  1.
<mgrwt>
<rscale>  2 0.18166734E+03</rscale>
<asrwt>0</asrwt>
<pdfrwt beam="1">  1       21 0.28476382E-01 0.18259940E+03</pdfrwt>
<pdfrwt beam="2">  1       21 0.61508728E-01 0.18259940E+03</pdfrwt>
<totfact> 0.29124791E+04</totfact>
</mgrwt>
</event>
<event>
12    1  0.2769346E-001  0.1937865E+03  0.7546771E-02  0.1155811E+00
         21   -1    0    0  504  503  0.00000000000E+00  0.00000000000E+00  0.10112551617E+03  0.10112551617E+03  0.00000000000E+00 0.  1.
         21   -1    0    0  502  504 -0.00000000000E+00 -0.00000000000E+00 -0.43754562933E+03  0.43754562933E+03  0.00000000000E+00 0.  1.
          6    2    1    2  502    0 -0.86089330740E+02 -0.22994981750E-01 -0.59841438155E+02  0.20281574012E+03  0.17361409310E+03 0.  0.
         24    2    3    3    0    0 -0.11686476248E+03  0.80772992783E+01 -0.86352107316E+02  0.16113064032E+03  0.69164885175E+02 0.  0.
         -6    2    1    2    0  503  0.86089330740E+02  0.22994981750E-01 -0.27657867501E+03  0.33585540538E+03  0.16997563489E+03 0.  0.
        -24    2    5    5    0    0  0.42925602108E+02  0.61057710477E+02 -0.14485057979E+03  0.18432083825E+03  0.86150041341E+02 0.  0.
          2    1    4    4  501    0 -0.42161751120E+02 -0.19450680327E+02 -0.62810098632E+02  0.78109222969E+02  0.00000000000E+00 0. -1.
         -1    1    4    4    0  501 -0.74703011355E+02  0.27527979606E+02 -0.23542008684E+02  0.83021417355E+02  0.00000000000E+00 0.  1.
          5    1    3    3  502    0  0.30775431735E+02 -0.81002942600E+01  0.26510669161E+02  0.41685099795E+02  0.47000000000E+01 0. -1.
         13    1    6    6    0    0  0.49517702899E+01 -0.18548479108E+02 -0.55691042740E+02  0.58907201153E+02  0.00000000000E+00 0. -1.
        -14    1    6    6    0    0  0.37973831818E+02  0.79606189585E+02 -0.89159537053E+02  0.12541363710E+03  0.00000000000E+00 0.  1.
         -5    1    5    5    0  503  0.43163728632E+02 -0.61034715496E+02 -0.13172809522E+03  0.15153456713E+03  0.47000000000E+01 0.  1.
<mgrwt>
<rscale>  2 0.19296817E+03</rscale>
<asrwt>0</asrwt>
<pdfrwt beam="1">  1       21 0.15557772E-01 0.19378655E+03</pdfrwt>
<pdfrwt beam="2">  1       21 0.67314711E-01 0.19378655E+03</pdfrwt>
<totfact> 0.74075382E+04</totfact>
</mgrwt>
</event>
<event>
12    1  0.2769346E-001  0.1828629E+03  0.7546771E-02  0.1165713E+00
         21   -1    0    0  504  503  0.00000000000E+00  0.00000000000E+00  0.65480580589E+02  0.65480580589E+02  0.00000000000E+00 0.  1.
         21   -1    0    0  502  504 -0.00000000000E+00 -0.00000000000E+00 -0.57288619360E+03  0.57288619360E+03  0.00000000000E+00 0.  1.
          6    2    1    2  502    0  0.46937472857E+02  0.37083518369E+02 -0.36679499073E+03  0.40985045243E+03  0.17280195150E+03 0.  0.
         24    2    3    3    0    0 -0.50530867981E+01  0.32705276344E+02 -0.79182463718E+02  0.11750606136E+03  0.80266076953E+02 0.  0.
         -6    2    1    2    0  503 -0.46937472857E+02 -0.37083518369E+02 -0.14061062228E+03  0.22851632176E+03  0.16991188457E+03 0.  0.
        -24    2    5    5    0    0 -0.95409968304E+02 -0.43841743867E+02 -0.97159728753E+02  0.16290133433E+03  0.77920929653E+02 0.  0.
          2    1    4    4  501    0 -0.37126549812E+02  0.24490358919E+02 -0.18081760692E+02  0.48011544973E+02  0.00000000000E+00 0. -1.
         -1    1    4    4    0  501  0.32073463014E+02  0.82149174254E+01 -0.61100703025E+02  0.69494516390E+02  0.00000000000E+00 0.  1.
          5    1    3    3  502    0  0.51990559655E+02  0.43782420254E+01 -0.28761252701E+03  0.29234439107E+03  0.47000000000E+01 0. -1.
         13    1    6    6    0    0 -0.25568972087E+02  0.20033219801E+02 -0.42885219070E+02  0.53798180675E+02  0.00000000000E+00 0. -1.
        -14    1    6    6    0    0 -0.69840996216E+02 -0.63874963668E+02 -0.54274509683E+02  0.10910315365E+03  0.00000000000E+00 0.  1.
         -5    1    5    5    0  503  0.48472495447E+02  0.67582254975E+01 -0.43450893529E+02  0.65614987428E+02  0.47000000000E+01 0.  1.
<mgrwt>
<rscale>  2 0.18217687E+03</rscale>
<asrwt>0</asrwt>
<pdfrwt beam="1">  1       21 0.10073935E-01 0.18286287E+03</pdfrwt>
<pdfrwt beam="2">  1       21 0.88136340E-01 0.18286287E+03</pdfrwt>
<totfact> 0.88672297E+04</totfact>
</mgrwt>
</event>
<event>
12    1  0.2769346E-001  0.1891095E+03  0.7546771E-02  0.1160359E+00
         21   -1    0    0  504  503  0.00000000000E+00  0.00000000000E+00  0.53748085676E+02  0.53748085676E+02  0.00000000000E+00 0. -1.
         21   -1    0    0  502  504 -0.00000000000E+00 -0.00000000000E+00 -0.75936458327E+03  0.75936458327E+03  0.00000000000E+00 0. -1.
          6    2    1    2  502    0 -0.63504365913E+02 -0.10659564991E+02 -0.51179065487E+03  0.54561164200E+03  0.17780876990E+03 0.  0.
         24    2    3    3    0    0 -0.84310570177E+02 -0.45917833770E+02 -0.47217918617E+03  0.48845219741E+03  0.80097725310E+02 0.  0.
         -6    2    1    2    0  503  0.63504365913E+02  0.10659564991E+02 -0.19382584272E+03  0.26750102695E+03  0.17274811517E+03 0.  0.
        -24    2    5    5    0    0  0.60467264765E+02  0.68738543212E+02 -0.10222601509E+03  0.15889619227E+03  0.80103460121E+02 0.  0.
          4    1    4    4  501    0 -0.98632000954E+02 -0.49368776525E+02 -0.41606580168E+03  0.43043733462E+03  0.00000000000E+00 0. -1.
         -3    1    4    4    0  501  0.14321430777E+02  0.34509427554E+01 -0.56113384486E+02  0.58014862784E+02  0.00000000000E+00 0.  1.
          5    1    3    3  502    0  0.20806204263E+02  0.35258268779E+02 -0.39611468703E+02  0.57159444591E+02  0.47000000000E+01 0. -1.
         11    1    6    6    0    0  0.50757274565E+02  0.15564801162E+02 -0.88376820467E+02  0.10309716947E+03  0.00000000000E+00 0. -1.
        -12    1    6    6    0    0  0.97099902005E+01  0.53173742050E+02 -0.13849194627E+02  0.55799022797E+02  0.00000000000E+00 0.  1.
         -5    1    5    5    0  503  0.30371011480E+01 -0.58078978221E+02 -0.91599827628E+02  0.10860483468E+03  0.47000000000E+01 0.  1.
<mgrwt>
<rscale>  2 0.18791056E+03</rscale>
<asrwt>0</asrwt>
<pdfrwt beam="1">  1       21 0.82689362E-02 0.18910946E+03</pdfrwt>
<pdfrwt beam="2">  1       21 0.11682532E+00 0.18910946E+03</pdfrwt>
<totfact> 0.64018565E+04</totfact>
</mgrwt>
</event>
<event>
12    1  0.2769346E-001  0.2576027E+03  0.7546771E-02  0.1109311E+00
         21   -1    0    0  504  503  0.00000000000E+00  0.00000000000E+00  0.17065757881E+03  0.17065757881E+03  0.00000000000E+00 0.  1.
         21   -1    0    0  502  504 -0.00000000000E+00 -0.00000000000E+00 -0.46143159715E+03  0.46143159715E+03  0.00000000000E+00 0.  1.
          6    2    1    2  502    0 -0.98360921136E+02  0.15619220078E+03 -0.27776859604E+03  0.37883316538E+03  0.17968945393E+03 0.  0.
         24    2    3    3    0    0 -0.24656277853E+02  0.10587637060E+03 -0.68731370791E+02  0.15149485196E+03  0.80055923895E+02 0.  0.
         -6    2    1    2    0  503  0.98360921136E+02 -0.15619220078E+03 -0.13005422303E+02  0.25325601058E+03  0.17291209181E+03 0.  0.
        -24    2    5    5    0    0  0.44694934220E+02 -0.11320717560E+03 -0.71700334333E+02  0.16273014002E+03  0.80787739022E+02 0.  0.
          2    1    4    4  501    0 -0.48628736564E+02  0.34406013806E+02 -0.28231946259E+02  0.65920942009E+02  0.00000000000E+00 0. -1.
         -1    1    4    4    0  501  0.23972458711E+02  0.71470356793E+02 -0.40499424532E+02  0.85573909950E+02  0.00000000000E+00 0.  1.
          5    1    3    3  502    0 -0.73704643283E+02  0.50315830186E+02 -0.20903722524E+03  0.22733831342E+03  0.47000000000E+01 0. -1.
         11    1    6    6    0    0  0.68371972146E+02 -0.78970270642E+02 -0.51421331318E+02  0.11642673033E+03  0.00000000000E+00 0. -1.
        -12    1    6    6    0    0 -0.23677037927E+02 -0.34236904961E+02 -0.20279003015E+02  0.46303409697E+02  0.00000000000E+00 0.  1.
         -5    1    5    5    0  503  0.53665986916E+02 -0.42985025181E+02  0.58694912030E+02  0.90525870555E+02  0.47000000000E+01 0.  1.
<mgrwt>
<rscale>  2 0.25642446E+03</rscale>
<asrwt>0</asrwt>
<pdfrwt beam="1">  1       21 0.26255012E-01 0.25760275E+03</pdfrwt>
<pdfrwt beam="2">  1       21 0.70989476E-01 0.25760275E+03</pdfrwt>
<totfact> 0.23949623E+04</totfact>
</mgrwt>
</event>
<event>
12    1  0.2769346E-001  0.2144106E+03  0.7546771E-02  0.1138536E+00
         21   -1    0    0  504  503  0.00000000000E+00  0.00000000000E+00  0.12990950574E+03  0.12990950574E+03  0.00000000000E+00 0.  1.
         21   -1    0    0  502  504 -0.00000000000E+00 -0.00000000000E+00 -0.52146345513E+03  0.52146345513E+03  0.00000000000E+00 0.  1.
          6    2    1    2  502    0  0.68802584255E+02 -0.10210265843E+03 -0.38300439147E+03  0.43893537023E+03  0.17553673945E+03 0.  0.
         24    2    3    3    0    0  0.11596946537E+03 -0.82148425136E+02 -0.30174072320E+03  0.34276489721E+03  0.79012847521E+02 0.  0.
         -6    2    1    2    0  503 -0.68802584255E+02  0.10210265843E+03 -0.85495579248E+01  0.21243759064E+03  0.17291005325E+03 0.  0.
        -24    2    5    5    0    0 -0.28102092460E+02  0.12529311640E+03 -0.40157429185E+02  0.15573243303E+03  0.78433914603E+02 0.  0.
          4    1    4    4  501    0  0.39757858982E+02 -0.44922843159E+02 -0.20740302144E+03  0.21590452170E+03  0.00000000000E+00 0. -1.
         -3    1    4    4    0  501  0.76211606385E+02 -0.37225581976E+02 -0.94337701758E+02  0.12686037551E+03  0.00000000000E+00 0.  1.
          5    1    3    3  502    0 -0.47166881113E+02 -0.19954233291E+02 -0.81263668265E+02  0.96170473016E+02  0.47000000000E+01 0. -1.
         11    1    6    6    0    0 -0.31195275253E+02  0.98455643202E+02 -0.62462685384E+02  0.12069898898E+03  0.00000000000E+00 0. -1.
        -12    1    6    6    0    0  0.30931827924E+01  0.26837473202E+02  0.22305256199E+02  0.35033444047E+02  0.00000000000E+00 0.  1.
         -5    1    5    5    0  503 -0.40700491794E+02 -0.23190457977E+02  0.31607871260E+02  0.56705157606E+02  0.47000000000E+01 0.  1.
<mgrwt>
<rscale>  2 0.21387228E+03</rscale>
<asrwt>0</asrwt>
<pdfrwt beam="1">  1       21 0.19986078E-01 0.21441058E+03</pdfrwt>
<pdfrwt beam="2">  1       21 0.80225146E-01 0.21441058E+03</pdfrwt>
<totfact> 0.31214846E+04</totfact>
</mgrwt>
</event>
<event>
12    1  0.2769346E-001  0.2715326E+03  0.7546771E-02  0.1100428E+00
         21   -1    0    0  504  503  0.00000000000E+00  0.00000000000E+00  0.17412329451E+03  0.17412329451E+03  0.00000000000E+00 0.  1.
         21   -1    0    0  502  504 -0.00000000000E+00 -0.00000000000E+00 -0.49477854667E+03  0.49477854667E+03  0.00000000000E+00 0.  1.
          6    2    1    2  502    0  0.12116253529E+03 -0.17062378332E+03 -0.28750360587E+03  0.39535292381E+03  0.17277955778E+03 0.  0.
         24    2    3    3    0    0 -0.53336103889E+01 -0.81094483581E+02 -0.15113731854E+03  0.18887138783E+03  0.78899616075E+02 0.  0.
         -6    2    1    2    0  503 -0.12116253529E+03  0.17062378332E+03 -0.33151646302E+02  0.27354891737E+03  0.17302353351E+03 0.  0.
        -24    2    5    5    0    0 -0.45242012092E+02  0.42973875930E+02  0.38892952349E+02  0.10840976727E+03  0.79664435148E+02 0.  0.
          2    1    4    4  501    0 -0.27911511612E+02 -0.14082813141E+02 -0.13341586204E+02  0.33990822716E+02  0.00000000000E+00 0. -1.
         -1    1    4    4    0  501  0.22577901223E+02 -0.67011670440E+02 -0.13779573234E+03  0.15488056511E+03  0.00000000000E+00 0.  1.
          5    1    3    3  502    0  0.12649614568E+03 -0.89529299738E+02 -0.13636628732E+03  0.20648153598E+03  0.47000000000E+01 0. -1.
         11    1    6    6    0    0  0.21443860012E+02  0.17931324822E+02  0.15842937079E+01  0.27997884360E+02  0.00000000000E+00 0. -1.
        -12    1    6    6    0    0 -0.66685872104E+02  0.25042551108E+02  0.37308658641E+02  0.80411882914E+02  0.00000000000E+00 0.  1.
         -5    1    5    5    0  503 -0.75920523199E+02  0.12764990739E+03 -0.72044598651E+02  0.16513915009E+03  0.47000000000E+01 0.  1.
<mgrwt>
<rscale>  2 0.27149379E+03</rscale>
<asrwt>0</asrwt>
<pdfrwt beam="1">  1       21 0.26788199E-01 0.27153265E+03</pdfrwt>
<pdfrwt beam="2">  1       21 0.76119776E-01 0.27153265E+03</pdfrwt>
<totfact> 0.19574532E+04</totfact>
</mgrwt>
</event>
<event>
12    1  0.2769346E-001  0.2124714E+03  0.7546771E-02  0.1140025E+00
         21   -1    0    0  504  503  0.00000000000E+00  0.00000000000E+00  0.26421125857E+03  0.26421125857E+03  0.00000000000E+00 0. -1.
         21   -1    0    0  502  504 -0.00000000000E+00 -0.00000000000E+00 -0.17154275451E+03  0.17154275451E+03  0.00000000000E+00 0. -1.
          6    2    1    2  502    0  0.11476376583E+03  0.35501693804E+02  0.21206694416E+02  0.21352704598E+03  0.17525120048E+03 0.  0.
         24    2    3    3    0    0  0.38017241963E+02 -0.35425450223E+02 -0.26139255803E+02  0.98703626392E+02  0.79742535444E+02 0.  0.
         -6    2    1    2    0  503 -0.11476376583E+03 -0.35501693804E+02  0.71461809644E+02  0.22222696710E+03  0.17276267669E+03 0.  0.
        -24    2    5    5    0    0 -0.10558641185E+01  0.18610482832E+02  0.11665672917E+02  0.82744772756E+02  0.79769321005E+02 0.  0.
          4    1    4    4  501    0  0.20465568408E+02 -0.17471066720E+02  0.28117557091E+02  0.38918821660E+02  0.00000000000E+00 0. -1.
         -3    1    4    4    0  501  0.17551673555E+02 -0.17954383503E+02 -0.54256812894E+02  0.59784804733E+02  0.00000000000E+00 0.  1.
          5    1    3    3  502    0  0.76746523862E+02  0.70927144027E+02  0.47345950219E+02  0.11482341959E+03  0.47000000000E+01 0. -1.
         13    1    6    6    0    0 -0.13586692518E+02  0.28263239573E+02  0.39678526396E+02  0.50574641686E+02  0.00000000000E+00 0. -1.
        -14    1    6    6    0    0  0.12530828400E+02 -0.96527567415E+01 -0.28012853478E+02  0.32170131070E+02  0.00000000000E+00 0.  1.
         -5    1    5    5    0  503 -0.11370790171E+03 -0.54112176635E+02  0.59796136727E+02  0.13948219434E+03  0.47000000000E+01 0.  1.
<mgrwt>
<rscale>  2 0.21195752E+03</rscale>
<asrwt>0</asrwt>
<pdfrwt beam="1">  1       21 0.40647886E-01 0.21247135E+03</pdfrwt>
<pdfrwt beam="2">  1       21 0.26391193E-01 0.21247135E+03</pdfrwt>
<totfact> 0.78951555E+04</totfact>
</mgrwt>
</event>
<event>
12    1  0.2769346E-001  0.1932818E+03  0.7546771E-02  0.1156641E+00
         21   -1    0    0  504  503  0.00000000000E+00  0.00000000000E+00  0.29506281252E+03  0.29506281252E+03  0.00000000000E+00 0.  1.
         21   -1    0    0  502  504 -0.00000000000E+00 -0.00000000000E+00 -0.21547810766E+03  0.21547810766E+03  0.00000000000E+00 0.  1.
          6    2    1    2  502    0 -0.67738143930E+01 -0.85730620326E+02 -0.12737645416E+03  0.22736114747E+03  0.16754911662E+03 0.  0.
         24    2    3    3    0    0  0.15110033690E+02 -0.12013409571E+03 -0.84958545985E+02  0.16833682316E+03  0.80366768164E+02 0.  0.
         -6    2    1    2    0  503  0.67738143930E+01  0.85730620326E+02  0.20696115903E+03  0.28317977272E+03  0.17309603839E+03 0.  0.
        -24    2    5    5    0    0  0.35258321413E+02 -0.12440880731E+02  0.11477170384E+03  0.14544816266E+03  0.81146159969E+02 0.  0.
          2    1    4    4  501    0 -0.29877984673E+02 -0.73302356095E+02 -0.57465856933E+02  0.97817452892E+02  0.00000000000E+00 0. -1.
         -1    1    4    4    0  501  0.44988018363E+02 -0.46831739618E+02 -0.27492689053E+02  0.70519370270E+02  0.00000000000E+00 0.  1.
          5    1    3    3  502    0 -0.21883848083E+02  0.34403475387E+02 -0.42417908175E+02  0.59024324304E+02  0.47000000000E+01 0. -1.
         11    1    6    6    0    0 -0.17879235463E+02 -0.11910233636E+02  0.30057124434E+01  0.21692280500E+02  0.00000000000E+00 0. -1.
        -12    1    6    6    0    0  0.53137556876E+02 -0.53064709468E+00  0.11176599140E+03  0.12375588216E+03  0.00000000000E+00 0.  1.
         -5    1    5    5    0  503 -0.28484507020E+02  0.98171501057E+02  0.92189455185E+02  0.13773161005E+03  0.47000000000E+01 0.  1.
<mgrwt>
<rscale>  2 0.19203189E+03</rscale>
<asrwt>0</asrwt>
<pdfrwt beam="1">  1       21 0.45394279E-01 0.19328182E+03</pdfrwt>
<pdfrwt beam="2">  1       21 0.33150478E-01 0.19328182E+03</pdfrwt>
<totfact> 0.40770790E+04</totfact>
</mgrwt>
</event>
<event>
12    1  0.2769346E-001  0.1933153E+03  0.7546771E-02  0.1155994E+00
         21   -1    0    0  504  503  0.00000000000E+00  0.00000000000E+00  0.24585903592E+03  0.24585903592E+03  0.00000000000E+00 0. -1.
         21   -1    0    0  502  504 -0.00000000000E+00 -0.00000000000E+00 -0.16230852295E+03  0.16230852295E+03  0.00000000000E+00 0. -1.
          6    2    1    2  502    0  0.82074300537E+02 -0.15513751641E+02 -0.14023257717E+02  0.19162323032E+03  0.17188933459E+03 0.  0.
         24    2    3    3    0    0  0.39140503989E+02 -0.67979828658E+02 -0.38464552652E+02  0.11940503994E+03  0.81392908762E+02 0.  0.
         -6    2    1    2    0  503 -0.82074300537E+02  0.15513751641E+02  0.97573770687E+02  0.21654432855E+03  0.17433857348E+03 0.  0.
        -24    2    5    5    0    0 -0.10619643055E+03 -0.20535208765E+02  0.10550524175E+03  0.17220018648E+03  0.82596437740E+02 0.  0.
          2    1    4    4  501    0  0.32059181397E+02 -0.50166846889E+01 -0.45250342671E+02  0.55682598260E+02  0.00000000000E+00 0. -1.
         -1    1    4    4    0  501  0.70813225919E+01 -0.62963143969E+02  0.67857900194E+01  0.63722441685E+02  0.00000000000E+00 0.  1.
          5    1    3    3  502    0  0.42933796548E+02  0.52466077017E+02  0.24441294934E+02  0.72218190379E+02  0.47000000000E+01 0. -1.
         13    1    6    6    0    0 -0.32609880507E+02  0.22390936033E+02  0.41149417162E+01  0.39770479862E+02  0.00000000000E+00 0. -1.
        -14    1    6    6    0    0 -0.73586550040E+02 -0.42926144798E+02  0.10139030004E+03  0.13242970662E+03  0.00000000000E+00 0.  1.
         -5    1    5    5    0  503  0.24122130010E+02  0.36048960406E+02 -0.79314710675E+01  0.44344142069E+02  0.47000000000E+01 0.  1.
<mgrwt>
<rscale>  2 0.19276146E+03</rscale>
<asrwt>0</asrwt>
<pdfrwt beam="1">  1       21 0.37824467E-01 0.19331530E+03</pdfrwt>
<pdfrwt beam="2">  1       21 0.24970542E-01 0.19331530E+03</pdfrwt>
<totfact> 0.10231354E+05</totfact>
</mgrwt>
</event>
<event>
12    1  0.2769346E-001  0.2170862E+03  0.7546771E-02  0.1136153E+00
         21   -1    0    0  504  503  0.00000000000E+00  0.00000000000E+00  0.62780768575E+03  0.62780768575E+03  0.00000000000E+00 0. -1.
         21   -1    0    0  502  504 -0.00000000000E+00 -0.00000000000E+00 -0.76214180480E+02  0.76214180480E+02  0.00000000000E+00 0.  1.
          6    2    1    2  502    0  0.12826260105E+03 -0.31604583433E+02  0.23021870951E+03  0.31642864745E+03  0.17226807656E+03 0.  0.
         24    2    3    3    0    0  0.67186485491E+02 -0.84708237086E+02  0.15870553026E+03  0.20832446285E+03  0.80759688106E+02 0.  0.
         -6    2    1    2    0  503 -0.12826260105E+03  0.31604583433E+02  0.32137479576E+03  0.38759321878E+03  0.17174574046E+03 0.  0.
        -24    2    5    5    0    0 -0.24968389714E+02 -0.29661404855E+02  0.15824204931E+03  0.18496647232E+03  0.87571857849E+02 0.  0.
          2    1    4    4  501    0  0.27923228431E+02 -0.13871588267E+02  0.11836665414E+01  0.31201421659E+02  0.00000000000E+00 0. -1.
         -1    1    4    4    0  501  0.39263257060E+02 -0.70836648819E+02  0.15752186372E+03  0.17712304119E+03  0.00000000000E+00 0.  1.
          5    1    3    3  502    0  0.61076115561E+02  0.53103653654E+02  0.71513179250E+02  0.10810418461E+03  0.47000000000E+01 0. -1.
         13    1    6    6    0    0 -0.32410736821E+02 -0.51507883447E+02  0.65550615556E+02  0.89444961391E+02  0.00000000000E+00 0. -1.
        -14    1    6    6    0    0  0.74423471073E+01  0.21846478592E+02  0.92691433757E+02  0.95521510925E+02  0.00000000000E+00 0.  1.
         -5    1    5    5    0  503 -0.10329421134E+03  0.61265988287E+02  0.16313274645E+03  0.20262674646E+03  0.47000000000E+01 0.  1.
<mgrwt>
<rscale>  2 0.21698260E+03</rscale>
<asrwt>0</asrwt>
<pdfrwt beam="1">  1       21 0.96585794E-01 0.21708624E+03</pdfrwt>
<pdfrwt beam="2">  1       21 0.11725259E-01 0.21708624E+03</pdfrwt>
<totfact> 0.53850841E+04</totfact>
</mgrwt>
</event>
<event>
12    1  0.2769346E-001  0.2220778E+03  0.7546771E-02  0.1132890E+00
         21   -1    0    0  504  503  0.00000000000E+00  0.00000000000E+00  0.57494221032E+03  0.57494221032E+03  0.00000000000E+00 0. -1.
         21   -1    0    0  502  504 -0.00000000000E+00 -0.00000000000E+00 -0.33172540058E+03  0.33172540058E+03  0.00000000000E+00 0.  1.
          6    2    1    2  502    0 -0.90846218760E+02  0.98446419030E+02 -0.26984150987E+03  0.34760821385E+03  0.17341365866E+03 0.  0.
         24    2    3    3    0    0 -0.11858091600E+02  0.60355421919E+02 -0.22993057507E+03  0.25114567704E+03  0.80141689833E+02 0.  0.
         -6    2    1    2    0  503  0.90846218760E+02 -0.98446419030E+02  0.51305831961E+03  0.55905939704E+03  0.17712661351E+03 0.  0.
        -24    2    5    5    0    0  0.12345177463E+03 -0.11145097840E+03  0.42017426013E+03  0.45965225774E+03  0.84095944756E+02 0.  0.
          2    1    4    4  501    0 -0.16895157401E+02  0.75723645377E+02 -0.21695718088E+03  0.23041253253E+03  0.00000000000E+00 0. -1.
         -1    1    4    4    0  501  0.50370658012E+01 -0.15368223458E+02 -0.12973394195E+02  0.20733144506E+02  0.00000000000E+00 0.  1.
          5    1    3    3  502    0 -0.78988127160E+02  0.38090997112E+02 -0.39910934797E+02  0.96462536819E+02  0.47000000000E+01 0. -1.
         13    1    6    6    0    0  0.74112904872E+02 -0.72935464961E+02  0.15128575569E+03  0.18357473844E+03  0.00000000000E+00 0. -1.
        -14    1    6    6    0    0  0.49338869754E+02 -0.38515513441E+02  0.26888850444E+03  0.27607751930E+03  0.00000000000E+00 0.  1.
         -5    1    5    5    0  503 -0.32605555866E+02  0.13004559371E+02  0.92884059487E+02  0.99407139303E+02  0.47000000000E+01 0.  1.
<mgrwt>
<rscale>  2 0.22133665E+03</rscale>
<asrwt>0</asrwt>
<pdfrwt beam="1">  1       21 0.88452648E-01 0.22207785E+03</pdfrwt>
<pdfrwt beam="2">  1       21 0.51034677E-01 0.22207785E+03</pdfrwt>
<totfact> 0.39012774E+03</totfact>
</mgrwt>
</event>
<event>
12    1  0.2769346E-001  0.2110605E+03  0.7546771E-02  0.1141108E+00
         21   -1    0    0  504  503  0.00000000000E+00  0.00000000000E+00  0.20595788463E+04  0.20595788463E+04  0.00000000000E+00 0.  1.
         21   -1    0    0  502  504 -0.00000000000E+00 -0.00000000000E+00 -0.25412851103E+02  0.25412851103E+02  0.00000000000E+00 0.  1.
          6    2    1    2  502    0 -0.61519373490E+02 -0.99477052757E+02  0.14257188894E+04  0.14409774010E+04  0.17338166375E+03 0.  0.
         24    2    3    3    0    0  0.11091802758E+02 -0.33495639518E+02  0.10094377349E+04  0.10132648580E+04  0.80598672441E+02 0.  0.
         -6    2    1    2    0  503  0.61519373490E+02  0.99477052757E+02  0.60844710575E+03  0.64401429634E+03  0.17568783694E+03 0.  0.
        -24    2    5    5    0    0  0.13582568585E+01  0.39031944148E+02  0.12400342930E+03  0.15209892073E+03  0.78942344034E+02 0.  0.
          2    1    4    4  501    0  0.11211314139E+02 -0.58376262263E+02  0.56176277361E+03  0.56489901343E+03  0.00000000000E+00 0. -1.
         -1    1    4    4    0  501 -0.11951138090E+00  0.24880622746E+02  0.44767496127E+03  0.44836584461E+03  0.00000000000E+00 0.  1.
          5    1    3    3  502    0 -0.72611176248E+02 -0.65981413240E+02  0.41628115453E+03  0.42771254299E+03  0.47000000000E+01 0. -1.
         13    1    6    6    0    0 -0.34402616627E+02  0.81205538951E+01  0.80242927961E+02  0.87683584063E+02  0.00000000000E+00 0. -1.
        -14    1    6    6    0    0  0.35760873485E+02  0.30911390253E+02  0.43760501340E+02  0.64415336662E+02  0.00000000000E+00 0.  1.
         -5    1    5    5    0  503  0.60161116631E+02  0.60445108610E+02  0.48444367645E+03  0.49191537561E+03  0.47000000000E+01 0.  1.
<mgrwt>
<rscale>  2 0.21057992E+03</rscale>
<asrwt>0</asrwt>
<pdfrwt beam="1">  1       21 0.31685815E+00 0.21106050E+03</pdfrwt>
<pdfrwt beam="2">  1       21 0.39096710E-02 0.21106050E+03</pdfrwt>
<totfact> 0.10895318E+04</totfact>
</mgrwt>
</event>
<event>
12    1  0.2769346E-001  0.2095123E+03  0.7546771E-02  0.1142019E+00
         21   -1    0    0  504  503  0.00000000000E+00  0.00000000000E+00  0.79475071623E+02  0.79475071623E+02  0.00000000000E+00 0.  1.
         21   -1    0    0  502  504 -0.00000000000E+00 -0.00000000000E+00 -0.63011156321E+03  0.63011156321E+03  0.00000000000E+00 0. -1.
          6    2    1    2  502    0 -0.11187030692E+03  0.36946626136E+02 -0.40048863361E+03  0.45182747412E+03  0.17284936206E+03 0.  0.
         24    2    3    3    0    0 -0.49832897282E+02  0.58825067515E+02 -0.35370146053E+03  0.37096687830E+03  0.81043169924E+02 0.  0.
         -6    2    1    2    0  503  0.11187030692E+03 -0.36946626136E+02 -0.15014785798E+03  0.25775916072E+03  0.17324949328E+03 0.  0.
        -24    2    5    5    0    0  0.40904751549E+02 -0.73546996108E+02 -0.13059428258E+03  0.17541761930E+03  0.81450077853E+02 0.  0.
          2    1    4    4  501    0 -0.46586782802E+02  0.78841634538E+02 -0.28906188328E+03  0.30322121303E+03  0.00000000000E+00 0. -1.
         -1    1    4    4    0  501 -0.32461144801E+01 -0.20016567023E+02 -0.64639577258E+02  0.67745665269E+02  0.00000000000E+00 0.  1.
          5    1    3    3  502    0 -0.62037409641E+02 -0.21878441379E+02 -0.46787173077E+02  0.80860595822E+02  0.47000000000E+01 0. -1.
         11    1    6    6    0    0  0.47707811283E+02 -0.57994136033E+01 -0.43123264223E+02  0.64569995917E+02  0.00000000000E+00 0. -1.
        -12    1    6    6    0    0 -0.68030597335E+01 -0.67747582505E+02 -0.87471018361E+02  0.11084762338E+03  0.00000000000E+00 0.  1.
         -5    1    5    5    0  503  0.70965555374E+02  0.36600369972E+02 -0.19553575396E+02  0.82341541414E+02  0.47000000000E+01 0.  1.
<mgrwt>
<rscale>  2 0.20942957E+03</rscale>
<asrwt>0</asrwt>
<pdfrwt beam="1">  1       21 0.12226934E-01 0.20951230E+03</pdfrwt>
<pdfrwt beam="2">  1       21 0.96940239E-01 0.20951230E+03</pdfrwt>
<totfact> 0.49704912E+04</totfact>
</mgrwt>
</event>
<event>
12    1  0.2769346E-001  0.2290087E+03  0.7546771E-02  0.1127384E+00
         21   -1    0    0  504  503  0.00000000000E+00  0.00000000000E+00  0.73744604144E+03  0.73744604144E+03  0.00000000000E+00 0. -1.
         21   -1    0    0  502  504 -0.00000000000E+00 -0.00000000000E+00 -0.32173574287E+03  0.32173574287E+03  0.00000000000E+00 0.  1.
          6    2    1    2  502    0  0.11659521566E+03  0.95406744824E+02 -0.25960150299E+03  0.34617612770E+03  0.17247631652E+03 0.  0.
         24    2    3    3    0    0  0.13628562262E+03  0.77128058637E+02 -0.14175268327E+03  0.22521226200E+03  0.78129580697E+02 0.  0.
         -6    2    1    2    0  503 -0.11659521566E+03 -0.95406744824E+02  0.67531180156E+03  0.71300565661E+03  0.17214571086E+03 0.  0.
        -24    2    5    5    0    0 -0.66777232711E+01 -0.42689481281E+01  0.18471006202E+03  0.20202609738E+03  0.81448886449E+02 0.  0.
          2    1    4    4  501    0  0.99925835582E+02  0.55931105052E+02 -0.51364937815E+02  0.12550624672E+03  0.00000000000E+00 0. -1.
         -1    1    4    4    0  501  0.36359787037E+02  0.21196953585E+02 -0.90387745459E+02  0.99706015284E+02  0.00000000000E+00 0.  1.
          5    1    3    3  502    0 -0.19690406961E+02  0.18278686187E+02 -0.11784881971E+03  0.12096386569E+03  0.47000000000E+01 0. -1.
         13    1    6    6    0    0  0.79906468062E+01 -0.39195818363E+02  0.12562416430E+03  0.13183927059E+03  0.00000000000E+00 0. -1.
        -14    1    6    6    0    0 -0.14668370077E+02  0.34926870234E+02  0.59085897717E+02  0.70186826785E+02  0.00000000000E+00 0.  1.
         -5    1    5    5    0  503 -0.10991749239E+03 -0.91137796696E+02  0.49060173954E+03  0.51097955923E+03  0.47000000000E+01 0.  1.
<mgrwt>
<rscale>  2 0.22894642E+03</rscale>
<asrwt>0</asrwt>
<pdfrwt beam="1">  1       21 0.11345324E+00 0.22900867E+03</pdfrwt>
<pdfrwt beam="2">  1       21 0.49497807E-01 0.22900867E+03</pdfrwt>
<totfact> 0.22860896E+03</totfact>
</mgrwt>
</event>
<event>
12    1  0.2769346E-001  0.1880775E+03  0.7546771E-02  0.1160211E+00
         21   -1    0    0  504  503  0.00000000000E+00  0.00000000000E+00  0.29545483709E+03  0.29545483709E+03  0.00000000000E+00 0. -1.
         21   -1    0    0  502  504 -0.00000000000E+00 -0.00000000000E+00 -0.12813128760E+03  0.12813128760E+03  0.00000000000E+00 0.  1.
          6    2    1    2  502    0  0.34766626727E+02 -0.64507935767E+02  0.13795530132E+03  0.23324835997E+03  0.17321414537E+03 0.  0.
         24    2    3    3    0    0  0.13356267000E+02 -0.64746204683E+02  0.16711110229E+03  0.19677081886E+03  0.80138466147E+02 0.  0.
         -6    2    1    2    0  503 -0.34766626727E+02  0.64507935767E+02  0.29368248169E+02  0.19033776472E+03  0.17319347149E+03 0.  0.
        -24    2    5    5    0    0 -0.64972865905E+02  0.85085100985E+02  0.16046565896E+02  0.15115366294E+03  0.10549402746E+03 0.  0.
          4    1    4    4  501    0  0.78426302247E+01 -0.79861612660E+02  0.16036961179E+03  0.17932595019E+03  0.00000000000E+00 0. -1.
         -3    1    4    4    0  501  0.55136367752E+01  0.15115407977E+02  0.67414905051E+01  0.17444868673E+02  0.00000000000E+00 0.  1.
          5    1    3    3  502    0  0.21410359727E+02  0.23826891659E+00 -0.29155800968E+02  0.36477541115E+02  0.47000000000E+01 0. -1.
         13    1    6    6    0    0 -0.16815492207E+02  0.79962333835E+01  0.50596704690E+02  0.53914071002E+02  0.00000000000E+00 0. -1.
        -14    1    6    6    0    0 -0.48157373697E+02  0.77088867601E+02 -0.34550138794E+02  0.97239591937E+02  0.00000000000E+00 0.  1.
         -5    1    5    5    0  503  0.30206239178E+02 -0.20577165218E+02  0.13321682274E+02  0.39184101780E+02  0.47000000000E+01 0.  1.
<mgrwt>
<rscale>  2 0.18807270E+03</rscale>
<asrwt>0</asrwt>
<pdfrwt beam="1">  1       21 0.45454590E-01 0.18807746E+03</pdfrwt>
<pdfrwt beam="2">  1       21 0.19712506E-01 0.18807746E+03</pdfrwt>
<totfact> 0.11026604E+05</totfact>
</mgrwt>
</event>
<event>
12    1  0.2769346E-001  0.2424720E+03  0.7546771E-02  0.1118872E+00
         21   -1    0    0  504  503  0.00000000000E+00  0.00000000000E+00  0.10270479627E+04  0.10270479627E+04  0.00000000000E+00 0.  1.
         21   -1    0    0  502  504 -0.00000000000E+00 -0.00000000000E+00 -0.18476348090E+03  0.18476348090E+03  0.00000000000E+00 0. -1.
          6    2    1    2  502    0 -0.10178788675E+03  0.12877376975E+03 -0.83064037212E+02  0.25630510065E+03  0.17846347716E+03 0.  0.
         24    2    3    3    0    0 -0.12849831567E+03  0.47855913411E+02 -0.49767730982E+02  0.16469789299E+03  0.76462823195E+02 0.  0.
         -6    2    1    2    0  503  0.10178788675E+03 -0.12877376975E+03  0.92534851901E+03  0.95550634295E+03  0.17256602249E+03 0.  0.
        -24    2    5    5    0    0  0.47641354288E+02 -0.85168259598E+01  0.57834474993E+03  0.58425536954E+03  0.67301204246E+02 0.  0.
          4    1    4    4  501    0 -0.68857811181E+02  0.15682544208E+01  0.84095676192E+01  0.69387163151E+02  0.00000000000E+00 0. -1.
         -3    1    4    4    0  501 -0.59640504487E+02  0.46287658990E+02 -0.58177298601E+02  0.95310729840E+02  0.00000000000E+00 0.  1.
          5    1    3    3  502    0  0.26710428918E+02  0.80917856337E+02 -0.33296306230E+02  0.91607207662E+02  0.47000000000E+01 0. -1.
         11    1    6    6    0    0  0.56714859341E+02  0.81136230177E+01  0.51389974896E+03  0.51708351176E+03  0.00000000000E+00 0. -1.
        -12    1    6    6    0    0 -0.90735050526E+01 -0.16630448977E+02  0.64445000971E+02  0.67171857777E+02  0.00000000000E+00 0.  1.
         -5    1    5    5    0  503  0.54146532462E+02 -0.12025694379E+03  0.34700376908E+03  0.37125097341E+03  0.47000000000E+01 0.  1.
<mgrwt>
<rscale>  2 0.24138796E+03</rscale>
<asrwt>0</asrwt>
<pdfrwt beam="1">  1       21 0.15800738E+00 0.24247200E+03</pdfrwt>
<pdfrwt beam="2">  1       21 0.28425151E-01 0.24247200E+03</pdfrwt>
<totfact> 0.29546051E+03</totfact>
</mgrwt>
</event>
<event>
12    1  0.2769346E-001  0.1865641E+03  0.7546771E-02  0.1161975E+00
         21   -1    0    0  504  503  0.00000000000E+00  0.00000000000E+00  0.33965576300E+03  0.33965576300E+03  0.00000000000E+00 0.  1.
         21   -1    0    0  502  504 -0.00000000000E+00 -0.00000000000E+00 -0.10158509663E+03  0.10158509663E+03  0.00000000000E+00 0.  1.
          6    2    1    2  502    0 -0.18389080485E+02  0.67715608733E+02  0.11965218090E+03  0.22026777878E+03  0.17110724130E+03 0.  0.
         24    2    3    3    0    0  0.37808245159E+02  0.91387004040E+02  0.83666115486E+02  0.14930609003E+03  0.74237737917E+02 0.  0.
         -6    2    1    2    0  503  0.18389080485E+02 -0.67715608733E+02  0.11841848547E+03  0.22097308085E+03  0.17286585207E+03 0.  0.
        -24    2    5    5    0    0  0.32858341161E+02 -0.11014647380E+03  0.94002209551E+02  0.16970923058E+03  0.82175977431E+02 0.  0.
          4    1    4    4  501    0  0.17590938648E+02  0.86515240464E+02  0.32503879235E+02  0.94078850548E+02  0.00000000000E+00 0. -1.
         -3    1    4    4    0  501  0.20217306511E+02  0.48717635756E+01  0.51162236251E+02  0.55227239485E+02  0.00000000000E+00 0.  1.
          5    1    3    3  502    0 -0.56197325644E+02 -0.23671395307E+02  0.35986065413E+02  0.70961688743E+02  0.47000000000E+01 0. -1.
         11    1    6    6    0    0 -0.16741100468E+02 -0.33590576902E+02  0.63062835907E+02  0.73386051631E+02  0.00000000000E+00 0. -1.
        -12    1    6    6    0    0  0.49599441628E+02 -0.76555896902E+02  0.30939373645E+02  0.96323178944E+02  0.00000000000E+00 0.  1.
         -5    1    5    5    0  503 -0.14469260676E+02  0.42430865071E+02  0.24416275923E+02  0.51263850276E+02  0.47000000000E+01 0.  1.
<mgrwt>
<rscale>  2 0.18615569E+03</rscale>
<asrwt>0</asrwt>
<pdfrwt beam="1">  1       21 0.52254732E-01 0.18656410E+03</pdfrwt>
<pdfrwt beam="2">  1       21 0.15628477E-01 0.18656410E+03</pdfrwt>
<totfact> 0.12673804E+05</totfact>
</mgrwt>
</event>
<event>
12    1  0.2769346E-001  0.2375843E+03  0.7546771E-02  0.1121850E+00
         21   -1    0    0  504  503  0.00000000000E+00  0.00000000000E+00  0.78020638980E+03  0.78020638980E+03  0.00000000000E+00 0. -1.
         21   -1    0    0  502  504 -0.00000000000E+00 -0.00000000000E+00 -0.90747025416E+02  0.90747025416E+02  0.00000000000E+00 0.  1.
          6    2    1    2  502    0 -0.10370322752E+03 -0.12048167630E+03  0.54641977201E+03  0.59583627917E+03  0.17656758086E+03 0.  0.
         24    2    3    3    0    0 -0.13379728255E+03 -0.95525655306E+02  0.33170262241E+03  0.37753831889E+03  0.74038428348E+02 0.  0.
         -6    2    1    2    0  503  0.10370322752E+03  0.12048167630E+03  0.14303959237E+03  0.27511713604E+03  0.17308645192E+03 0.  0.
        -24    2    5    5    0    0  0.45747460925E+02  0.14223345672E+03  0.11063679792E+03  0.20508827113E+03  0.86588171886E+02 0.  0.
          2    1    4    4  501    0 -0.12205789779E+03 -0.10671938267E+03  0.31487405064E+03  0.35416496836E+03  0.00000000000E+00 0. -1.
         -1    1    4    4    0  501 -0.11739384757E+02  0.11193727360E+02  0.16828571773E+02  0.23373350521E+02  0.00000000000E+00 0.  1.
          5    1    3    3  502    0  0.30094055035E+02 -0.24956020991E+02  0.21471714960E+03  0.21829796028E+03  0.47000000000E+01 0. -1.
         13    1    6    6    0    0 -0.19459763101E+02  0.23237477007E+02  0.45254139566E+02  0.54466502233E+02  0.00000000000E+00 0. -1.
        -14    1    6    6    0    0  0.65207224027E+02  0.11899597971E+03  0.65382658355E+02  0.15062176890E+03  0.00000000000E+00 0.  1.
         -5    1    5    5    0  503  0.57955766592E+02 -0.21751780421E+02  0.32402794451E+02  0.70028864913E+02  0.47000000000E+01 0.  1.
<mgrwt>
<rscale>  2 0.23693779E+03</rscale>
<asrwt>0</asrwt>
<pdfrwt beam="1">  1       21 0.12003175E+00 0.23758431E+03</pdfrwt>
<pdfrwt beam="2">  1       21 0.13961081E-01 0.23758431E+03</pdfrwt>
<totfact> 0.22977155E+04</totfact>
</mgrwt>
</event>
<event>
12    1  0.2769346E-001  0.1826523E+03  0.7546771E-02  0.1167208E+00
         21   -1    0    0  504  503  0.00000000000E+00  0.00000000000E+00  0.92904757670E+02  0.92904757670E+02  0.00000000000E+00 0. -1.
         21   -1    0    0  502  504 -0.00000000000E+00 -0.00000000000E+00 -0.36374654991E+03  0.36374654991E+03  0.00000000000E+00 0. -1.
          6    2    1    2  502    0  0.27757280037E+02 -0.14611300059E+02 -0.78726521616E+02  0.19156612495E+03  0.17180150854E+03 0.  0.
         24    2    3    3    0    0 -0.38123740665E+02 -0.42594870791E+02 -0.38764990789E+02  0.10945398781E+03  0.84910001272E+02 0.  0.
         -6    2    1    2    0  503 -0.27757280037E+02  0.14611300059E+02 -0.19211527063E+03  0.26508518264E+03  0.17993865666E+03 0.  0.
        -24    2    5    5    0    0 -0.25038996120E+02  0.42389501241E+02 -0.26097632775E+02  0.96672108304E+02  0.78997398345E+02 0.  0.
          2    1    4    4  501    0  0.24938130269E+02  0.14767222282E+01 -0.52103665633E+01  0.25519384193E+02  0.00000000000E+00 0. -1.
         -1    1    4    4    0  501 -0.63061870934E+02 -0.44071593019E+02 -0.33554624226E+02  0.83934603614E+02  0.00000000000E+00 0.  1.
          5    1    3    3  502    0  0.65881020702E+02  0.27983570732E+02 -0.39961530827E+02  0.82112137139E+02  0.47000000000E+01 0.  1.
         11    1    6    6    0    0  0.15134294647E+01 -0.60571356329E+01  0.22341780869E+02  0.23197726898E+02  0.00000000000E+00 0. -1.
        -12    1    6    6    0    0 -0.26552425585E+02  0.48446636874E+02 -0.48439413644E+02  0.73474381406E+02  0.00000000000E+00 0.  1.
         -5    1    5    5    0  503 -0.27182839169E+01 -0.27778201182E+02 -0.16601763785E+03  0.16841307433E+03  0.47000000000E+01 0.  1.
<mgrwt>
<rscale>  2 0.18061587E+03</rscale>
<asrwt>0</asrwt>
<pdfrwt beam="1">  1       21 0.14293040E-01 0.18265234E+03</pdfrwt>
<pdfrwt beam="2">  1       21 0.55961008E-01 0.18265234E+03</pdfrwt>
<totfact> 0.12921467E+05</totfact>
</mgrwt>
</event>
<event>
12    1  0.2769346E-001  0.2098232E+03  0.7546771E-02  0.1142375E+00
         21   -1    0    0  504  503  0.00000000000E+00  0.00000000000E+00  0.34837269560E+03  0.34837269560E+03  0.00000000000E+00 0. -1.
         21   -1    0    0  502  504 -0.00000000000E+00 -0.00000000000E+00 -0.16840884286E+03  0.16840884286E+03  0.00000000000E+00 0. -1.
          6    2    1    2  502    0 -0.16425109504E+02 -0.11676346460E+03 -0.41615856141E+02  0.21391036728E+03  0.17355769893E+03 0.  0.
         24    2    3    3    0    0 -0.15875196833E+01 -0.70586227746E+02 -0.92900003226E+02  0.14316685155E+03  0.82954210365E+02 0.  0.
         -6    2    1    2    0  503  0.16425109504E+02  0.11676346460E+03  0.22157970888E+03  0.30287117118E+03  0.16949893232E+03 0.  0.
        -24    2    5    5    0    0  0.36233458078E+02  0.78115996936E+02  0.22853783535E+03  0.25863879668E+03  0.85144069092E+02 0.  0.
          2    1    4    4  501    0 -0.28895210305E+02 -0.20559037797E+02 -0.15521528567E+01  0.35496709596E+02  0.00000000000E+00 0. -1.
         -1    1    4    4    0  501  0.27307690621E+02 -0.50027189950E+02 -0.91347850370E+02  0.10767014195E+03  0.00000000000E+00 0.  1.
          5    1    3    3  502    0 -0.14837589821E+02 -0.46177236853E+02  0.51284147085E+02  0.70743515726E+02  0.47000000000E+01 0. -1.
         11    1    6    6    0    0  0.29011789672E+02  0.96409120096E+02  0.17955677147E+03  0.20585683510E+03  0.00000000000E+00 0. -1.
        -12    1    6    6    0    0  0.72216684054E+01 -0.18293123159E+02  0.48981063880E+02  0.52781961581E+02  0.00000000000E+00 0.  1.
         -5    1    5    5    0  503 -0.19808348574E+02  0.38647467663E+02 -0.69581264650E+01  0.44232374500E+02  0.47000000000E+01 0.  1.
<mgrwt>
<rscale>  2 0.20898197E+03</rscale>
<asrwt>0</asrwt>
<pdfrwt beam="1">  1       21 0.53595799E-01 0.20982318E+03</pdfrwt>
<pdfrwt beam="2">  1       21 0.25909053E-01 0.20982318E+03</pdfrwt>
<totfact> 0.46208378E+04</totfact>
</mgrwt>
</event>
<event>
12    1  0.2769346E-001  0.2082681E+03  0.7546771E-02  0.1143290E+00
         21   -1    0    0  504  503  0.00000000000E+00  0.00000000000E+00  0.37770953420E+03  0.37770953420E+03  0.00000000000E+00 0. -1.
         21   -1    0    0  502  504 -0.00000000000E+00 -0.00000000000E+00 -0.12123575940E+03  0.12123575940E+03  0.00000000000E+00 0.  1.
          6    2    1    2  502    0  0.58276899180E+02  0.99686151597E+02  0.67343366172E+02  0.21888517138E+03  0.17332646505E+03 0.  0.
         24    2    3    3    0    0 -0.59287776991E+01  0.57433342172E+02 -0.21513730091E+02  0.10130395518E+03  0.80410892014E+02 0.  0.
         -6    2    1    2    0  503 -0.58276899180E+02 -0.99686151597E+02  0.18913040863E+03  0.28006012222E+03  0.17125955386E+03 0.  0.
        -24    2    5    5    0    0 -0.81872126080E+02 -0.12300442874E+03  0.17757094672E+03  0.24461738049E+03  0.80455498269E+02 0.  0.
          2    1    4    4  501    0 -0.35870116378E+02  0.78344407325E+01  0.59394507619E+01  0.37193020661E+02  0.00000000000E+00 0. -1.
         -1    1    4    4    0  501  0.29941338679E+02  0.49598901440E+02 -0.27453180853E+02  0.64110934519E+02  0.00000000000E+00 0.  1.
          5    1    3    3  502    0  0.64205676879E+02  0.42252809424E+02  0.88857096263E+02  0.11758121620E+03  0.47000000000E+01 0. -1.
         13    1    6    6    0    0 -0.21250898652E+02 -0.20112332739E+02  0.95065096537E+02  0.99465970067E+02  0.00000000000E+00 0. -1.
        -14    1    6    6    0    0 -0.60621227427E+02 -0.10289209600E+03  0.82505850181E+02  0.14515141042E+03  0.00000000000E+00 0.  1.
         -5    1    5    5    0  503  0.23595226899E+02  0.23318277143E+02  0.11559461914E+02  0.35442741726E+02  0.47000000000E+01 0.  1.
<mgrwt>
<rscale>  2 0.20783750E+03</rscale>
<asrwt>0</asrwt>
<pdfrwt beam="1">  1       21 0.58109158E-01 0.20826807E+03</pdfrwt>
<pdfrwt beam="2">  1       21 0.18651655E-01 0.20826807E+03</pdfrwt>
<totfact> 0.72444603E+04</totfact>
</mgrwt>
</event>
<event>
12    1  0.2769346E-001  0.1918718E+03  0.7546771E-02  0.1157682E+00
         21   -1    0    0  504  503  0.00000000000E+00  0.00000000000E+00  0.90028661741E+02  0.90028661741E+02  0.00000000000E+00 0.  1.
         21   -1    0    0  502  504 -0.00000000000E+00 -0.00000000000E+00 -0.40046734509E+03  0.40046734509E+03  0.00000000000E+00 0.  1.
          6    2    1    2  502    0  0.80347414707E+01  0.76324435659E+02 -0.15366030122E+03  0.24271738010E+03  0.17149420363E+03 0.  0.
         24    2    3    3    0    0 -0.20905556875E+02  0.10770101053E+03 -0.77726033650E+02  0.15548130206E+03  0.78080400915E+02 0.  0.
         -6    2    1    2    0  503 -0.80347414707E+01 -0.76324435659E+02 -0.15677838212E+03  0.24777862673E+03  0.17585451434E+03 0.  0.
        -24    2    5    5    0    0  0.11607048375E+02  0.24362834523E+02 -0.50106320991E+02  0.99708559160E+02  0.81871130984E+02 0.  0.
          2    1    4    4  501    0  0.16670827241E+02  0.33544631937E+01  0.42969290751E+01  0.17539455627E+02  0.00000000000E+00 0. -1.
         -1    1    4    4    0  501 -0.37576384116E+02  0.10434654733E+03 -0.82022962725E+02  0.13794184643E+03  0.00000000000E+00 0.  1.
          5    1    3    3  502    0  0.28940298345E+02 -0.31376574867E+02 -0.75934267574E+02  0.87236078034E+02  0.47000000000E+01 0. -1.
         11    1    6    6    0    0 -0.24796629899E+02  0.37350934070E+02 -0.39186210517E+02  0.59544304723E+02  0.00000000000E+00 0. -1.
        -12    1    6    6    0    0  0.36403678274E+02 -0.12988099547E+02 -0.10920110474E+02  0.40164254437E+02  0.00000000000E+00 0.  1.
         -5    1    5    5    0  503 -0.19641789846E+02 -0.10068727018E+03 -0.10667206113E+03  0.14807006757E+03  0.47000000000E+01 0.  1.
<mgrwt>
<rscale>  2 0.19086688E+03</rscale>
<asrwt>0</asrwt>
<pdfrwt beam="1">  1       21 0.13850563E-01 0.19187180E+03</pdfrwt>
<pdfrwt beam="2">  1       21 0.61610362E-01 0.19187180E+03</pdfrwt>
<totfact> 0.11100461E+05</totfact>
</mgrwt>
</event>
<event>
12    1  0.2769346E-001  0.2245471E+03  0.7546771E-02  0.1131049E+00
         21   -1    0    0  504  503  0.00000000000E+00  0.00000000000E+00  0.95106239439E+02  0.95106239439E+02  0.00000000000E+00 0.  1.
         21   -1    0    0  502  504 -0.00000000000E+00 -0.00000000000E+00 -0.56296871382E+03  0.56296871382E+03  0.00000000000E+00 0.  1.
          6    2    1    2  502    0  0.78969799900E+02  0.11427609667E+03 -0.32234289796E+03  0.39284390454E+03  0.17642600122E+03 0.  0.
         24    2    3    3    0    0  0.47455525082E+02  0.14327107413E+03 -0.30025708497E+03  0.34443180512E+03  0.75500488491E+02 0.  0.
         -6    2    1    2    0  503 -0.78969799900E+02 -0.11427609667E+03 -0.14551957643E+03  0.26523104872E+03  0.17284763959E+03 0.  0.
        -24    2    5    5    0    0 -0.65661666794E+02 -0.14814659149E+03 -0.13566355279E+03  0.22723699618E+03  0.83505603528E+02 0.  0.
          2    1    4    4  501    0  0.96672166081E+00  0.51888958268E+02 -0.17516506801E+03  0.18269154220E+03  0.00000000000E+00 0. -1.
         -1    1    4    4    0  501  0.46488803422E+02  0.91382115862E+02 -0.12509201696E+03  0.16174026292E+03  0.00000000000E+00 0.  1.
          5    1    3    3  502    0  0.31514274817E+02 -0.28994977458E+02 -0.22085812987E+02  0.48412099422E+02  0.47000000000E+01 0. -1.
         13    1    6    6    0    0 -0.45524159681E+02 -0.17211765380E+02 -0.25514844027E+02  0.54951808414E+02  0.00000000000E+00 0. -1.
        -14    1    6    6    0    0 -0.20137507112E+02 -0.13093482611E+03 -0.11014870876E+03  0.17228518777E+03  0.00000000000E+00 0.  1.
         -5    1    5    5    0  503 -0.13308133106E+02  0.33870494821E+02 -0.98560236375E+01  0.37994052536E+02  0.47000000000E+01 0.  1.
<mgrwt>
<rscale>  2 0.22384366E+03</rscale>
<asrwt>0</asrwt>
<pdfrwt beam="1">  1       21 0.14631729E-01 0.22454708E+03</pdfrwt>
<pdfrwt beam="2">  1       21 0.86610572E-01 0.22454708E+03</pdfrwt>
<totfact> 0.46373768E+04</totfact>
</mgrwt>
</event>
<event>
12    1  0.2769346E-001  0.4504819E+03  0.7546771E-02  0.1027920E+00
         21   -1    0    0  504  503  0.00000000000E+00  0.00000000000E+00  0.88904817859E+03  0.88904817859E+03  0.00000000000E+00 0. -1.
         21   -1    0    0  502  504 -0.00000000000E+00 -0.00000000000E+00 -0.33047056188E+03  0.33047056188E+03  0.00000000000E+00 0.  1.
          6    2    1    2  502    0 -0.38784460586E+03 -0.13610845491E+03 -0.62653257188E+02  0.45481793513E+03  0.18435013883E+03 0.  0.
         24    2    3    3    0    0 -0.11143074592E+03 -0.10281835469E+03 -0.92779793395E+01  0.17129745435E+03  0.79172670579E+02 0.  0.
         -6    2    1    2    0  503  0.38784460586E+03  0.13610845491E+03  0.62123087389E+03  0.76470080534E+03  0.17288890425E+03 0.  0.
        -24    2    5    5    0    0  0.21605282823E+03  0.14727150258E+03  0.37387941265E+03  0.46330096481E+03  0.80586901709E+02 0.  0.
          4    1    4    4  501    0 -0.71534724386E+02 -0.66049436322E+02  0.32689411679E+02  0.10270512386E+03  0.00000000000E+00 0. -1.
         -3    1    4    4    0  501 -0.39896021537E+02 -0.36768918373E+02 -0.41967391018E+02  0.68592330488E+02  0.00000000000E+00 0.  1.
          5    1    3    3  502    0 -0.27641385994E+03 -0.33290100213E+02 -0.53375277849E+02  0.28352048078E+03  0.47000000000E+01 0. -1.
         11    1    6    6    0    0  0.18541932829E+03  0.97225969660E+02  0.24898859241E+03  0.32531298104E+03  0.00000000000E+00 0. -1.
        -12    1    6    6    0    0  0.30633499934E+02  0.50045532916E+02  0.12489082025E+03  0.13798798377E+03  0.00000000000E+00 0.  1.
         -5    1    5    5    0  503  0.17179177763E+03 -0.11163047669E+02  0.24735146124E+03  0.30139984053E+03  0.47000000000E+01 0.  1.
<mgrwt>
<rscale>  2 0.44933561E+03</rscale>
<asrwt>0</asrwt>
<pdfrwt beam="1">  1       21 0.13677664E+00 0.45048188E+03</pdfrwt>
<pdfrwt beam="2">  1       21 0.50841625E-01 0.45048188E+03</pdfrwt>
<totfact> 0.11877119E+03</totfact>
</mgrwt>
</event>
<event>
12    1  0.2769346E-001  0.2173005E+03  0.7546771E-02  0.1135925E+00
         21   -1    0    0  504  503  0.00000000000E+00  0.00000000000E+00  0.49378645525E+03  0.49378645525E+03  0.00000000000E+00 0. -1.
         21   -1    0    0  502  504 -0.00000000000E+00 -0.00000000000E+00 -0.99110820492E+02  0.99110820492E+02  0.00000000000E+00 0. -1.
          6    2    1    2  502    0  0.46240145809E+02 -0.12315703558E+03  0.14155347635E+03  0.25933938059E+03  0.17295583587E+03 0.  0.
         24    2    3    3    0    0 -0.12108087910E+02 -0.68147230944E+02  0.13874129372E+03  0.17896156428E+03  0.89372501520E+02 0.  0.
         -6    2    1    2    0  503 -0.46240145809E+02  0.12315703558E+03  0.25312215840E+03  0.33355789515E+03  0.17287057541E+03 0.  0.
        -24    2    5    5    0    0 -0.26644396199E+02  0.91632039103E+02  0.66464434006E+02  0.14318716504E+03  0.83538546820E+02 0.  0.
          4    1    4    4  501    0 -0.21552730550E+02  0.15100774848E+02  0.17558034077E+02  0.31636026233E+02  0.00000000000E+00 0. -1.
         -3    1    4    4    0  501  0.94446426407E+01 -0.83248005791E+02  0.12118325964E+03  0.14732553804E+03  0.00000000000E+00 0.  1.
          5    1    3    3  502    0  0.58348233719E+02 -0.55009804638E+02  0.28121826374E+01  0.80377816315E+02  0.47000000000E+01 0. -1.
         13    1    6    6    0    0  0.14222767144E+02  0.18352605129E+02  0.53455033559E+02  0.58279892185E+02  0.00000000000E+00 0. -1.
        -14    1    6    6    0    0 -0.40867163343E+02  0.73279433975E+02  0.13009400447E+02  0.84907272853E+02  0.00000000000E+00 0.  1.
         -5    1    5    5    0  503 -0.19595749610E+02  0.31524996479E+02  0.18665772440E+03  0.19037073011E+03  0.47000000000E+01 0.  1.
<mgrwt>
<rscale>  2 0.21728358E+03</rscale>
<asrwt>0</asrwt>
<pdfrwt beam="1">  1       21 0.75967145E-01 0.21730055E+03</pdfrwt>
<pdfrwt beam="2">  1       21 0.15247819E-01 0.21730055E+03</pdfrwt>
<totfact> 0.58150434E+04</totfact>
</mgrwt>
</event>
<event>
12    1  0.2769346E-001  0.2501497E+03  0.7546771E-02  0.1113531E+00
         21   -1    0    0  504  503  0.00000000000E+00  0.00000000000E+00  0.78590420541E+03  0.78590420541E+03  0.00000000000E+00 0.  1.
         21   -1    0    0  502  504 -0.00000000000E+00 -0.00000000000E+00 -0.25841020917E+03  0.25841020917E+03  0.00000000000E+00 0. -1.
          6    2    1    2  502    0  0.88869024478E+02  0.15756322083E+03 -0.17168648651E+03  0.30173226807E+03  0.16983003231E+03 0.  0.
         24    2    3    3    0    0  0.14180553275E+02  0.12739390190E+03 -0.38154840877E+02  0.14571513465E+03  0.57851657282E+02 0.  0.
         -6    2    1    2    0  503 -0.88869024478E+02 -0.15756322083E+03  0.69918048275E+03  0.74258214651E+03  0.17277449112E+03 0.  0.
        -24    2    5    5    0    0 -0.29731806302E+02 -0.98367023766E+01  0.31570056809E+03  0.32737223601E+03  0.80777417617E+02 0.  0.
          4    1    4    4  501    0  0.34665388777E+02  0.64526554182E+02 -0.29761407795E+02  0.79063941007E+02  0.00000000000E+00 0. -1.
         -3    1    4    4    0  501 -0.20484835502E+02  0.62867347720E+02 -0.83934330823E+01  0.66651193641E+02  0.00000000000E+00 0.  1.
          5    1    3    3  502    0  0.74688471202E+02  0.30169318930E+02 -0.13353164563E+03  0.15601713342E+03  0.47000000000E+01 0. -1.
         11    1    6    6    0    0 -0.41676232742E+02  0.10981405736E+02  0.83804768428E+02  0.94237672185E+02  0.00000000000E+00 0. -1.
        -12    1    6    6    0    0  0.11944426439E+02 -0.20818108113E+02  0.23189579966E+03  0.23313456382E+03  0.00000000000E+00 0.  1.
         -5    1    5    5    0  503 -0.59137218176E+02 -0.14772651846E+03  0.38347991466E+03  0.41520991050E+03  0.47000000000E+01 0.  1.
<mgrwt>
<rscale>  2 0.24964207E+03</rscale>
<asrwt>0</asrwt>
<pdfrwt beam="1">  1       21 0.12090834E+00 0.25014975E+03</pdfrwt>
<pdfrwt beam="2">  1       21 0.39755417E-01 0.25014975E+03</pdfrwt>
<totfact> 0.30218938E+03</totfact>
</mgrwt>
</event>
<event>
12    1  0.2769346E-001  0.2036857E+03  0.7546771E-02  0.1147058E+00
         21   -1    0    0  504  503  0.00000000000E+00  0.00000000000E+00  0.11208779078E+03  0.11208779078E+03  0.00000000000E+00 0.  1.
         21   -1    0    0  502  504 -0.00000000000E+00 -0.00000000000E+00 -0.62725093779E+03  0.62725093779E+03  0.00000000000E+00 0.  1.
          6    2    1    2  502    0  0.48114873701E+02  0.96662119269E+02 -0.49653357079E+03  0.53668748955E+03  0.17271151711E+03 0.  0.
         24    2    3    3    0    0  0.95513807831E+02  0.93037314729E+02 -0.36619053844E+03  0.39786676254E+03  0.80147494488E+02 0.  0.
         -6    2    1    2    0  503 -0.48114873701E+02 -0.96662119269E+02 -0.18629576228E+02  0.20265123903E+03  0.17047538589E+03 0.  0.
        -24    2    5    5    0    0 -0.65635136604E+02 -0.40347151926E+02 -0.63960696564E+02  0.12811711510E+03  0.79919713777E+02 0.  0.
          4    1    4    4  501    0  0.99115977156E+02  0.57804030889E+02 -0.22844829976E+03  0.25564410530E+03  0.00000000000E+00 0. -1.
         -3    1    4    4    0  501 -0.36021693251E+01  0.35233283840E+02 -0.13774223868E+03  0.14222265723E+03  0.00000000000E+00 0.  1.
          5    1    3    3  502    0 -0.47398934130E+02  0.36248045406E+01 -0.13034303235E+03  0.13882072701E+03  0.47000000000E+01 0. -1.
         11    1    6    6    0    0 -0.41288600186E+01  0.21560931320E+02 -0.22728353002E+02  0.31599039141E+02  0.00000000000E+00 0. -1.
        -12    1    6    6    0    0 -0.61506276585E+02 -0.61908083246E+02 -0.41232343561E+02  0.96518075955E+02  0.00000000000E+00 0.  1.
         -5    1    5    5    0  503  0.17520262903E+02 -0.56314967344E+02  0.45331120336E+02  0.74534123930E+02  0.47000000000E+01 0.  1.
<mgrwt>
<rscale>  2 0.20321092E+03</rscale>
<asrwt>0</asrwt>
<pdfrwt beam="1">  1       21 0.17244276E-01 0.20368572E+03</pdfrwt>
<pdfrwt beam="2">  1       21 0.96500144E-01 0.20368572E+03</pdfrwt>
<totfact> 0.26960621E+04</totfact>
</mgrwt>
</event>
<event>
12    1  0.2769346E-001  0.1964737E+03  0.7546771E-02  0.1153563E+00
         21   -1    0    0  504  503  0.00000000000E+00  0.00000000000E+00  0.18903945344E+03  0.18903945344E+03  0.00000000000E+00 0. -1.
         21   -1    0    0  502  504 -0.00000000000E+00 -0.00000000000E+00 -0.24035579923E+03  0.24035579923E+03  0.00000000000E+00 0. -1.
          6    2    1    2  502    0  0.46939419099E+02  0.80537983967E+02 -0.11346256571E+03  0.22688251032E+03  0.17295156474E+03 0.  0.
         24    2    3    3    0    0  0.21797625995E+02  0.85648561949E+02 -0.10527761141E+02  0.12069450837E+03  0.81520046197E+02 0.  0.
         -6    2    1    2    0  503 -0.46939419099E+02 -0.80537983967E+02  0.62146219915E+02  0.20251274235E+03  0.16869968061E+03 0.  0.
        -24    2    5    5    0    0  0.21039132979E+02 -0.91644114697E+02  0.37478049882E+02  0.12919808969E+03  0.80288562581E+02 0.  0.
          4    1    4    4  501    0  0.23066529741E+02  0.99136485856E+02 -0.20555591830E+02  0.10383949142E+03  0.00000000000E+00 0. -1.
         -3    1    4    4    0  501 -0.12689037460E+01 -0.13487923907E+02  0.10027830690E+02  0.16855016949E+02  0.00000000000E+00 0.  1.
          5    1    3    3  502    0  0.25141793104E+02 -0.51105779821E+01 -0.10293480457E+03  0.10618800195E+03  0.47000000000E+01 0. -1.
         11    1    6    6    0    0  0.47001404886E+02 -0.67694060494E+02  0.43779991856E+02  0.93318302462E+02  0.00000000000E+00 0. -1.
        -12    1    6    6    0    0 -0.25962271907E+02 -0.23950054203E+02 -0.63019419738E+01  0.35879787228E+02  0.00000000000E+00 0.  1.
         -5    1    5    5    0  503 -0.67978552077E+02  0.11106130730E+02  0.24668170033E+02  0.73314652663E+02  0.47000000000E+01 0.  1.
<mgrwt>
<rscale>  2 0.19553392E+03</rscale>
<asrwt>0</asrwt>
<pdfrwt beam="1">  1       21 0.29082993E-01 0.19647371E+03</pdfrwt>
<pdfrwt beam="2">  1       21 0.36977815E-01 0.19647371E+03</pdfrwt>
<totfact> 0.79712274E+04</totfact>
</mgrwt>
</event>
<event>
12    1  0.2769346E-001  0.1845939E+03  0.7546771E-02  0.1164205E+00
         21   -1    0    0  504  503  0.00000000000E+00  0.00000000000E+00  0.71028177476E+03  0.71028177476E+03  0.00000000000E+00 0. -1.
         21   -1    0    0  502  504 -0.00000000000E+00 -0.00000000000E+00 -0.51309335106E+02  0.51309335106E+02  0.00000000000E+00 0. -1.
          6    2    1    2  502    0 -0.57887155414E+01  0.57463114857E+02  0.22346133616E+03  0.28984458501E+03  0.17532654079E+03 0.  0.
         24    2    3    3    0    0 -0.60744179198E+02  0.69507948105E+02  0.11692141202E+03  0.16927084645E+03  0.80379056443E+02 0.  0.
         -6    2    1    2    0  503  0.57887155414E+01 -0.57463114857E+02  0.43551110350E+03  0.47174652486E+03  0.17187013600E+03 0.  0.
        -24    2    5    5    0    0  0.25538681622E+01 -0.68989233156E+02  0.13308991513E+03  0.16905199102E+03  0.78100023208E+02 0.  0.
          2    1    4    4  501    0 -0.10502324357E+02  0.49771925074E+02  0.13529828236E+02  0.52636485393E+02  0.00000000000E+00 0. -1.
         -1    1    4    4    0  501 -0.50241854841E+02  0.19736023031E+02  0.10339158378E+03  0.11663436106E+03  0.00000000000E+00 0.  1.
          5    1    3    3  502    0  0.54955463657E+02 -0.12044833247E+02  0.10653992414E+03  0.12057373856E+03  0.47000000000E+01 0. -1.
         13    1    6    6    0    0 -0.21790811590E+02  0.82142106760E+01  0.29723259788E+02  0.37759566989E+02  0.00000000000E+00 0. -1.
        -14    1    6    6    0    0  0.24344679752E+02 -0.77203443832E+02  0.10336665534E+03  0.13129242403E+03  0.00000000000E+00 0.  1.
         -5    1    5    5    0  503  0.32348473791E+01  0.11526118299E+02  0.30242118837E+03  0.30269453384E+03  0.47000000000E+01 0.  1.
<mgrwt>
<rscale>  2 0.18376848E+03</rscale>
<asrwt>0</asrwt>
<pdfrwt beam="1">  1       21 0.10927411E+00 0.18459392E+03</pdfrwt>
<pdfrwt beam="2">  1       21 0.78937444E-02 0.18459392E+03</pdfrwt>
<totfact> 0.81805768E+04</totfact>
</mgrwt>
</event>
<event>
12    1  0.2769346E-001  0.1838257E+03  0.7546771E-02  0.1164630E+00
         21   -1    0    0  504  503  0.00000000000E+00  0.00000000000E+00  0.26224731349E+03  0.26224731349E+03  0.00000000000E+00 0. -1.
         21   -1    0    0  502  504 -0.00000000000E+00 -0.00000000000E+00 -0.53797205078E+03  0.53797205078E+03  0.00000000000E+00 0. -1.
          6    2    1    2  502    0 -0.58705313306E+02 -0.11865198322E+02 -0.48720069346E+03  0.52001592745E+03  0.17165358242E+03 0.  0.
         24    2    3    3    0    0  0.24986467479E+02  0.13208066480E+02 -0.32416012079E+03  0.33498268418E+03  0.79591696896E+02 0.  0.
         -6    2    1    2    0  503  0.58705313306E+02  0.11865198322E+02  0.21147595617E+03  0.28020343682E+03  0.17379525088E+03 0.  0.
        -24    2    5    5    0    0  0.69934452947E+02 -0.20749339901E+02  0.21823660280E+03  0.24474080828E+03  0.83363574899E+02 0.  0.
          2    1    4    4  501    0 -0.13393158944E+02  0.10096764071E+02 -0.25715666145E+03  0.25770306532E+03  0.00000000000E+00 0. -1.
         -1    1    4    4    0  501  0.38379626423E+02  0.31113024098E+01 -0.67003459345E+02  0.77279618860E+02  0.00000000000E+00 0.  1.
          5    1    3    3  502    0 -0.83691780785E+02 -0.25073264802E+02 -0.16304057267E+03  0.18503324327E+03  0.47000000000E+01 0. -1.
         11    1    6    6    0    0  0.49392412839E+02 -0.21594283677E+02  0.44807486461E+02  0.70097320751E+02  0.00000000000E+00 0. -1.
        -12    1    6    6    0    0  0.20542040109E+02  0.84494377552E+00  0.17342911634E+03  0.17464348752E+03  0.00000000000E+00 0.  1.
         -5    1    5    5    0  503 -0.11229139641E+02  0.32614538223E+02 -0.67606466288E+01  0.35462628547E+02  0.47000000000E+01 0.  1.
<mgrwt>
<rscale>  2 0.18331773E+03</rscale>
<asrwt>0</asrwt>
<pdfrwt beam="1">  1       21 0.40345741E-01 0.18382569E+03</pdfrwt>
<pdfrwt beam="2">  1       21 0.82764930E-01 0.18382569E+03</pdfrwt>
<totfact> 0.75867733E+03</totfact>
</mgrwt>
</event>
<event>
12    1  0.2769346E-001  0.2014453E+03  0.7546771E-02  0.1148903E+00
         21   -1    0    0  504  503  0.00000000000E+00  0.00000000000E+00  0.59657777646E+03  0.59657777646E+03  0.00000000000E+00 0.  1.
         21   -1    0    0  502  504 -0.00000000000E+00 -0.00000000000E+00 -0.11591183691E+03  0.11591183691E+03  0.00000000000E+00 0. -1.
          6    2    1    2  502    0  0.26089121212E+02 -0.97809040766E+02  0.92793571903E+01  0.19986349918E+03  0.17208155372E+03 0.  0.
         24    2    3    3    0    0  0.55038351195E+02 -0.13120999768E+01  0.13328561564E+02  0.98926867797E+02  0.81104456783E+02 0.  0.
         -6    2    1    2    0  503 -0.26089121212E+02  0.97809040766E+02  0.47138658236E+03  0.51262611419E+03  0.17416363633E+03 0.  0.
        -24    2    5    5    0    0 -0.84256755788E+02  0.50842686868E+02  0.27341797789E+03  0.30095899236E+03  0.78324611343E+02 0.  0.
          2    1    4    4  501    0  0.74536659194E+02 -0.76405872096E+01  0.19674906551E+02  0.77467374323E+02  0.00000000000E+00 0. -1.
         -1    1    4    4    0  501 -0.19498307998E+02  0.63284872328E+01 -0.63463449876E+01  0.21459493474E+02  0.00000000000E+00 0.  1.
          5    1    3    3  502    0 -0.28949229983E+02 -0.96496940789E+02 -0.40492043735E+01  0.10093663138E+03  0.47000000000E+01 0. -1.
         11    1    6    6    0    0  0.61456743341E+01  0.39962759256E+01 -0.17675082222E+01  0.75407970142E+01  0.00000000000E+00 0. -1.
        -12    1    6    6    0    0 -0.90402430122E+02  0.46846410943E+02  0.27518548611E+03  0.29341819534E+03  0.00000000000E+00 0.  1.
         -5    1    5    5    0  503  0.58167634576E+02  0.46966353897E+02  0.19796860447E+03  0.21166712183E+03  0.47000000000E+01 0.  1.
<mgrwt>
<rscale>  2 0.20099448E+03</rscale>
<asrwt>0</asrwt>
<pdfrwt beam="1">  1       21 0.91781195E-01 0.20144533E+03</pdfrwt>
<pdfrwt beam="2">  1       21 0.17832591E-01 0.20144533E+03</pdfrwt>
<totfact> 0.28531782E+04</totfact>
</mgrwt>
</event>
<event>
12    1  0.2769346E-001  0.2409391E+03  0.7546771E-02  0.1119311E+00
         21   -1    0    0  504  503  0.00000000000E+00  0.00000000000E+00  0.30536864724E+03  0.30536864724E+03  0.00000000000E+00 0. -1.
         21   -1    0    0  502  504 -0.00000000000E+00 -0.00000000000E+00 -0.27605770171E+03  0.27605770171E+03  0.00000000000E+00 0.  1.
          6    2    1    2  502    0 -0.87044020178E+02  0.14286324408E+03 -0.14817863671E+03  0.28285780072E+03  0.17339278846E+03 0.  0.
         24    2    3    3    0    0 -0.63268977310E+02  0.10307282381E+03 -0.22809434340E+02  0.14911155923E+03  0.84184418408E+02 0.  0.
         -6    2    1    2    0  503  0.87044020178E+02 -0.14286324408E+03  0.17748958224E+03  0.29856854823E+03  0.17220353721E+03 0.  0.
        -24    2    5    5    0    0 -0.11414422688E+02 -0.49658610541E+02  0.33787676076E+02  0.10094897298E+03  0.80329455648E+02 0.  0.
          2    1    4    4  501    0 -0.11435895288E+01  0.65708761073E+02  0.14911867248E+02  0.67389263712E+02  0.00000000000E+00 0. -1.
         -1    1    4    4    0  501 -0.62125387781E+02  0.37364062740E+02 -0.37721301588E+02  0.81722295519E+02  0.00000000000E+00 0.  1.
          5    1    3    3  502    0 -0.23775042868E+02  0.39790420271E+02 -0.12536920237E+03  0.13374624149E+03  0.47000000000E+01 0. -1.
         13    1    6    6    0    0  0.17148289590E+02 -0.50970371410E+02  0.45113707621E+02  0.70194652310E+02  0.00000000000E+00 0. -1.
        -14    1    6    6    0    0 -0.28562712278E+02  0.13117608692E+01 -0.11326031545E+02  0.30754320669E+02  0.00000000000E+00 0.  1.
         -5    1    5    5    0  503  0.98458442866E+02 -0.93204633543E+02  0.14370190616E+03  0.19761957525E+03  0.47000000000E+01 0.  1.
<mgrwt>
<rscale>  2 0.24072516E+03</rscale>
<asrwt>0</asrwt>
<pdfrwt beam="1">  1       21 0.46979792E-01 0.24093905E+03</pdfrwt>
<pdfrwt beam="2">  1       21 0.42470416E-01 0.24093905E+03</pdfrwt>
<totfact> 0.22532557E+04</totfact>
</mgrwt>
</event>
<event>
12    1  0.2769346E-001  0.2210454E+03  0.7546771E-02  0.1133633E+00
         21   -1    0    0  504  503  0.00000000000E+00  0.00000000000E+00  0.74816071745E+02  0.74816071745E+02  0.00000000000E+00 0. -1.
         21   -1    0    0  502  504 -0.00000000000E+00 -0.00000000000E+00 -0.73822929434E+03  0.73822929434E+03  0.00000000000E+00 0.  1.
          6    2    1    2  502    0 -0.13414717675E+03 -0.26810577998E+02 -0.47449147619E+03  0.52226627155E+03  0.17001654421E+03 0.  0.
         24    2    3    3    0    0 -0.15389851387E+03 -0.27681214836E+02 -0.46933981642E+03  0.50130194650E+03  0.81072659159E+02 0.  0.
         -6    2    1    2    0  503  0.13414717675E+03  0.26810577998E+02 -0.18892174640E+03  0.29077909453E+03  0.17362829098E+03 0.  0.
        -24    2    5    5    0    0  0.33360853760E+02  0.49974775639E+02 -0.37364958096E+02  0.10724159690E+03  0.80586569897E+02 0.  0.
          4    1    4    4  501    0 -0.16173985887E+03 -0.19248356244E+02 -0.45231481247E+03  0.48074834451E+03  0.00000000000E+00 0. -1.
         -3    1    4    4    0  501  0.78413450021E+01 -0.84328585913E+01 -0.17025003947E+02  0.20553601992E+02  0.00000000000E+00 0.  1.
          5    1    3    3  502    0  0.19751337119E+02  0.87063683746E+00 -0.51516597654E+01  0.20964325051E+02  0.47000000000E+01 0. -1.
         13    1    6    6    0    0 -0.17066169637E+02  0.28003864927E+02 -0.40541034314E+02  0.52144472959E+02  0.00000000000E+00 0. -1.
        -14    1    6    6    0    0  0.50427023396E+02  0.21970910711E+02  0.31760762184E+01  0.55097123938E+02  0.00000000000E+00 0.  1.
         -5    1    5    5    0  503  0.10078632299E+03 -0.23164197640E+02 -0.15155678831E+03  0.18353749763E+03  0.47000000000E+01 0.  1.
<mgrwt>
<rscale>  2 0.22033558E+03</rscale>
<asrwt>0</asrwt>
<pdfrwt beam="1">  1       21 0.11510165E-01 0.22104537E+03</pdfrwt>
<pdfrwt beam="2">  1       21 0.11357374E+00 0.22104537E+03</pdfrwt>
<totfact> 0.37623689E+04</totfact>
</mgrwt>
</event>
<event>
12    1  0.2769346E-001  0.1879900E+03  0.7546771E-02  0.1160566E+00
         21   -1    0    0  504  503  0.00000000000E+00  0.00000000000E+00  0.40550075593E+03  0.40550075593E+03  0.00000000000E+00 0.  1.
         21   -1    0    0  502  504 -0.00000000000E+00 -0.00000000000E+00 -0.86687565105E+02  0.86687565105E+02  0.00000000000E+00 0.  1.
          6    2    1    2  502    0  0.57972592594E+02  0.41816997207E+02  0.15165166276E+03  0.24153357337E+03  0.17386994422E+03 0.  0.
         24    2    3    3    0    0 -0.34711345192E+02  0.17078141878E+02  0.93375618284E+02  0.12919252724E+03  0.80468394979E+02 0.  0.
         -6    2    1    2    0  503 -0.57972592594E+02 -0.41816997207E+02  0.16716152807E+03  0.25065474766E+03  0.17255533406E+03 0.  0.
        -24    2    5    5    0    0 -0.96892392246E+02 -0.58971312785E+02  0.98135168878E+02  0.16944052716E+03  0.78827847034E+02 0.  0.
          2    1    4    4  501    0 -0.47886351841E+02  0.11627886150E+02  0.17972165140E+02  0.52452923167E+02  0.00000000000E+00 0. -1.
         -1    1    4    4    0  501  0.13175006649E+02  0.54502557282E+01  0.75403453144E+02  0.76739604076E+02  0.00000000000E+00 0.  1.
          5    1    3    3  502    0  0.92683937785E+02  0.24738855328E+02  0.58276044471E+02  0.11234104613E+03  0.47000000000E+01 0. -1.
         13    1    6    6    0    0 -0.33139218233E+02 -0.63977666186E+02  0.66690841377E+02  0.98178500087E+02  0.00000000000E+00 0. -1.
        -14    1    6    6    0    0 -0.63753174013E+02  0.50063534015E+01  0.31444327500E+02  0.71262027076E+02  0.00000000000E+00 0.  1.
         -5    1    5    5    0  503  0.38919799653E+02  0.17154315578E+02  0.69026359192E+02  0.81214220499E+02  0.47000000000E+01 0.  1.
<mgrwt>
<rscale>  2 0.18768546E+03</rscale>
<asrwt>0</asrwt>
<pdfrwt beam="1">  1       21 0.62384730E-01 0.18799000E+03</pdfrwt>
<pdfrwt beam="2">  1       21 0.13336549E-01 0.18799000E+03</pdfrwt>
<totfact> 0.11585053E+05</totfact>
</mgrwt>
</event>
<event>
12    1  0.2769346E-001  0.2229804E+03  0.7546771E-02  0.1132266E+00
         21   -1    0    0  504  503  0.00000000000E+00  0.00000000000E+00  0.14682297201E+04  0.14682297201E+04  0.00000000000E+00 0. -1.
         21   -1    0    0  502  504 -0.00000000000E+00 -0.00000000000E+00 -0.44638623905E+02  0.44638623905E+02  0.00000000000E+00 0. -1.
          6    2    1    2  502    0  0.73744771623E+02 -0.11520237745E+03  0.33579481024E+03  0.40308612341E+03  0.17609766948E+03 0.  0.
         24    2    3    3    0    0 -0.22524733393E+02 -0.24368741328E+02  0.17920619828E+03  0.19799918955E+03  0.77379702717E+02 0.  0.
         -6    2    1    2    0  503 -0.73744771623E+02  0.11520237745E+03  0.10877962859E+04  0.11097822206E+04  0.17206376226E+03 0.  0.
        -24    2    5    5    0    0 -0.87732742611E+02  0.16946181616E+02  0.54589238625E+03  0.55884495568E+03  0.79529742382E+02 0.  0.
          2    1    4    4  501    0  0.14009239842E+02 -0.24312805575E+02  0.14586157078E+03  0.14853608702E+03  0.00000000000E+00 0. -1.
         -1    1    4    4    0  501 -0.36533973235E+02 -0.55935753296E-01  0.33344627497E+02  0.49463102532E+02  0.00000000000E+00 0.  1.
          5    1    3    3  502    0  0.96269505016E+02 -0.90833636118E+02  0.15658861196E+03  0.20508693387E+03  0.47000000000E+01 0. -1.
         13    1    6    6    0    0 -0.99182220222E+02  0.22842878008E+02  0.52067437051E+03  0.53052870798E+03  0.00000000000E+00 0. -1.
        -14    1    6    6    0    0  0.11449477611E+02 -0.58966963916E+01  0.25218015742E+02  0.28316247701E+02  0.00000000000E+00 0.  1.
         -5    1    5    5    0  503  0.13987970988E+02  0.98256195829E+02  0.54190389970E+03  0.55093726490E+03  0.47000000000E+01 0.  1.
<mgrwt>
<rscale>  2 0.22218320E+03</rscale>
<asrwt>0</asrwt>
<pdfrwt beam="1">  1       21 0.22588146E+00 0.22298042E+03</pdfrwt>
<pdfrwt beam="2">  1       21 0.68674817E-02 0.22298042E+03</pdfrwt>
<totfact> 0.14125429E+04</totfact>
</mgrwt>
</event>
<event>
12    1  0.2769346E-001  0.2519560E+03  0.7546771E-02  0.1112151E+00
         21   -1    0    0  504  503  0.00000000000E+00  0.00000000000E+00  0.28478531692E+02  0.28478531692E+02  0.00000000000E+00 0.  1.
         21   -1    0    0  502  504 -0.00000000000E+00 -0.00000000000E+00 -0.22266046168E+04  0.22266046168E+04  0.00000000000E+00 0. -1.
          6    2    1    2  502    0  0.72721293613E+01 -0.18319617719E+03 -0.11318881921E+04  0.11595916027E+04  0.17282384820E+03 0.  0.
         24    2    3    3    0    0 -0.40606575076E+02 -0.59065129711E+02 -0.58706731058E+03  0.59874156018E+03  0.93305119099E+02 0.  0.
         -6    2    1    2    0  503 -0.72721293613E+01  0.18319617719E+03 -0.10662378930E+04  0.10954915458E+04  0.17211844510E+03 0.  0.
        -24    2    5    5    0    0 -0.11409530260E+02  0.19268380709E+03 -0.10629026596E+04  0.10836447323E+04  0.85244444104E+02 0.  0.
          2    1    4    4  501    0 -0.53263167906E+02 -0.54730420436E+02 -0.57691347708E+03  0.58194634118E+03  0.00000000000E+00 0. -1.
         -1    1    4    4    0  501  0.12656592830E+02 -0.43347092752E+01 -0.10153833500E+02  0.16795219002E+02  0.00000000000E+00 0.  1.
          5    1    3    3  502    0  0.47878704438E+02 -0.12413104748E+03 -0.54482088148E+03  0.56085004251E+03  0.47000000000E+01 0. -1.
         11    1    6    6    0    0 -0.43912748979E+02  0.15358075778E+03 -0.83453969515E+03  0.84968928525E+03  0.00000000000E+00 0. -1.
        -12    1    6    6    0    0  0.32503218718E+02  0.39103049314E+02 -0.22836296441E+03  0.23395544705E+03  0.00000000000E+00 0.  1.
         -5    1    5    5    0  503  0.41374008989E+01 -0.94876299018E+01 -0.33352334714E+01  0.11846813481E+02  0.47000000000E+01 0.  1.
<mgrwt>
<rscale>  2 0.25183504E+03</rscale>
<asrwt>0</asrwt>
<pdfrwt beam="1">  1       21 0.43813133E-02 0.25195596E+03</pdfrwt>
<pdfrwt beam="2">  1       21 0.34255450E+00 0.25195596E+03</pdfrwt>
<totfact> 0.61011129E+03</totfact>
</mgrwt>
</event>
<event>
12    1  0.2769346E-001  0.1777999E+03  0.7546771E-02  0.1170228E+00
         21   -1    0    0  504  503  0.00000000000E+00  0.00000000000E+00  0.62364769054E+03  0.62364769054E+03  0.00000000000E+00 0.  1.
         21   -1    0    0  502  504 -0.00000000000E+00 -0.00000000000E+00 -0.77008701363E+02  0.77008701363E+02  0.00000000000E+00 0.  1.
          6    2    1    2  502    0  0.10870193253E+02  0.37940314808E+02  0.66702667793E+02  0.18884424312E+03  0.17220706628E+03 0.  0.
         24    2    3    3    0    0  0.22719362441E+02 -0.42016167507E+02  0.69931464183E+01  0.88242260941E+02  0.73866533406E+02 0.  0.
         -6    2    1    2    0  503 -0.10870193253E+02 -0.37940314808E+02  0.47993632138E+03  0.51181214878E+03  0.17336428258E+03 0.  0.
        -24    2    5    5    0    0 -0.58909588569E+02 -0.58803548590E+02  0.25156116689E+03  0.27746121703E+03  0.82301332408E+02 0.  0.
          4    1    4    4  501    0  0.37482507885E+02 -0.51414758269E+02  0.19708688471E+02  0.66609670217E+02  0.00000000000E+00 0. -1.
         -3    1    4    4    0  501 -0.14763145444E+02  0.93985907624E+01 -0.12715542052E+02  0.21632590724E+02  0.00000000000E+00 0.  1.
          5    1    3    3  502    0 -0.11849169187E+02  0.79956482315E+02  0.59709521375E+02  0.10060198217E+03  0.47000000000E+01 0. -1.
         11    1    6    6    0    0 -0.64445475447E+02 -0.40196413024E+02  0.10484352354E+03  0.12946480353E+03  0.00000000000E+00 0. -1.
        -12    1    6    6    0    0  0.55358868784E+01 -0.18607135566E+02  0.14671764335E+03  0.14799641350E+03  0.00000000000E+00 0.  1.
         -5    1    5    5    0  503  0.48039395315E+02  0.20863233781E+02  0.22837515449E+03  0.23435093176E+03  0.47000000000E+01 0.  1.
<mgrwt>
<rscale>  2 0.17751718E+03</rscale>
<asrwt>0</asrwt>
<pdfrwt beam="1">  1       21 0.95945795E-01 0.17779990E+03</pdfrwt>
<pdfrwt beam="2">  1       21 0.11847493E-01 0.17779990E+03</pdfrwt>
<totfact> 0.54735097E+04</totfact>
</mgrwt>
</event>
<event>
12    1  0.2769346E-001  0.2139521E+03  0.7546771E-02  0.1138580E+00
         21   -1    0    0  504  503  0.00000000000E+00  0.00000000000E+00  0.61832623246E+02  0.61832623246E+02  0.00000000000E+00 0.  1.
         21   -1    0    0  502  504 -0.00000000000E+00 -0.00000000000E+00 -0.14015136246E+04  0.14015136246E+04  0.00000000000E+00 0.  1.
          6    2    1    2  502    0  0.10028103757E+03 -0.76734604068E+02 -0.11726643918E+04  0.11919239852E+04  0.17203640567E+03 0.  0.
         24    2    3    3    0    0  0.15353031883E+02 -0.63853017416E+01 -0.25975881160E+03  0.27236948506E+03  0.80212271612E+02 0.  0.
         -6    2    1    2    0  503 -0.10028103757E+03  0.76734604068E+02 -0.16701660958E+03  0.27142226262E+03  0.17271656206E+03 0.  0.
        -24    2    5    5    0    0 -0.73076696502E+02  0.33421719487E+02 -0.25026910029E+02  0.12042806762E+03  0.86135697245E+02 0.  0.
          4    1    4    4  501    0 -0.31905453772E+02 -0.12196841669E+02 -0.10056874895E+03  0.10621108319E+03  0.00000000000E+00 0. -1.
         -3    1    4    4    0  501  0.47258485654E+02  0.58115399271E+01 -0.15919006265E+03  0.16615840186E+03  0.00000000000E+00 0.  1.
          5    1    3    3  502    0  0.84928005685E+02 -0.70349302326E+02 -0.91290558016E+03  0.91955450016E+03  0.47000000000E+01 0. -1.
         11    1    6    6    0    0 -0.30180335236E+02 -0.26442037410E+02  0.58905744807E+01  0.40555306004E+02  0.00000000000E+00 0. -1.
        -12    1    6    6    0    0 -0.42896361266E+02  0.59863756897E+02 -0.30917484509E+02  0.79872761616E+02  0.00000000000E+00 0.  1.
         -5    1    5    5    0  503 -0.27204341066E+02  0.43312884581E+02 -0.14198969955E+03  0.15099419500E+03  0.47000000000E+01 0.  1.
<mgrwt>
<rscale>  2 0.21381479E+03</rscale>
<asrwt>0</asrwt>
<pdfrwt beam="1">  1       21 0.95127118E-02 0.21395209E+03</pdfrwt>
<pdfrwt beam="2">  1       21 0.21561747E+00 0.21395209E+03</pdfrwt>
<totfact> 0.93154737E+03</totfact>
</mgrwt>
</event>
<event>
12    1  0.2769346E-001  0.1920689E+03  0.7546771E-02  0.1158283E+00
         21   -1    0    0  504  503  0.00000000000E+00  0.00000000000E+00  0.38292577577E+03  0.38292577577E+03  0.00000000000E+00 0. -1.
         21   -1    0    0  502  504 -0.00000000000E+00 -0.00000000000E+00 -0.15612321269E+03  0.15612321269E+03  0.00000000000E+00 0. -1.
          6    2    1    2  502    0  0.64361019409E+02  0.50429968871E+01 -0.57082555572E+02  0.20037181658E+03  0.18089409634E+03 0.  0.
         24    2    3    3    0    0  0.23243326297E+01 -0.50352685042E+02 -0.67232011427E+02  0.11645320400E+03  0.80625119829E+02 0.  0.
         -6    2    1    2    0  503 -0.64361019409E+02 -0.50429968871E+01  0.28388511865E+03  0.33867717189E+03  0.17304246163E+03 0.  0.
        -24    2    5    5    0    0 -0.72237130130E+01 -0.63770490509E+02  0.14949453787E+03  0.18120810035E+03  0.79805396361E+02 0.  0.
          2    1    4    4  501    0  0.36992264638E+02 -0.45237730877E+01 -0.31400777051E+02  0.48732955640E+02  0.00000000000E+00 0. -1.
         -1    1    4    4    0  501 -0.34667932008E+02 -0.45828911954E+02 -0.35831234376E+02  0.67720248357E+02  0.00000000000E+00 0.  1.
          5    1    3    3  502    0  0.62036686780E+02  0.55395681929E+02  0.10149455855E+02  0.83918612579E+02  0.47000000000E+01 0. -1.
         11    1    6    6    0    0 -0.12510180415E+02  0.41788162826E+01  0.89325496976E+02  0.90294028205E+02  0.00000000000E+00 0. -1.
        -12    1    6    6    0    0  0.52864674017E+01 -0.67949306791E+02  0.60169040896E+02  0.90914072141E+02  0.00000000000E+00 0.  1.
         -5    1    5    5    0  503 -0.57137306396E+02  0.58727493622E+02  0.13439058078E+03  0.15746907154E+03  0.47000000000E+01 0.  1.
<mgrwt>
<rscale>  2 0.19019770E+03</rscale>
<asrwt>0</asrwt>
<pdfrwt beam="1">  1       21 0.58911658E-01 0.19206886E+03</pdfrwt>
<pdfrwt beam="2">  1       21 0.24018956E-01 0.19206886E+03</pdfrwt>
<totfact> 0.44069340E+04</totfact>
</mgrwt>
</event>
<event>
12    1  0.2769346E-001  0.2369636E+03  0.7546771E-02  0.1121938E+00
         21   -1    0    0  504  503  0.00000000000E+00  0.00000000000E+00  0.19470067925E+03  0.19470067925E+03  0.00000000000E+00 0. -1.
         21   -1    0    0  502  504 -0.00000000000E+00 -0.00000000000E+00 -0.29635444892E+03  0.29635444892E+03  0.00000000000E+00 0. -1.
          6    2    1    2  502    0 -0.73591967678E+02 -0.14316881007E+03 -0.92998848919E+02  0.25455949114E+03  0.17389267594E+03 0.  0.
         24    2    3    3    0    0 -0.60580186996E+02 -0.14033617031E+03 -0.13037237923E+02  0.17336047934E+03  0.80744575485E+02 0.  0.
         -6    2    1    2    0  503  0.73591967678E+02  0.14316881007E+03 -0.86549207442E+01  0.23649563703E+03  0.17303812527E+03 0.  0.
        -24    2    5    5    0    0  0.11703610137E+03  0.99748342038E+02 -0.10061510491E+02  0.17487747176E+03  0.82666289229E+02 0.  0.
          4    1    4    4  501    0 -0.79692072122E+02 -0.10215488781E+03 -0.16070558742E+02  0.13055539177E+03  0.00000000000E+00 0. -1.
         -3    1    4    4    0  501  0.19111885126E+02 -0.38181282497E+02  0.30333208196E+01  0.42805087564E+02  0.00000000000E+00 0.  1.
          5    1    3    3  502    0 -0.13011780682E+02 -0.28326397630E+01 -0.79961610997E+02  0.81199011803E+02  0.47000000000E+01 0. -1.
         11    1    6    6    0    0  0.70449960721E+02  0.86861278661E+02  0.25695481006E+02  0.11475337224E+03  0.00000000000E+00 0. -1.
        -12    1    6    6    0    0  0.46586140645E+02  0.12887063377E+02 -0.35756991498E+02  0.60124099524E+02  0.00000000000E+00 0.  1.
         -5    1    5    5    0  503 -0.43444133688E+02  0.43420468034E+02  0.14065897472E+01  0.61618165267E+02  0.47000000000E+01 0.  1.
<mgrwt>
<rscale>  2 0.23680685E+03</rscale>
<asrwt>0</asrwt>
<pdfrwt beam="1">  1       21 0.29953951E-01 0.23696360E+03</pdfrwt>
<pdfrwt beam="2">  1       21 0.45592992E-01 0.23696360E+03</pdfrwt>
<totfact> 0.48306259E+04</totfact>
</mgrwt>
</event>
<event>
12    1  0.2769346E-001  0.2063214E+03  0.7546771E-02  0.1144574E+00
         21   -1    0    0  504  503  0.00000000000E+00  0.00000000000E+00  0.13944368811E+04  0.13944368811E+04  0.00000000000E+00 0.  1.
         21   -1    0    0  502  504 -0.00000000000E+00 -0.00000000000E+00 -0.54922277047E+02  0.54922277047E+02  0.00000000000E+00 0.  1.
          6    2    1    2  502    0 -0.10541050677E+03 -0.32488826647E+02  0.18606444297E+03  0.27760158952E+03  0.17399932981E+03 0.  0.
         24    2    3    3    0    0 -0.11690386676E+03 -0.74194403253E+02  0.16224250710E+03  0.22799284964E+03  0.80540578845E+02 0.  0.
         -6    2    1    2    0  503  0.10541050677E+03  0.32488826647E+02  0.11534501611E+04  0.11717575686E+04  0.17436062263E+03 0.  0.
        -24    2    5    5    0    0  0.14334148762E+03  0.20006719401E+02  0.90141218722E+03  0.91653258439E+03  0.80876424713E+02 0.  0.
          4    1    4    4  501    0 -0.79938622729E+02 -0.60857821252E+02  0.15962187751E+03  0.18860806343E+03  0.00000000000E+00 0. -1.
         -3    1    4    4    0  501 -0.36965244032E+02 -0.13336582002E+02  0.26206295939E+01  0.39384786216E+02  0.00000000000E+00 0.  1.
          5    1    3    3  502    0  0.11493359989E+02  0.41705576607E+02  0.23821935867E+02  0.49608739879E+02  0.47000000000E+01 0. -1.
         11    1    6    6    0    0  0.13920606844E+01 -0.17457441099E+02  0.64196285921E+02  0.66542191192E+02  0.00000000000E+00 0. -1.
        -12    1    6    6    0    0  0.14194942694E+03  0.37464160500E+02  0.83721590130E+03  0.84999039320E+03  0.00000000000E+00 0.  1.
         -5    1    5    5    0  503 -0.37930980852E+02  0.12482107246E+02  0.25203797387E+03  0.25522498424E+03  0.47000000000E+01 0.  1.
<mgrwt>
<rscale>  2 0.20624506E+03</rscale>
<asrwt>0</asrwt>
<pdfrwt beam="1">  1       21 0.21452872E+00 0.20632141E+03</pdfrwt>
<pdfrwt beam="2">  1       21 0.84495822E-02 0.20632141E+03</pdfrwt>
<totfact> 0.11725975E+04</totfact>
</mgrwt>
</event>
<event>
12    1  0.2769346E-001  0.2012421E+03  0.7546771E-02  0.1148790E+00
         21   -1    0    0  504  503  0.00000000000E+00  0.00000000000E+00  0.14375011425E+03  0.14375011425E+03  0.00000000000E+00 0. -1.
         21   -1    0    0  502  504 -0.00000000000E+00 -0.00000000000E+00 -0.43152476675E+03  0.43152476675E+03  0.00000000000E+00 0.  1.
          6    2    1    2  502    0 -0.53532244269E+02  0.84633771130E+02 -0.31382064751E+03  0.37280259887E+03  0.17455601544E+03 0.  0.
         24    2    3    3    0    0 -0.62205669528E+02  0.20841975901E+02 -0.28180857083E+03  0.30075064194E+03  0.82042335117E+02 0.  0.
         -6    2    1    2    0  503  0.53532244269E+02 -0.84633771130E+02  0.26045995010E+02  0.20247228213E+03  0.17403463673E+03 0.  0.
        -24    2    5    5    0    0 -0.37725865445E+02 -0.49128078455E+02  0.21708979396E+02  0.10434177461E+03  0.81111757017E+02 0.  0.
          4    1    4    4  501    0 -0.40254156782E+02 -0.29453442679E+02 -0.12304530417E+03  0.13277066432E+03  0.00000000000E+00 0. -1.
         -3    1    4    4    0  501 -0.21951512746E+02  0.50295418580E+02 -0.15876326666E+03  0.16797997762E+03  0.00000000000E+00 0.  1.
          5    1    3    3  502    0  0.86734252596E+01  0.63791795229E+02 -0.32012076682E+02  0.72051956932E+02  0.47000000000E+01 0. -1.
         13    1    6    6    0    0  0.20782357734E+02  0.46088539395E+01 -0.21492518744E+01  0.21395495116E+02  0.00000000000E+00 0. -1.
        -14    1    6    6    0    0 -0.58508223180E+02 -0.53736932394E+02  0.23858231271E+02  0.82946279496E+02  0.00000000000E+00 0.  1.
         -5    1    5    5    0  503  0.91258109714E+02 -0.35505692675E+02  0.43370156134E+01  0.98130507516E+02  0.47000000000E+01 0.  1.
<mgrwt>
<rscale>  2 0.20112898E+03</rscale>
<asrwt>0</asrwt>
<pdfrwt beam="1">  1       21 0.22115402E-01 0.20124209E+03</pdfrwt>
<pdfrwt beam="2">  1       21 0.66388426E-01 0.20124209E+03</pdfrwt>
<totfact> 0.39603876E+04</totfact>
</mgrwt>
</event>
<event>
12    1  0.2769346E-001  0.1888443E+03  0.7546771E-02  0.1159552E+00
         21   -1    0    0  504  503  0.00000000000E+00  0.00000000000E+00  0.49266626358E+03  0.49266626358E+03  0.00000000000E+00 0. -1.
         21   -1    0    0  502  504 -0.00000000000E+00 -0.00000000000E+00 -0.76323322641E+02  0.76323322641E+02  0.00000000000E+00 0. -1.
          6    2    1    2  502    0 -0.27269558913E+02  0.71156710085E+02  0.14284030033E+03  0.23662553944E+03  0.17257284921E+03 0.  0.
         24    2    3    3    0    0  0.24237129305E+02  0.48246313334E+02  0.16096730724E+02  0.97831275701E+02  0.79979425968E+02 0.  0.
         -6    2    1    2    0  503  0.27269558913E+02 -0.71156710085E+02  0.27350264061E+03  0.33236404678E+03  0.17278674411E+03 0.  0.
        -24    2    5    5    0    0  0.11704656501E+02  0.23690441645E+02  0.17742877830E+03  0.19638417549E+03  0.79922068314E+02 0.  0.
          4    1    4    4  501    0  0.46877439267E+02  0.46428747352E+02 -0.58631248602E+01  0.66238199900E+02  0.00000000000E+00 0. -1.
         -3    1    4    4    0  501 -0.22640309962E+02  0.18175659818E+01  0.21959855585E+02  0.31593075801E+02  0.00000000000E+00 0.  1.
          5    1    3    3  502    0 -0.51506688218E+02  0.22910396751E+02  0.12674356960E+03  0.13879426374E+03  0.47000000000E+01 0. -1.
         11    1    6    6    0    0 -0.34165991302E+02  0.55793354041E+01  0.80592594514E+02  0.87713227256E+02  0.00000000000E+00 0. -1.
        -12    1    6    6    0    0  0.45870647803E+02  0.18111106241E+02  0.96836183784E+02  0.10867094823E+03  0.00000000000E+00 0.  1.
         -5    1    5    5    0  503  0.15564902412E+02 -0.94847151730E+02  0.96073862315E+02  0.13597987130E+03  0.47000000000E+01 0.  1.
<mgrwt>
<rscale>  2 0.18879535E+03</rscale>
<asrwt>0</asrwt>
<pdfrwt beam="1">  1       21 0.75794808E-01 0.18884429E+03</pdfrwt>
<pdfrwt beam="2">  1       21 0.11742050E-01 0.18884429E+03</pdfrwt>
<totfact> 0.94881525E+04</totfact>
</mgrwt>
</event>
<event>
12    1  0.2769346E-001  0.1733791E+03  0.7546771E-02  0.1174495E+00
         21   -1    0    0  504  503  0.00000000000E+00  0.00000000000E+00  0.71907793317E+03  0.71907793317E+03  0.00000000000E+00 0.  1.
         21   -1    0    0  502  504 -0.00000000000E+00 -0.00000000000E+00 -0.41894449808E+02  0.41894449808E+02  0.00000000000E+00 0.  1.
          6    2    1    2  502    0 -0.18525099672E+02 -0.10877899658E+02  0.31117324910E+03  0.35597387935E+03  0.17154330009E+03 0.  0.
         24    2    3    3    0    0  0.21618086253E+02  0.23503866048E+02  0.76726262298E+02  0.11559696530E+03  0.80349024182E+02 0.  0.
         -6    2    1    2    0  503  0.18525099672E+02  0.10877899658E+02  0.36601023426E+03  0.40499850362E+03  0.17204298398E+03 0.  0.
        -24    2    5    5    0    0 -0.34548014708E+02  0.54925470770E+02  0.18279097571E+03  0.20917120549E+03  0.78292271308E+02 0.  0.
          2    1    4    4  501    0  0.51143465654E+02  0.24890849712E+02  0.49149433438E+02  0.75172303980E+02  0.00000000000E+00 0. -1.
         -1    1    4    4    0  501 -0.29525379402E+02 -0.13869836633E+01  0.27576828860E+02  0.40424661316E+02  0.00000000000E+00 0.  1.
          5    1    3    3  502    0 -0.40143185924E+02 -0.34381765706E+02  0.23444698681E+03  0.24037691406E+03  0.47000000000E+01 0. -1.
         13    1    6    6    0    0 -0.31961348818E+02  0.98700888486E+01  0.17344278703E+02  0.37679841771E+02  0.00000000000E+00 0. -1.
        -14    1    6    6    0    0 -0.25866658902E+01  0.45055381921E+02  0.16544669700E+03  0.17149136372E+03  0.00000000000E+00 0.  1.
         -5    1    5    5    0  503  0.53073114380E+02 -0.44047571111E+02  0.18321925855E+03  0.19582729813E+03  0.47000000000E+01 0.  1.
<mgrwt>
<rscale>  2 0.17325497E+03</rscale>
<asrwt>0</asrwt>
<pdfrwt beam="1">  1       21 0.11062737E+00 0.17337905E+03</pdfrwt>
<pdfrwt beam="2">  1       21 0.64453005E-02 0.17337905E+03</pdfrwt>
<totfact> 0.11323359E+05</totfact>
</mgrwt>
</event>
<event>
12    1  0.2769346E-001  0.2115277E+03  0.7546771E-02  0.1140472E+00
         21   -1    0    0  504  503  0.00000000000E+00  0.00000000000E+00  0.18426183175E+04  0.18426183175E+04  0.00000000000E+00 0. -1.
         21   -1    0    0  502  504 -0.00000000000E+00 -0.00000000000E+00 -0.26697470307E+02  0.26697470307E+02  0.00000000000E+00 0. -1.
          6    2    1    2  502    0  0.12125513243E+03  0.86429518603E+01  0.11916652590E+04  0.12101959119E+04  0.17242548508E+03 0.  0.
         24    2    3    3    0    0  0.93900966306E+01 -0.12363700926E+02  0.29275152184E+03  0.30409268237E+03  0.80795240691E+02 0.  0.
         -6    2    1    2    0  503 -0.12125513243E+03 -0.86429518603E+01  0.62425558825E+03  0.65911987596E+03  0.17310824266E+03 0.  0.
        -24    2    5    5    0    0 -0.54473330859E+02 -0.70695251695E+02  0.36580954024E+03  0.38502728821E+03  0.80400438694E+02 0.  0.
          2    1    4    4  501    0  0.36683166928E+02  0.18031406930E+02  0.12890793783E+03  0.13523329031E+03  0.00000000000E+00 0. -1.
         -1    1    4    4    0  501 -0.27293070298E+02 -0.30395107855E+02  0.16384358401E+03  0.16885939207E+03  0.00000000000E+00 0.  1.
          5    1    3    3  502    0  0.11186503580E+03  0.21006652786E+02  0.89891373714E+03  0.90610322950E+03  0.47000000000E+01 0. -1.
         11    1    6    6    0    0 -0.42083793504E+02 -0.44531509281E+02  0.97452831480E+02  0.11511366278E+03  0.00000000000E+00 0. -1.
        -12    1    6    6    0    0 -0.12389537355E+02 -0.26163742414E+02  0.26835670876E+03  0.26991362543E+03  0.00000000000E+00 0.  1.
         -5    1    5    5    0  503 -0.66781801575E+02  0.62052299834E+02  0.25844604800E+03  0.27409258776E+03  0.47000000000E+01 0.  1.
<mgrwt>
<rscale>  2 0.21138797E+03</rscale>
<asrwt>0</asrwt>
<pdfrwt beam="1">  1       21 0.28347964E+00 0.21152771E+03</pdfrwt>
<pdfrwt beam="2">  1       21 0.41073046E-02 0.21152771E+03</pdfrwt>
<totfact> 0.15644363E+04</totfact>
</mgrwt>
</event>
<event>
12    1  0.2769346E-001  0.2047306E+03  0.7546771E-02  0.1145875E+00
         21   -1    0    0  504  503  0.00000000000E+00  0.00000000000E+00  0.70321706917E+02  0.70321706917E+02  0.00000000000E+00 0.  1.
         21   -1    0    0  502  504 -0.00000000000E+00 -0.00000000000E+00 -0.81286851650E+03  0.81286851650E+03  0.00000000000E+00 0.  1.
          6    2    1    2  502    0  0.68345180239E+02  0.84722972105E+02 -0.59962586441E+03  0.63350841385E+03  0.17301065713E+03 0.  0.
         24    2    3    3    0    0  0.10798885022E+03  0.32480982551E+02 -0.41814998156E+03  0.44048916067E+03  0.80403280930E+02 0.  0.
         -6    2    1    2    0  503 -0.68345180239E+02 -0.84722972105E+02 -0.14292094517E+03  0.24968180957E+03  0.17339424384E+03 0.  0.
        -24    2    5    5    0    0  0.13532584014E+02 -0.43884840006E+02 -0.14020809251E+02  0.91539290454E+02  0.77934899707E+02 0.  0.
          4    1    4    4  501    0  0.69209820937E+02 -0.76926107484E+01 -0.13516929039E+03  0.15205233520E+03  0.00000000000E+00 0. -1.
         -3    1    4    4    0  501  0.38779029286E+02  0.40173593299E+02 -0.28298069117E+03  0.28843682547E+03  0.00000000000E+00 0.  1.
          5    1    3    3  502    0 -0.39643669985E+02  0.52241989554E+02 -0.18147588285E+03  0.19301925318E+03  0.47000000000E+01 0. -1.
         11    1    6    6    0    0  0.88054890201E+01 -0.39757821430E+02 -0.44558858738E+02  0.60363174981E+02  0.00000000000E+00 0. -1.
        -12    1    6    6    0    0  0.47270949938E+01 -0.41270185754E+01  0.30538049488E+02  0.31176115472E+02  0.00000000000E+00 0.  1.
         -5    1    5    5    0  503 -0.81877764253E+02 -0.40838132099E+02 -0.12890013592E+03  0.15814251912E+03  0.47000000000E+01 0.  1.
<mgrwt>
<rscale>  2 0.20464934E+03</rscale>
<asrwt>0</asrwt>
<pdfrwt beam="1">  1       21 0.10818724E-01 0.20473058E+03</pdfrwt>
<pdfrwt beam="2">  1       21 0.12505669E+00 0.20473058E+03</pdfrwt>
<totfact> 0.33397956E+04</totfact>
</mgrwt>
</event>
<event>
12    1  0.2769346E-001  0.2323110E+03  0.7546771E-02  0.1125181E+00
         21   -1    0    0  504  503  0.00000000000E+00  0.00000000000E+00  0.60812908749E+03  0.60812908749E+03  0.00000000000E+00 0.  1.
         21   -1    0    0  502  504 -0.00000000000E+00 -0.00000000000E+00 -0.18690218850E+03  0.18690218850E+03  0.00000000000E+00 0. -1.
          6    2    1    2  502    0  0.14412476228E+03 -0.54691861177E+02 -0.77775318921E+02  0.24498447454E+03  0.17379656427E+03 0.  0.
         24    2    3    3    0    0  0.14618246986E+03 -0.10570687675E+01 -0.22975694192E+02  0.16813387930E+03  0.79816583220E+02 0.  0.
         -6    2    1    2    0  503 -0.14412476228E+03  0.54691861177E+02  0.49900221791E+03  0.55004680145E+03  0.17258367107E+03 0.  0.
        -24    2    5    5    0    0 -0.23878411651E+02  0.13036045480E+02  0.31810076168E+03  0.32881882246E+03  0.78699468844E+02 0.  0.
          4    1    4    4  501    0  0.61670433885E+02  0.31903362292E+02 -0.32986422845E+02  0.76871132639E+02  0.00000000000E+00 0. -1.
         -3    1    4    4    0  501  0.84512035977E+02 -0.32960431060E+02  0.10010728653E+02  0.91262746665E+02  0.00000000000E+00 0.  1.
          5    1    3    3  502    0 -0.20577075850E+01 -0.53634792409E+02 -0.54799624729E+02  0.76850595234E+02  0.47000000000E+01 0. -1.
         11    1    6    6    0    0 -0.12450137178E+02 -0.21515006554E+02  0.32538411225E+02  0.40946912311E+02  0.00000000000E+00 0. -1.
        -12    1    6    6    0    0 -0.11428274474E+02  0.34551052034E+02  0.28556235046E+03  0.28787191015E+03  0.00000000000E+00 0.  1.
         -5    1    5    5    0  503 -0.12024635063E+03  0.41655815696E+02  0.18090145623E+03  0.22122797898E+03  0.47000000000E+01 0.  1.
<mgrwt>
<rscale>  2 0.23208415E+03</rscale>
<asrwt>0</asrwt>
<pdfrwt beam="1">  1       21 0.93558320E-01 0.23231098E+03</pdfrwt>
<pdfrwt beam="2">  1       21 0.28754183E-01 0.23231098E+03</pdfrwt>
<totfact> 0.10826325E+04</totfact>
</mgrwt>
</event>
<event>
12    1  0.2769346E-001  0.2119221E+03  0.7546771E-02  0.1140253E+00
         21   -1    0    0  504  503  0.00000000000E+00  0.00000000000E+00  0.32757286731E+03  0.32757286731E+03  0.00000000000E+00 0. -1.
         21   -1    0    0  502  504 -0.00000000000E+00 -0.00000000000E+00 -0.13925124891E+03  0.13925124891E+03  0.00000000000E+00 0. -1.
          6    2    1    2  502    0  0.12054880290E+03 -0.13741465133E+02  0.12707951357E+03  0.24623046162E+03  0.17250911778E+03 0.  0.
         24    2    3    3    0    0  0.87370638565E+02 -0.37296971359E+02  0.15279078345E+03  0.19786919756E+03  0.82355954741E+02 0.  0.
         -6    2    1    2    0  503 -0.12054880290E+03  0.13741465133E+02  0.61242104834E+02  0.22059365460E+03  0.17375305264E+03 0.  0.
        -24    2    5    5    0    0 -0.34454994980E+02 -0.13022686972E+02 -0.28450502623E+02  0.93332830180E+02  0.80900241253E+02 0.  0.
          2    1    4    4  501    0  0.27941987106E+02  0.36683788661E+01  0.11087710286E+03  0.11440255061E+03  0.00000000000E+00 0. -1.
         -1    1    4    4    0  501  0.59428651459E+02 -0.40965350225E+02  0.41913680587E+02  0.83466646953E+02  0.00000000000E+00 0.  1.
          5    1    3    3  502    0  0.33178164337E+02  0.23555506226E+02 -0.25711269882E+02  0.48361264058E+02  0.47000000000E+01 0. -1.
         11    1    6    6    0    0 -0.12192230276E+02 -0.46707526960E+02 -0.18908000229E+02  0.51843572663E+02  0.00000000000E+00 0. -1.
        -12    1    6    6    0    0 -0.22262764704E+02  0.33684839988E+02 -0.95425023934E+01  0.41489257516E+02  0.00000000000E+00 0.  1.
         -5    1    5    5    0  503 -0.86093807922E+02  0.26764152105E+02  0.89692607457E+02  0.12726082442E+03  0.47000000000E+01 0.  1.
<mgrwt>
<rscale>  2 0.21166694E+03</rscale>
<asrwt>0</asrwt>
<pdfrwt beam="1">  1       21 0.50395826E-01 0.21192207E+03</pdfrwt>
<pdfrwt beam="2">  1       21 0.21423269E-01 0.21192207E+03</pdfrwt>
<totfact> 0.75429857E+04</totfact>
</mgrwt>
</event>
<event>
12    1  0.2769346E-001  0.1776290E+03  0.7546771E-02  0.1170543E+00
         21   -1    0    0  504  503  0.00000000000E+00  0.00000000000E+00  0.33938247262E+03  0.33938247262E+03  0.00000000000E+00 0.  1.
         21   -1    0    0  502  504 -0.00000000000E+00 -0.00000000000E+00 -0.93877258240E+02  0.93877258240E+02  0.00000000000E+00 0.  1.
          6    2    1    2  502    0 -0.30418576035E+02  0.11837067038E+02  0.92127688363E+02  0.19857542823E+03  0.17285625187E+03 0.  0.
         24    2    3    3    0    0  0.46530365075E+02  0.25756000441E+02  0.63637590976E+02  0.11521685402E+03  0.79979585099E+02 0.  0.
         -6    2    1    2    0  503  0.30418576035E+02 -0.11837067038E+02  0.15337752602E+03  0.23468430263E+03  0.17460426825E+03 0.  0.
        -24    2    5    5    0    0  0.86428617269E+02  0.58897129238E+01  0.94769130302E+02  0.15156753239E+03  0.80541506167E+02 0.  0.
          2    1    4    4  501    0 -0.21425863957E+02  0.16260546699E+02  0.23538745935E+02  0.35742769694E+02  0.00000000000E+00 0. -1.
         -1    1    4    4    0  501  0.67956229031E+02  0.94954537425E+01  0.40098845041E+02  0.79474084327E+02  0.00000000000E+00 0.  1.
          5    1    3    3  502    0 -0.76948941110E+02 -0.13918933403E+02  0.28490097387E+02  0.83358574209E+02  0.47000000000E+01 0. -1.
         13    1    6    6    0    0  0.54042949565E+02  0.37967084382E+02  0.30434782114E+02  0.72721495148E+02  0.00000000000E+00 0. -1.
        -14    1    6    6    0    0  0.32385667703E+02 -0.32077371458E+02  0.64334348188E+02  0.78846037244E+02  0.00000000000E+00 0.  1.
         -5    1    5    5    0  503 -0.56010041233E+02 -0.17726779962E+02  0.58608395716E+02  0.83116770240E+02  0.47000000000E+01 0.  1.
<mgrwt>
<rscale>  2 0.17719793E+03</rscale>
<asrwt>0</asrwt>
<pdfrwt beam="1">  1       21 0.52212688E-01 0.17762899E+03</pdfrwt>
<pdfrwt beam="2">  1       21 0.14442655E-01 0.17762899E+03</pdfrwt>
<totfact> 0.14698965E+05</totfact>
</mgrwt>
</event>
<event>
12    1  0.2769346E-001  0.1767079E+03  0.7546771E-02  0.1171044E+00
         21   -1    0    0  504  503  0.00000000000E+00  0.00000000000E+00  0.15585271127E+04  0.15585271127E+04  0.00000000000E+00 0. -1.
         21   -1    0    0  502  504 -0.00000000000E+00 -0.00000000000E+00 -0.20116737320E+02  0.20116737320E+02  0.00000000000E+00 0. -1.
          6    2    1    2  502    0  0.34821245986E+02  0.11549041403E+01  0.71693996419E+03  0.73839595502E+03  0.17323920215E+03 0.  0.
         24    2    3    3    0    0  0.26758203796E+02 -0.32079691894E-01  0.72343544800E+03  0.72696341855E+03  0.66339746712E+02 0.  0.
         -6    2    1    2    0  503 -0.34821245986E+02 -0.11549041403E+01  0.82147041123E+03  0.84024789504E+03  0.17317342642E+03 0.  0.
        -24    2    5    5    0    0 -0.51379857767E+02  0.57703751365E+02  0.60657557054E+03  0.61677438093E+03  0.80666607060E+02 0.  0.
          4    1    4    4  501    0  0.59541885007E+01 -0.31957936095E+02  0.27587233923E+03  0.27778104613E+03  0.00000000000E+00 0. -1.
         -3    1    4    4    0  501  0.20804015295E+02  0.31925856404E+02  0.44756310877E+03  0.44918237242E+03  0.00000000000E+00 0.  1.
          5    1    3    3  502    0  0.80630421902E+01  0.11869838322E+01 -0.64954838136E+01  0.11432536462E+02  0.47000000000E+01 0. -1.
         13    1    6    6    0    0  0.14528439796E+02  0.27000130302E+01  0.23275803700E+03  0.23322664818E+03  0.00000000000E+00 0. -1.
        -14    1    6    6    0    0 -0.65908297563E+02  0.55003738335E+02  0.37381753353E+03  0.38354773275E+03  0.00000000000E+00 0.  1.
         -5    1    5    5    0  503  0.16558611781E+02 -0.58858655505E+02  0.21489484069E+03  0.22347351411E+03  0.47000000000E+01 0.  1.
<mgrwt>
<rscale>  2 0.17669175E+03</rscale>
<asrwt>0</asrwt>
<pdfrwt beam="1">  1       21 0.23977331E+00 0.17670788E+03</pdfrwt>
<pdfrwt beam="2">  1       21 0.30948839E-02 0.17670788E+03</pdfrwt>
<totfact> 0.46495112E+04</totfact>
</mgrwt>
</event>
<event>
12    1  0.2769346E-001  0.1786026E+03  0.7546771E-02  0.1169527E+00
         21   -1    0    0  504  503  0.00000000000E+00  0.00000000000E+00  0.28328517602E+03  0.28328517602E+03  0.00000000000E+00 0. -1.
         21   -1    0    0  502  504 -0.00000000000E+00 -0.00000000000E+00 -0.17953344434E+03  0.17953344434E+03  0.00000000000E+00 0. -1.
          6    2    1    2  502    0  0.17611729084E+02 -0.34129447253E+02 -0.90264833175E+02  0.20011654755E+03  0.17442448315E+03 0.  0.
         24    2    3    3    0    0  0.40636825857E+02  0.31008951988E+02 -0.12455484627E+02  0.95955370240E+02  0.80245792796E+02 0.  0.
         -6    2    1    2    0  503 -0.17611729084E+02  0.34129447253E+02  0.19401656485E+03  0.26270207281E+03  0.17290158892E+03 0.  0.
        -24    2    5    5    0    0 -0.28813227045E+02  0.87453780116E+01  0.20846779511E+02  0.87260660701E+02  0.79203225949E+02 0.  0.
          4    1    4    4  501    0  0.15582635570E+02  0.13325470502E+02  0.34346834976E+02  0.40001147087E+02  0.00000000000E+00 0. -1.
         -3    1    4    4    0  501  0.25054190288E+02  0.17683481486E+02 -0.46802319603E+02  0.55954223153E+02  0.00000000000E+00 0.  1.
          5    1    3    3  502    0 -0.23025096773E+02 -0.65138399240E+02 -0.77809348549E+02  0.10416117731E+03  0.47000000000E+01 0. -1.
         11    1    6    6    0    0  0.80040752623E+01  0.21646289476E+02 -0.20172437797E+02  0.30652150260E+02  0.00000000000E+00 0. -1.
        -12    1    6    6    0    0 -0.36817302307E+02 -0.12900911464E+02  0.41019217309E+02  0.56608510441E+02  0.00000000000E+00 0.  1.
         -5    1    5    5    0  503  0.11201497961E+02  0.25384069241E+02  0.17316978534E+03  0.17544141211E+03  0.47000000000E+01 0.  1.
<mgrwt>
<rscale>  2 0.17822970E+03</rscale>
<asrwt>0</asrwt>
<pdfrwt beam="1">  1       21 0.43582335E-01 0.17860261E+03</pdfrwt>
<pdfrwt beam="2">  1       21 0.27620530E-01 0.17860261E+03</pdfrwt>
<totfact> 0.63685482E+04</totfact>
</mgrwt>
</event>
<event>
12    1  0.2769346E-001  0.2293211E+03  0.7546771E-02  0.1127122E+00
         21   -1    0    0  504  503  0.00000000000E+00  0.00000000000E+00  0.13337056551E+03  0.13337056551E+03  0.00000000000E+00 0.  1.
         21   -1    0    0  502  504 -0.00000000000E+00 -0.00000000000E+00 -0.52810343274E+03  0.52810343274E+03  0.00000000000E+00 0.  1.
          6    2    1    2  502    0  0.13334662344E+03 -0.70604255078E+02 -0.36387501562E+03  0.43010835069E+03  0.17269013731E+03 0.  0.
         24    2    3    3    0    0  0.20281867328E+02 -0.64157840183E+02 -0.24554140293E+03  0.26624826027E+03  0.77910031098E+02 0.  0.
         -6    2    1    2    0  503 -0.13334662344E+03  0.70604255078E+02 -0.30857851614E+02  0.23136564756E+03  0.17266028219E+03 0.  0.
        -24    2    5    5    0    0 -0.14817381002E+03  0.85004202525E+02 -0.57362569095E+02  0.19742755691E+03  0.80659676849E+02 0.  0.
          2    1    4    4  501    0  0.38721689418E+02 -0.38904220659E+02 -0.75434986921E+02  0.93291719184E+02  0.00000000000E+00 0. -1.
         -1    1    4    4    0  501 -0.18439822090E+02 -0.25253619523E+02 -0.17010641601E+03  0.17295654109E+03  0.00000000000E+00 0.  1.
          5    1    3    3  502    0  0.11306475611E+03 -0.64464148955E+01 -0.11833361269E+03  0.16386009042E+03  0.47000000000E+01 0. -1.
         11    1    6    6    0    0  0.54284471416E+01  0.92133098870E+01 -0.19150318238E+02  0.21933713914E+02  0.00000000000E+00 0. -1.
        -12    1    6    6    0    0 -0.15360225716E+03  0.75790892638E+02 -0.38212250857E+02  0.17549384299E+03  0.00000000000E+00 0.  1.
         -5    1    5    5    0  503  0.14827186584E+02 -0.14399947447E+02  0.26504717481E+02  0.33938090654E+02  0.47000000000E+01 0.  1.
<mgrwt>
<rscale>  2 0.22931548E+03</rscale>
<asrwt>0</asrwt>
<pdfrwt beam="1">  1       21 0.20518549E-01 0.22932110E+03</pdfrwt>
<pdfrwt beam="2">  1       21 0.81246682E-01 0.22932110E+03</pdfrwt>
<totfact> 0.28650617E+04</totfact>
</mgrwt>
</event>
<event>
12    1  0.2769346E-001  0.2769251E+03  0.7546771E-02  0.1097416E+00
         21   -1    0    0  504  503  0.00000000000E+00  0.00000000000E+00  0.44392537331E+02  0.44392537331E+02  0.00000000000E+00 0.  1.
         21   -1    0    0  502  504 -0.00000000000E+00 -0.00000000000E+00 -0.17575677084E+04  0.17575677084E+04  0.00000000000E+00 0.  1.
          6    2    1    2  502    0 -0.36421549809E+02 -0.21272707104E+03 -0.73518856199E+03  0.78552267463E+03  0.17310203530E+03 0.  0.
         24    2    3    3    0    0 -0.40707084397E+02 -0.21832109333E+03 -0.73928200592E+03  0.77611495571E+03  0.80593881271E+02 0.  0.
         -6    2    1    2    0  503  0.36421549809E+02  0.21272707104E+03 -0.97798660903E+03  0.10164375711E+04  0.17351712414E+03 0.  0.
        -24    2    5    5    0    0  0.35383893116E+01  0.28575572664E+02 -0.40031567606E+03  0.40921531076E+03  0.79846393227E+02 0.  0.
          4    1    4    4  501    0 -0.46901230008E+02 -0.96942431922E+02 -0.25484753307E+03  0.27666735549E+03  0.00000000000E+00 0. -1.
         -3    1    4    4    0  501  0.61941456111E+01 -0.12137866140E+03 -0.48443447285E+03  0.49944760022E+03  0.00000000000E+00 0.  1.
          5    1    3    3  502    0  0.42855345880E+01  0.55940222819E+01  0.40934439246E+01  0.94077189137E+01  0.47000000000E+01 0. -1.
         11    1    6    6    0    0  0.20334183761E+02 -0.14764176373E+02 -0.51362155352E+02  0.57179812308E+02  0.00000000000E+00 0. -1.
        -12    1    6    6    0    0 -0.16795794449E+02  0.43339749037E+02 -0.34895352071E+03  0.35203549846E+03  0.00000000000E+00 0.  1.
         -5    1    5    5    0  503  0.32883160497E+02  0.18415149838E+03 -0.57767093297E+03  0.60722226030E+03  0.47000000000E+01 0.  1.
<mgrwt>
<rscale>  2 0.27686013E+03</rscale>
<asrwt>0</asrwt>
<pdfrwt beam="1">  1       21 0.68296203E-02 0.27692513E+03</pdfrwt>
<pdfrwt beam="2">  1       21 0.27039507E+00 0.27692513E+03</pdfrwt>
<totfact> 0.74155800E+03</totfact>
</mgrwt>
</event>
<event>
12    1  0.2769346E-001  0.1749954E+03  0.7546771E-02  0.1172829E+00
         21   -1    0    0  504  503  0.00000000000E+00  0.00000000000E+00  0.12524696477E+03  0.12524696477E+03  0.00000000000E+00 0. -1.
         21   -1    0    0  502  504 -0.00000000000E+00 -0.00000000000E+00 -0.30324677911E+03  0.30324677911E+03  0.00000000000E+00 0. -1.
          6    2    1    2  502    0  0.13818063480E+02  0.19005855901E+02 -0.18378435110E+03  0.25377173473E+03  0.17341062309E+03 0.  0.
         24    2    3    3    0    0 -0.38531544289E+02 -0.33719779472E+02 -0.13276039547E+03  0.16351649606E+03  0.80564374535E+02 0.  0.
         -6    2    1    2    0  503 -0.13818063480E+02 -0.19005855901E+02  0.57845367574E+01  0.17472200916E+03  0.17303802525E+03 0.  0.
        -24    2    5    5    0    0 -0.38404415274E+02 -0.38800997798E+02  0.58360244381E+02  0.11321890867E+03  0.80200914044E+02 0.  0.
          2    1    4    4  501    0 -0.30066646649E+01 -0.42835093670E+02 -0.11502276988E+03  0.12277671959E+03  0.00000000000E+00 0. -1.
         -1    1    4    4    0  501 -0.35524879624E+02  0.91153141972E+01 -0.17737625595E+02  0.40739776472E+02  0.00000000000E+00 0.  1.
          5    1    3    3  502    0  0.52349607769E+02  0.52725635374E+02 -0.51023955625E+02  0.90255238667E+02  0.47000000000E+01 0. -1.
         13    1    6    6    0    0  0.17761319335E+02  0.58133921253E+01 -0.28729700700E+01  0.18908039284E+02  0.00000000000E+00 0. -1.
        -14    1    6    6    0    0 -0.56165734610E+02 -0.44614389923E+02  0.61233214451E+02  0.94310869386E+02  0.00000000000E+00 0.  1.
         -5    1    5    5    0  503  0.24586351794E+02  0.19795141896E+02 -0.52575707624E+02  0.61503100486E+02  0.47000000000E+01 0.  1.
<mgrwt>
<rscale>  2 0.17490307E+03</rscale>
<asrwt>0</asrwt>
<pdfrwt beam="1">  1       21 0.19268764E-01 0.17499544E+03</pdfrwt>
<pdfrwt beam="2">  1       21 0.46653350E-01 0.17499544E+03</pdfrwt>
<totfact> 0.10956720E+05</totfact>
</mgrwt>
</event>
<event>
12    1  0.2769346E-001  0.2926051E+03  0.7546771E-02  0.1089206E+00
         21   -1    0    0  504  503  0.00000000000E+00  0.00000000000E+00  0.11344896181E+04  0.11344896181E+04  0.00000000000E+00 0. -1.
         21   -1    0    0  502  504 -0.00000000000E+00 -0.00000000000E+00 -0.75479348969E+02  0.75479348969E+02  0.00000000000E+00 0.  1.
          6    2    1    2  502    0  0.59933312425E+02  0.22728183541E+03  0.48254214855E+03  0.56349141050E+03  0.17154186061E+03 0.  0.
         24    2    3    3    0    0 -0.15865668765E+01  0.97434775532E+02  0.12036151645E+03  0.17382250646E+03  0.78938687815E+02 0.  0.
         -6    2    1    2    0  503 -0.59933312425E+02 -0.22728183541E+03  0.57646812055E+03  0.64647755653E+03  0.17426618272E+03 0.  0.
        -24    2    5    5    0    0 -0.53889075396E+02 -0.23847397825E+03  0.57777028367E+03  0.63285469004E+03  0.83142571906E+02 0.  0.
          2    1    4    4  501    0  0.74632774336E+00 -0.11539196403E+02  0.16629623511E+00  0.11564502288E+02  0.00000000000E+00 0. -1.
         -1    1    4    4    0  501 -0.23328946199E+01  0.10897397194E+03  0.12019522021E+03  0.16225800417E+03  0.00000000000E+00 0.  1.
          5    1    3    3  502    0  0.61519879302E+02  0.12984705988E+03  0.36218063210E+03  0.38966890404E+03  0.47000000000E+01 0. -1.
         11    1    6    6    0    0 -0.66285150644E+02 -0.14037472451E+03  0.40586820421E+03  0.43454318965E+03  0.00000000000E+00 0. -1.
        -12    1    6    6    0    0  0.12396075248E+02 -0.98099253747E+02  0.17190207945E+03  0.19831150039E+03  0.00000000000E+00 0.  1.
         -5    1    5    5    0  503 -0.60442370292E+01  0.11192142841E+02 -0.13021631187E+01  0.13622866491E+02  0.47000000000E+01 0.  1.
<mgrwt>
<rscale>  2 0.29220068E+03</rscale>
<asrwt>0</asrwt>
<pdfrwt beam="1">  1       21 0.17453685E+00 0.29260509E+03</pdfrwt>
<pdfrwt beam="2">  1       21 0.11612208E-01 0.29260509E+03</pdfrwt>
<totfact> 0.11577461E+04</totfact>
</mgrwt>
</event>
<event>
12    1  0.2769346E-001  0.2222411E+03  0.7546771E-02  0.1132534E+00
         21   -1    0    0  504  503  0.00000000000E+00  0.00000000000E+00  0.19131104461E+03  0.19131104461E+03  0.00000000000E+00 0. -1.
         21   -1    0    0  502  504 -0.00000000000E+00 -0.00000000000E+00 -0.27576058536E+03  0.27576058536E+03  0.00000000000E+00 0.  1.
          6    2    1    2  502    0 -0.13450320800E+02  0.13986027006E+03  0.20085575264E+02  0.22147298684E+03  0.17001484433E+03 0.  0.
         24    2    3    3    0    0  0.13533941557E+02  0.16367077389E+03  0.88961220722E+01  0.18349425107E+03  0.81361596535E+02 0.  0.
         -6    2    1    2    0  503  0.13450320800E+02 -0.13986027006E+03 -0.10453511601E+03  0.24559864314E+03  0.17218971154E+03 0.  0.
        -24    2    5    5    0    0 -0.24154508488E+01 -0.27724977361E+02  0.80461452983E+01  0.85840460322E+02  0.80804303114E+02 0.  0.
          4    1    4    4  501    0 -0.16073718556E+02  0.11334345813E+03  0.34750648530E+02  0.11963574509E+03  0.00000000000E+00 0. -1.
         -3    1    4    4    0  501  0.29607660112E+02  0.50327315753E+02 -0.25854526458E+02  0.63858505984E+02  0.00000000000E+00 0.  1.
          5    1    3    3  502    0 -0.26984262357E+02 -0.23810503825E+02  0.11189453192E+02  0.37978735762E+02  0.47000000000E+01 0. -1.
         13    1    6    6    0    0 -0.36073901061E+02 -0.86298474631E+01 -0.15874890606E+02  0.40346161611E+02  0.00000000000E+00 0. -1.
        -14    1    6    6    0    0  0.33658450212E+02 -0.19095129897E+02  0.23921035904E+02  0.45494298711E+02  0.00000000000E+00 0.  1.
         -5    1    5    5    0  503  0.15865771649E+02 -0.11213529270E+03 -0.11258126131E+03  0.15975818282E+03  0.47000000000E+01 0.  1.
<mgrwt>
<rscale>  2 0.22181970E+03</rscale>
<asrwt>0</asrwt>
<pdfrwt beam="1">  1       21 0.29432468E-01 0.22224109E+03</pdfrwt>
<pdfrwt beam="2">  1       21 0.42424706E-01 0.22224109E+03</pdfrwt>
<totfact> 0.58334753E+04</totfact>
</mgrwt>
</event>
<event>
12    1  0.2769346E-001  0.1961006E+03  0.7546771E-02  0.1153599E+00
         21   -1    0    0  504  503  0.00000000000E+00  0.00000000000E+00  0.18925696201E+03  0.18925696201E+03  0.00000000000E+00 0.  1.
         21   -1    0    0  502  504 -0.00000000000E+00 -0.00000000000E+00 -0.21638071277E+03  0.21638071277E+03  0.00000000000E+00 0. -1.
          6    2    1    2  502    0  0.22776720929E+02 -0.87200155287E+02  0.41133401902E+02  0.19799735709E+03  0.17143030818E+03 0.  0.
         24    2    3    3    0    0  0.21250004378E+02 -0.15479663540E+02  0.80042043921E+02  0.11625304705E+03  0.80105302470E+02 0.  0.
         -6    2    1    2    0  503 -0.22776720929E+02  0.87200155287E+02 -0.68257152667E+02  0.20764031769E+03  0.17416318940E+03 0.  0.
        -24    2    5    5    0    0 -0.15617909105E+02  0.12434786453E+03 -0.80719533365E+02  0.16753293905E+03  0.76454771621E+02 0.  0.
          4    1    4    4  501    0  0.47276009590E+02 -0.28070720452E+02  0.57818383428E+02  0.79786915541E+02  0.00000000000E+00 0. -1.
         -3    1    4    4    0  501 -0.26026005212E+02  0.12591056912E+02  0.22223660493E+02  0.36466131508E+02  0.00000000000E+00 0.  1.
          5    1    3    3  502    0  0.15267165511E+01 -0.71720491747E+02 -0.38908642018E+02  0.81744310038E+02  0.47000000000E+01 0. -1.
         13    1    6    6    0    0  0.20484540802E+02  0.38923269473E+02 -0.56648963724E+02  0.71719888520E+02  0.00000000000E+00 0. -1.
        -14    1    6    6    0    0 -0.36102449907E+02  0.85424595054E+02 -0.24070569641E+02  0.95813050532E+02  0.00000000000E+00 0.  1.
         -5    1    5    5    0  503 -0.71588118235E+01 -0.37147709241E+02  0.12462380699E+02  0.40107378638E+02  0.47000000000E+01 0.  1.
<mgrwt>
<rscale>  2 0.19549205E+03</rscale>
<asrwt>0</asrwt>
<pdfrwt beam="1">  1       21 0.29116456E-01 0.19610064E+03</pdfrwt>
<pdfrwt beam="2">  1       21 0.33289340E-01 0.19610064E+03</pdfrwt>
<totfact> 0.98011652E+04</totfact>
</mgrwt>
</event>
<event>
12    1  0.2769346E-001  0.2763382E+03  0.7546771E-02  0.1097820E+00
         21   -1    0    0  504  503  0.00000000000E+00  0.00000000000E+00  0.58024141256E+03  0.58024141256E+03  0.00000000000E+00 0. -1.
         21   -1    0    0  502  504 -0.00000000000E+00 -0.00000000000E+00 -0.15654227877E+03  0.15654227877E+03  0.00000000000E+00 0.  1.
          6    2    1    2  502    0 -0.74430223595E+02 -0.20161574253E+03  0.63403084152E+02  0.28271755818E+03  0.17239634800E+03 0.  0.
         24    2    3    3    0    0  0.26605260355E+02 -0.11911430130E+03  0.24969333523E+02  0.14665176524E+03  0.77377102414E+02 0.  0.
         -6    2    1    2    0  503  0.74430223595E+02  0.20161574253E+03  0.36029604964E+03  0.45406613315E+03  0.17370677609E+03 0.  0.
        -24    2    5    5    0    0  0.90114012283E+02  0.62111761605E+02  0.18226938248E+03  0.22729989636E+03  0.80403413848E+02 0.  0.
          2    1    4    4  501    0  0.28057853275E+02 -0.56524405528E+02  0.48686336406E+02  0.79703267833E+02  0.00000000000E+00 0. -1.
         -1    1    4    4    0  501 -0.14525929198E+01 -0.62589895773E+02 -0.23717002883E+02  0.66948497405E+02  0.00000000000E+00 0.  1.
          5    1    3    3  502    0 -0.10103548395E+03 -0.82501441231E+02  0.38433750629E+02  0.13606579294E+03  0.47000000000E+01 0. -1.
         13    1    6    6    0    0  0.16855630170E+02  0.12971769559E+00  0.98460976661E+02  0.99893408292E+02  0.00000000000E+00 0. -1.
        -14    1    6    6    0    0  0.73258382114E+02  0.61982043909E+02  0.83808405814E+02  0.12740648807E+03  0.00000000000E+00 0.  1.
         -5    1    5    5    0  503 -0.15683788688E+02  0.13950398093E+03  0.17802666717E+03  0.22676623678E+03  0.47000000000E+01 0.  1.
<mgrwt>
<rscale>  2 0.27613252E+03</rscale>
<asrwt>0</asrwt>
<pdfrwt beam="1">  1       21 0.89267909E-01 0.27633822E+03</pdfrwt>
<pdfrwt beam="2">  1       21 0.24083428E-01 0.27633822E+03</pdfrwt>
<totfact> 0.16634147E+04</totfact>
</mgrwt>
</event>
<event>
12    1  0.2769346E-001  0.1771185E+03  0.7546771E-02  0.1171930E+00
         21   -1    0    0  504  503  0.00000000000E+00  0.00000000000E+00  0.26943067632E+02  0.26943067632E+02  0.00000000000E+00 0. -1.
         21   -1    0    0  502  504 -0.00000000000E+00 -0.00000000000E+00 -0.18295338376E+04  0.18295338376E+04  0.00000000000E+00 0. -1.
          6    2    1    2  502    0 -0.36266947672E+02  0.81025070448E+00 -0.14834110578E+04  0.14939475657E+04  0.17336382173E+03 0.  0.
         24    2    3    3    0    0 -0.69946813756E+02 -0.14880579415E+02 -0.13728645145E+04  0.13772292562E+04  0.83002775169E+02 0.  0.
         -6    2    1    2    0  503  0.36266947672E+02 -0.81025070448E+00 -0.31917971214E+03  0.36252933950E+03  0.16803536935E+03 0.  0.
        -24    2    5    5    0    0  0.19736478700E+02 -0.58571387652E+02 -0.13569990508E+03  0.16940623124E+03  0.80398202088E+02 0.  0.
          2    1    4    4  501    0 -0.87780078000E+02 -0.98442853013E+01 -0.12300669601E+04  0.12332343567E+04  0.00000000000E+00 0. -1.
         -1    1    4    4    0  501  0.17833264244E+02 -0.50362941137E+01 -0.14279755432E+03  0.14399489954E+03  0.00000000000E+00 0.  1.
          5    1    3    3  502    0  0.33679866084E+02  0.15690830120E+02 -0.11054654336E+03  0.11671830952E+03  0.47000000000E+01 0. -1.
         13    1    6    6    0    0  0.50501603478E+02 -0.28093892213E+02 -0.84109216607E+02  0.10204919917E+03  0.00000000000E+00 0. -1.
        -14    1    6    6    0    0 -0.30765124779E+02 -0.30477495439E+02 -0.51590688475E+02  0.67357032062E+02  0.00000000000E+00 0.  1.
         -5    1    5    5    0  503  0.16530468972E+02  0.57761136948E+02 -0.18347980706E+03  0.19312310826E+03  0.47000000000E+01 0.  1.
<mgrwt>
<rscale>  2 0.17580086E+03</rscale>
<asrwt>0</asrwt>
<pdfrwt beam="1">  1       21 0.41450862E-02 0.17711850E+03</pdfrwt>
<pdfrwt beam="2">  1       21 0.28146682E+00 0.17711850E+03</pdfrwt>
<totfact> 0.16364048E+04</totfact>
</mgrwt>
</event>
<event>
12    1  0.2769346E-001  0.2145082E+03  0.7546771E-02  0.1138392E+00
         21   -1    0    0  504  503  0.00000000000E+00  0.00000000000E+00  0.24326645614E+03  0.24326645614E+03  0.00000000000E+00 0. -1.
         21   -1    0    0  502  504 -0.00000000000E+00 -0.00000000000E+00 -0.66538606500E+03  0.66538606500E+03  0.00000000000E+00 0. -1.
          6    2    1    2  502    0  0.94624518581E+02 -0.83746995199E+02 -0.59630962792E+03  0.63371833363E+03  0.17333896073E+03 0.  0.
         24    2    3    3    0    0  0.12026544407E+03 -0.90765231744E+02 -0.39233406794E+03  0.42796403410E+03  0.80778024796E+02 0.  0.
         -6    2    1    2    0  503 -0.94624518581E+02  0.83746995199E+02  0.17419001906E+03  0.27493418751E+03  0.17111191075E+03 0.  0.
        -24    2    5    5    0    0  0.10606361009E+02  0.11844162639E+02  0.87668520688E+02  0.12081859768E+03  0.81600152834E+02 0.  0.
          4    1    4    4  501    0  0.70232456364E+02 -0.24566314462E+02 -0.27056859049E+03  0.28061265811E+03  0.00000000000E+00 0. -1.
         -3    1    4    4    0  501  0.50032987704E+02 -0.66198917283E+02 -0.12176547745E+03  0.14735137599E+03  0.00000000000E+00 0.  1.
          5    1    3    3  502    0 -0.25640925486E+02  0.70182365453E+01 -0.20397555998E+03  0.20575429952E+03  0.47000000000E+01 0. -1.
         11    1    6    6    0    0  0.13502650650E+02 -0.15369650002E+02  0.90979659288E+02  0.93251520738E+02  0.00000000000E+00 0. -1.
        -12    1    6    6    0    0 -0.28962896409E+01  0.27213812641E+02 -0.33111385996E+01  0.27567076939E+02  0.00000000000E+00 0.  1.
         -5    1    5    5    0  503 -0.10523087959E+03  0.71902832560E+02  0.86521498371E+02  0.15411558983E+03  0.47000000000E+01 0.  1.
<mgrwt>
<rscale>  2 0.21405786E+03</rscale>
<asrwt>0</asrwt>
<pdfrwt beam="1">  1       21 0.37425610E-01 0.21450817E+03</pdfrwt>
<pdfrwt beam="2">  1       21 0.10236708E+00 0.21450817E+03</pdfrwt>
<totfact> 0.52571695E+03</totfact>
</mgrwt>
</event>
<event>
12    1  0.2769346E-001  0.2247022E+03  0.7546771E-02  0.1130444E+00
         21   -1    0    0  504  503  0.00000000000E+00  0.00000000000E+00  0.11670820919E+03  0.11670820919E+03  0.00000000000E+00 0. -1.
         21   -1    0    0  502  504 -0.00000000000E+00 -0.00000000000E+00 -0.62357700279E+03  0.62357700279E+03  0.00000000000E+00 0. -1.
          6    2    1    2  502    0  0.10232994909E+03 -0.10078404898E+03 -0.45840531164E+03  0.51051590827E+03  0.17280688601E+03 0.  0.
         24    2    3    3    0    0 -0.17024427007E+01 -0.35232512031E+02 -0.98646804312E+02  0.13029489869E+03  0.77468318735E+02 0.  0.
         -6    2    1    2    0  503 -0.10232994909E+03  0.10078404898E+03 -0.48463481968E+02  0.22976930371E+03  0.17267420431E+03 0.  0.
        -24    2    5    5    0    0 -0.99056427626E+02  0.13648219947E+03 -0.24638399077E+02  0.18647036070E+03  0.75660941596E+02 0.  0.
          4    1    4    4  501    0 -0.74942986585E+01 -0.58255199509E+02 -0.83662087778E+02  0.10222121949E+03  0.00000000000E+00 0. -1.
         -3    1    4    4    0  501  0.57918559578E+01  0.23022687478E+02 -0.14984716535E+02  0.28073679199E+02  0.00000000000E+00 0.  1.
          5    1    3    3  502    0  0.10403239179E+03 -0.65551536949E+02 -0.35975850732E+03  0.38022100959E+03  0.47000000000E+01 0. -1.
         13    1    6    6    0    0 -0.11094074996E+03  0.12774694475E+03 -0.27585378382E+02  0.17142953362E+03  0.00000000000E+00 0. -1.
        -14    1    6    6    0    0  0.11884322333E+02  0.87352547182E+01  0.29469793052E+01  0.15040827082E+02  0.00000000000E+00 0.  1.
         -5    1    5    5    0  503 -0.32735214661E+01 -0.35698150493E+02 -0.23825082891E+02  0.43298943014E+02  0.47000000000E+01 0.  1.
<mgrwt>
<rscale>  2 0.22467665E+03</rscale>
<asrwt>0</asrwt>
<pdfrwt beam="1">  1       21 0.17955109E-01 0.22470216E+03</pdfrwt>
<pdfrwt beam="2">  1       21 0.95934922E-01 0.22470216E+03</pdfrwt>
<totfact> 0.25074606E+04</totfact>
</mgrwt>
</event>
<event>
12    1  0.2769346E-001  0.2418551E+03  0.7546771E-02  0.1118941E+00
         21   -1    0    0  504  503  0.00000000000E+00  0.00000000000E+00  0.24647435993E+03  0.24647435993E+03  0.00000000000E+00 0.  1.
         21   -1    0    0  502  504 -0.00000000000E+00 -0.00000000000E+00 -0.25849540411E+03  0.25849540411E+03  0.00000000000E+00 0.  1.
          6    2    1    2  502    0  0.53971320024E+02  0.15772620391E+03  0.69990725428E+02  0.24958808670E+03  0.17206118851E+03 0.  0.
         24    2    3    3    0    0  0.34128647688E+02  0.18237361190E+03  0.69480708830E+02  0.21759470484E+03  0.89972149945E+02 0.  0.
         -6    2    1    2    0  503 -0.53971320024E+02 -0.15772620391E+03 -0.82011769607E+02  0.25538167733E+03  0.17522389100E+03 0.  0.
        -24    2    5    5    0    0 -0.30339705457E+02 -0.36208394414E+01 -0.13304231216E+02  0.84941856874E+02  0.78131352705E+02 0.  0.
          4    1    4    4  501    0  0.58879842440E+00  0.16302681827E+03  0.73178878097E+02  0.17869873631E+03  0.00000000000E+00 0. -1.
         -3    1    4    4    0  501  0.33539849264E+02  0.19346793633E+02 -0.36981692669E+01  0.38895968537E+02  0.00000000000E+00 0.  1.
          5    1    3    3  502    0  0.19842672336E+02 -0.24647407987E+02  0.51001659791E+00  0.31993381860E+02  0.47000000000E+01 0. -1.
         13    1    6    6    0    0 -0.39742181603E+02  0.93446310680E+01 -0.37824258860E+02  0.55654628619E+02  0.00000000000E+00 0. -1.
        -14    1    6    6    0    0  0.94024761459E+01 -0.12965470509E+02  0.24520027644E+02  0.29287228255E+02  0.00000000000E+00 0.  1.
         -5    1    5    5    0  503 -0.23631614567E+02 -0.15410536447E+03 -0.68707538391E+02  0.17043982046E+03  0.47000000000E+01 0.  1.
<mgrwt>
<rscale>  2 0.24128267E+03</rscale>
<asrwt>0</asrwt>
<pdfrwt beam="1">  1       21 0.37919132E-01 0.24185506E+03</pdfrwt>
<pdfrwt beam="2">  1       21 0.39768524E-01 0.24185506E+03</pdfrwt>
<totfact> 0.39930222E+04</totfact>
</mgrwt>
</event>
<event>
12    1  0.2769346E-001  0.2202750E+03  0.7546771E-02  0.1133891E+00
         21   -1    0    0  504  503  0.00000000000E+00  0.00000000000E+00  0.14902568872E+03  0.14902568872E+03  0.00000000000E+00 0.  1.
         21   -1    0    0  502  504 -0.00000000000E+00 -0.00000000000E+00 -0.32408698645E+03  0.32408698645E+03  0.00000000000E+00 0.  1.
          6    2    1    2  502    0  0.96043717344E+02  0.95180419449E+02 -0.81694943130E+02  0.23386731460E+03  0.17244172702E+03 0.  0.
         24    2    3    3    0    0  0.11961941532E+02  0.10713933382E+03 -0.45768160634E+02  0.14153322362E+03  0.79466999213E+02 0.  0.
         -6    2    1    2    0  503 -0.96043717344E+02 -0.95180419449E+02 -0.93366354601E+02  0.23924536056E+03  0.17388892573E+03 0.  0.
        -24    2    5    5    0    0 -0.41516477058E+02 -0.20870364098E+02  0.14916310100E+02  0.96969467545E+02  0.83793742989E+02 0.  0.
          2    1    4    4  501    0 -0.14571026376E+02  0.93525835495E+02 -0.10328569262E+02  0.95215944346E+02  0.00000000000E+00 0. -1.
         -1    1    4    4    0  501  0.26532967908E+02  0.13613498322E+02 -0.35439591372E+02  0.46317279273E+02  0.00000000000E+00 0.  1.
          5    1    3    3  502    0  0.84081775811E+02 -0.11958914368E+02 -0.35926782496E+02  0.92334090979E+02  0.47000000000E+01 0. -1.
         11    1    6    6    0    0  0.22678912450E+01 -0.30505905166E+02  0.36156152696E+02  0.47360542211E+02  0.00000000000E+00 0. -1.
        -12    1    6    6    0    0 -0.43784368303E+02  0.96355410686E+01 -0.21239842595E+02  0.49608925335E+02  0.00000000000E+00 0.  1.
         -5    1    5    5    0  503 -0.54527240285E+02 -0.74310055351E+02 -0.10828266470E+03  0.14227589302E+03  0.47000000000E+01 0.  1.
<mgrwt>
<rscale>  2 0.21998926E+03</rscale>
<asrwt>0</asrwt>
<pdfrwt beam="1">  1       21 0.22927029E-01 0.22027498E+03</pdfrwt>
<pdfrwt beam="2">  1       21 0.49859536E-01 0.22027498E+03</pdfrwt>
<totfact> 0.67611986E+04</totfact>
</mgrwt>
</event>
<event>
12    1  0.2769346E-001  0.2209659E+03  0.7546771E-02  0.1133336E+00
         21   -1    0    0  504  503  0.00000000000E+00  0.00000000000E+00  0.21459327489E+03  0.21459327489E+03  0.00000000000E+00 0.  1.
         21   -1    0    0  502  504 -0.00000000000E+00 -0.00000000000E+00 -0.23142167726E+03  0.23142167726E+03  0.00000000000E+00 0.  1.
          6    2    1    2  502    0  0.12932579048E+03 -0.43168336775E+02 -0.40680936233E+02  0.22467946821E+03  0.17388864103E+03 0.  0.
         24    2    3    3    0    0  0.14831171272E+03 -0.22069438096E+02  0.57458292648E+01  0.17006112584E+03  0.80027168767E+02 0.  0.
         -6    2    1    2    0  503 -0.12932579048E+03  0.43168336775E+02  0.23852533863E+02  0.22133548394E+03  0.17271881106E+03 0.  0.
        -24    2    5    5    0    0 -0.83752298503E+01 -0.15754209203E+02  0.53539315536E+00  0.84709411782E+02  0.82807356050E+02 0.  0.
          2    1    4    4  501    0  0.10848130225E+03  0.19144881544E+02 -0.10031787884E+02  0.11061354435E+03  0.00000000000E+00 0. -1.
         -1    1    4    4    0  501  0.39830410471E+02 -0.41214319639E+02  0.15777617149E+02  0.59447581486E+02  0.00000000000E+00 0.  1.
          5    1    3    3  502    0 -0.18985922236E+02 -0.21098898679E+02 -0.46426765498E+02  0.54618342370E+02  0.47000000000E+01 0. -1.
         11    1    6    6    0    0  0.34260274333E+02  0.58461417945E+01 -0.91570290800E+01  0.35941549116E+02  0.00000000000E+00 0. -1.
        -12    1    6    6    0    0 -0.42635504184E+02 -0.21600350997E+02  0.96924222354E+01  0.48767862666E+02  0.00000000000E+00 0.  1.
         -5    1    5    5    0  503 -0.12095056063E+03  0.58922545978E+02  0.23317140708E+02  0.13662607215E+03  0.47000000000E+01 0.  1.
<mgrwt>
<rscale>  2 0.22073568E+03</rscale>
<asrwt>0</asrwt>
<pdfrwt beam="1">  1       21 0.33014350E-01 0.22096589E+03</pdfrwt>
<pdfrwt beam="2">  1       21 0.35603335E-01 0.22096589E+03</pdfrwt>
<totfact> 0.66360078E+04</totfact>
</mgrwt>
</event>
<event>
12    1  0.2769346E-001  0.1992608E+03  0.7546771E-02  0.1150603E+00
         21   -1    0    0  504  503  0.00000000000E+00  0.00000000000E+00  0.70087456902E+02  0.70087456902E+02  0.00000000000E+00 0. -1.
         21   -1    0    0  502  504 -0.00000000000E+00 -0.00000000000E+00 -0.59343587785E+03  0.59343587785E+03  0.00000000000E+00 0. -1.
          6    2    1    2  502    0 -0.87842435013E+02  0.42060385352E+02 -0.18622074869E+03  0.27191138206E+03  0.17254640839E+03 0.  0.
         24    2    3    3    0    0 -0.57150536519E+02  0.63107960273E+02 -0.45130755298E+02  0.12592004917E+03  0.81057234323E+02 0.  0.
         -6    2    1    2    0  503  0.87842435013E+02 -0.42060385352E+02 -0.33712767226E+03  0.39161195269E+03  0.17383752380E+03 0.  0.
        -24    2    5    5    0    0  0.83473970173E+02 -0.78920102072E+02 -0.32149361309E+03  0.35106277258E+03  0.81796337485E+02 0.  0.
          2    1    4    4  501    0 -0.68202907250E+02  0.65344418328E+02 -0.56372578194E+02  0.10999725968E+03  0.00000000000E+00 0. -1.
         -1    1    4    4    0  501  0.11052370731E+02 -0.22364580547E+01  0.11241822896E+02  0.15922789499E+02  0.00000000000E+00 0.  1.
          5    1    3    3  502    0 -0.30691898494E+02 -0.21047574921E+02 -0.14108999339E+03  0.14599133288E+03  0.47000000000E+01 0. -1.
         11    1    6    6    0    0  0.77748724186E+02 -0.23569276149E+02 -0.23054880373E+03  0.24444452498E+03  0.00000000000E+00 0. -1.
        -12    1    6    6    0    0  0.57252459870E+01 -0.55350825923E+02 -0.90944809361E+02  0.10661824760E+03  0.00000000000E+00 0.  1.
         -5    1    5    5    0  503  0.43684648391E+01  0.36859716720E+02 -0.15634059175E+02  0.40549180115E+02  0.47000000000E+01 0.  1.
<mgrwt>
<rscale>  2 0.19897883E+03</rscale>
<asrwt>0</asrwt>
<pdfrwt beam="1">  1       21 0.10782686E-01 0.19926077E+03</pdfrwt>
<pdfrwt beam="2">  1       21 0.91297827E-01 0.19926077E+03</pdfrwt>
<totfact> 0.71942412E+04</totfact>
</mgrwt>
</event>
<event>
12    1  0.2769346E-001  0.1855288E+03  0.7546771E-02  0.1162805E+00
         21   -1    0    0  504  503  0.00000000000E+00  0.00000000000E+00  0.27071530050E+03  0.27071530050E+03  0.00000000000E+00 0. -1.
         21   -1    0    0  502  504 -0.00000000000E+00 -0.00000000000E+00 -0.14332491231E+03  0.14332491231E+03  0.00000000000E+00 0. -1.
          6    2    1    2  502    0  0.24483222538E+02 -0.51176718597E+02  0.13495036947E+03  0.22941782002E+03  0.17664215016E+03 0.  0.
         24    2    3    3    0    0  0.46681052673E+02 -0.96092650631E+02  0.83691145645E+02  0.15758619300E+03  0.80101698996E+02 0.  0.
         -6    2    1    2    0  503 -0.24483222538E+02  0.51176718597E+02 -0.75599812767E+01  0.18462239278E+03  0.17552717706E+03 0.  0.
        -24    2    5    5    0    0  0.27500334716E+02  0.79917267325E+02 -0.30654679931E+02  0.12071805434E+03  0.80561164441E+02 0.  0.
          2    1    4    4  501    0  0.40145913797E+02 -0.52366937642E+02  0.91377835843E+02  0.11271157632E+03  0.00000000000E+00 0. -1.
         -1    1    4    4    0  501  0.65351388760E+01 -0.43725712989E+02 -0.76866901984E+01  0.44874616686E+02  0.00000000000E+00 0.  1.
          5    1    3    3  502    0 -0.22197830135E+02  0.44915932034E+02  0.51259223827E+02  0.71831627021E+02  0.47000000000E+01 0. -1.
         11    1    6    6    0    0  0.56183966217E+02  0.52704149798E+02 -0.17002938477E+02  0.78888943349E+02  0.00000000000E+00 0. -1.
        -12    1    6    6    0    0 -0.28683631502E+02  0.27213117527E+02 -0.13651741454E+02  0.41829110992E+02  0.00000000000E+00 0.  1.
         -5    1    5    5    0  503 -0.51983557253E+02 -0.28740548728E+02  0.23094698654E+02  0.63904338443E+02  0.47000000000E+01 0.  1.
<mgrwt>
<rscale>  2 0.18526291E+03</rscale>
<asrwt>0</asrwt>
<pdfrwt beam="1">  1       21 0.41648508E-01 0.18552880E+03</pdfrwt>
<pdfrwt beam="2">  1       21 0.22049986E-01 0.18552880E+03</pdfrwt>
<totfact> 0.10695836E+05</totfact>
</mgrwt>
</event>
<event>
12    1  0.2769346E-001  0.1740377E+03  0.7546771E-02  0.1173745E+00
         21   -1    0    0  504  503  0.00000000000E+00  0.00000000000E+00  0.31124299581E+02  0.31124299581E+02  0.00000000000E+00 0.  1.
         21   -1    0    0  502  504 -0.00000000000E+00 -0.00000000000E+00 -0.13074311990E+04  0.13074311990E+04  0.00000000000E+00 0.  1.
          6    2    1    2  502    0 -0.19051741680E+02 -0.13986549118E+02 -0.97728352260E+03  0.99265916465E+03  0.17242546562E+03 0.  0.
         24    2    3    3    0    0 -0.51277871339E+02  0.37745659582E+02 -0.78071537868E+03  0.78680516285E+03  0.74106051580E+02 0.  0.
         -6    2    1    2    0  503  0.19051741680E+02  0.13986549118E+02 -0.29902337680E+03  0.34589633391E+03  0.17225185492E+03 0.  0.
        -24    2    5    5    0    0  0.52011796844E+02  0.19509737231E+02 -0.86039161940E+02  0.13025488005E+03  0.80484405526E+02 0.  0.
          4    1    4    4  501    0 -0.48383573523E+02  0.57381780874E+02 -0.52751619009E+03  0.53282921258E+03  0.00000000000E+00 0. -1.
         -3    1    4    4    0  501 -0.28942978162E+01 -0.19636121292E+02 -0.25319918859E+03  0.25397595028E+03  0.00000000000E+00 0.  1.
          5    1    3    3  502    0  0.32226129659E+02 -0.51732208700E+02 -0.19656814392E+03  0.20585400179E+03  0.47000000000E+01 0. -1.
         13    1    6    6    0    0 -0.57843829908E+01  0.30475884047E+02 -0.56435373944E+02  0.64398680322E+02  0.00000000000E+00 0. -1.
        -14    1    6    6    0    0  0.57796179835E+02 -0.10966146816E+02 -0.29603787996E+02  0.65856199732E+02  0.00000000000E+00 0.  1.
         -5    1    5    5    0  503 -0.32960055164E+02 -0.55231881125E+01 -0.21298421486E+03  0.21564145386E+03  0.47000000000E+01 0.  1.
<mgrwt>
<rscale>  2 0.17399472E+03</rscale>
<asrwt>0</asrwt>
<pdfrwt beam="1">  1       21 0.47883530E-02 0.17403774E+03</pdfrwt>
<pdfrwt beam="2">  1       21 0.20114329E+00 0.17403774E+03</pdfrwt>
<totfact> 0.38714177E+04</totfact>
</mgrwt>
</event>
<event>
12    1  0.2769346E-001  0.2891529E+03  0.7546771E-02  0.1090955E+00
         21   -1    0    0  504  503  0.00000000000E+00  0.00000000000E+00  0.99011608360E+02  0.99011608360E+02  0.00000000000E+00 0.  1.
         21   -1    0    0  502  504 -0.00000000000E+00 -0.00000000000E+00 -0.84113578658E+03  0.84113578658E+03  0.00000000000E+00 0. -1.
          6    2    1    2  502    0  0.17787196972E+03  0.14844041678E+03 -0.38072718762E+03  0.47808217438E+03  0.17302132563E+03 0.  0.
         24    2    3    3    0    0  0.22940428121E+02  0.76468743626E+02 -0.19926004312E+03  0.22881099905E+03  0.79222323291E+02 0.  0.
         -6    2    1    2    0  503 -0.17787196972E+03 -0.14844041678E+03 -0.36139699061E+03  0.46206522056E+03  0.17094878850E+03 0.  0.
        -24    2    5    5    0    0 -0.18433652653E+03 -0.16087217970E+03 -0.36480427492E+03  0.44689819019E+03  0.82316585058E+02 0.  0.
          4    1    4    4  501    0 -0.20994386422E+02 -0.34306178172E+01 -0.36159648642E+02  0.41952992620E+02  0.00000000000E+00 0. -1.
         -3    1    4    4    0  501  0.43934814543E+02  0.79899361443E+02 -0.16310039448E+03  0.18685800643E+03  0.00000000000E+00 0.  1.
          5    1    3    3  502    0  0.15493154160E+03  0.71971673159E+02 -0.18146714450E+03  0.24927117533E+03  0.47000000000E+01 0. -1.
         11    1    6    6    0    0 -0.79812385409E+02 -0.84374110184E+02 -0.24191933981E+03  0.26835419562E+03  0.00000000000E+00 0. -1.
        -12    1    6    6    0    0 -0.10452414113E+03 -0.76498069520E+02 -0.12288493511E+03  0.17854399456E+03  0.00000000000E+00 0.  1.
         -5    1    5    5    0  503  0.64645568174E+01  0.12431762919E+02  0.34072843115E+01  0.15167030378E+02  0.47000000000E+01 0.  1.
<mgrwt>
<rscale>  2 0.28884352E+03</rscale>
<asrwt>0</asrwt>
<pdfrwt beam="1">  1       21 0.15232555E-01 0.28915286E+03</pdfrwt>
<pdfrwt beam="2">  1       21 0.12940551E+00 0.28915286E+03</pdfrwt>
<totfact> 0.15793040E+04</totfact>
</mgrwt>
</event>
<event>
12    1  0.2769346E-001  0.1895760E+03  0.7546771E-02  0.1158996E+00
         21   -1    0    0  504  503  0.00000000000E+00  0.00000000000E+00  0.45359537331E+03  0.45359537331E+03  0.00000000000E+00 0. -1.
         21   -1    0    0  502  504 -0.00000000000E+00 -0.00000000000E+00 -0.81655002122E+02  0.81655002122E+02  0.00000000000E+00 0.  1.
          6    2    1    2  502    0 -0.20228770334E+02  0.73473764043E+02  0.23497455256E+03  0.30191406667E+03  0.17358417599E+03 0.  0.
         24    2    3    3    0    0 -0.14247055718E+02  0.10243488271E+03  0.10398973048E+03  0.16755022884E+03  0.81014389736E+02 0.  0.
         -6    2    1    2    0  503  0.20228770334E+02 -0.73473764043E+02  0.13696581864E+03  0.23333630876E+03  0.17285427493E+03 0.  0.
        -24    2    5    5    0    0 -0.45542345654E+01 -0.11189414412E+03  0.78176782765E+02  0.15871349941E+03  0.80853725881E+02 0.  0.
          2    1    4    4  501    0 -0.46616609093E+02  0.60579055807E+02  0.75571612283E+02  0.10748952893E+03  0.00000000000E+00 0. -1.
         -1    1    4    4    0  501  0.32369553375E+02  0.41855826906E+02  0.28418118200E+02  0.60060699911E+02  0.00000000000E+00 0.  1.
          5    1    3    3  502    0 -0.59817146157E+01 -0.28961118670E+02  0.13098482207E+03  0.13436383784E+03  0.47000000000E+01 0. -1.
         11    1    6    6    0    0 -0.31912911845E+02 -0.70880912991E+02  0.16000919265E+02  0.79363512940E+02  0.00000000000E+00 0. -1.
        -12    1    6    6    0    0  0.27358677279E+02 -0.41013231133E+02  0.62175863500E+02  0.79349986467E+02  0.00000000000E+00 0.  1.
         -5    1    5    5    0  503  0.24783004899E+02  0.38420380081E+02  0.58789035870E+02  0.74622809355E+02  0.47000000000E+01 0.  1.
<mgrwt>
<rscale>  2 0.18940876E+03</rscale>
<asrwt>0</asrwt>
<pdfrwt beam="1">  1       21 0.69783902E-01 0.18957601E+03</pdfrwt>
<pdfrwt beam="2">  1       21 0.12562308E-01 0.18957601E+03</pdfrwt>
<totfact> 0.10097237E+05</totfact>
</mgrwt>
</event>
<event>
12    1  0.2769346E-001  0.2359016E+03  0.7546771E-02  0.1122669E+00
         21   -1    0    0  504  503  0.00000000000E+00  0.00000000000E+00  0.50654432034E+03  0.50654432034E+03  0.00000000000E+00 0. -1.
         21   -1    0    0  502  504 -0.00000000000E+00 -0.00000000000E+00 -0.24783900390E+03  0.24783900390E+03  0.00000000000E+00 0.  1.
          6    2    1    2  502    0 -0.15839091265E+03 -0.20248584533E+02  0.41119207268E+03  0.47405534524E+03  0.17364291903E+03 0.  0.
         24    2    3    3    0    0 -0.11684967999E+03 -0.19576590122E+02  0.14744351014E+03  0.20701317661E+03  0.84129519268E+02 0.  0.
         -6    2    1    2    0  503  0.15839091265E+03  0.20248584533E+02 -0.15248675624E+03  0.28032797900E+03  0.17272486386E+03 0.  0.
        -24    2    5    5    0    0  0.17396341996E+03  0.53068976294E+02 -0.12652365668E+03  0.23542972026E+03  0.79619908028E+02 0.  0.
          4    1    4    4  501    0 -0.30672734985E+02  0.32422342646E+02  0.43439538408E+02  0.62281766764E+02  0.00000000000E+00 0. -1.
         -3    1    4    4    0  501 -0.86176945004E+02 -0.51998932768E+02  0.10400397174E+03  0.14473140985E+03  0.00000000000E+00 0.  1.
          5    1    3    3  502    0 -0.41541232665E+02 -0.67199441086E+00  0.26374856254E+03  0.26704216863E+03  0.47000000000E+01 0. -1.
         13    1    6    6    0    0  0.12005005092E+03  0.72838453736E+02 -0.98581579953E+02  0.17156859554E+03  0.00000000000E+00 0. -1.
        -14    1    6    6    0    0  0.53913369034E+02 -0.19769477442E+02 -0.27942076730E+02  0.63861124723E+02  0.00000000000E+00 0.  1.
         -5    1    5    5    0  503 -0.15572507304E+02 -0.32820391761E+02 -0.25963099557E+02  0.44898258738E+02  0.47000000000E+01 0.  1.
<mgrwt>
<rscale>  2 0.23573265E+03</rscale>
<asrwt>0</asrwt>
<pdfrwt beam="1">  1       21 0.77929895E-01 0.23590157E+03</pdfrwt>
<pdfrwt beam="2">  1       21 0.38129078E-01 0.23590157E+03</pdfrwt>
<totfact> 0.94083884E+03</totfact>
</mgrwt>
</event>
<event>
12    1  0.2769346E-001  0.2796479E+03  0.7546771E-02  0.1095924E+00
         21   -1    0    0  504  503  0.00000000000E+00  0.00000000000E+00  0.81147873031E+03  0.81147873031E+03  0.00000000000E+00 0.  1.
         21   -1    0    0  502  504 -0.00000000000E+00 -0.00000000000E+00 -0.96408698069E+02  0.96408698069E+02  0.00000000000E+00 0.  1.
          6    2    1    2  502    0 -0.16145358775E+03 -0.14822792237E+03  0.34010926507E+03  0.44031494810E+03  0.17367833304E+03 0.  0.
         24    2    3    3    0    0 -0.58649853486E+02 -0.12607279600E+03  0.14476701831E+03  0.21841375213E+03  0.86098329399E+02 0.  0.
         -6    2    1    2    0  503  0.16145358775E+03  0.14822792237E+03  0.37496076717E+03  0.46757248028E+03  0.17317525639E+03 0.  0.
        -24    2    5    5    0    0  0.74439939445E+02  0.11549298578E+03  0.13803316082E+03  0.21301456601E+03  0.86267708304E+02 0.  0.
          2    1    4    4  501    0  0.20131216514E+02 -0.23532865357E+02  0.47083290790E+02  0.56355105376E+02  0.00000000000E+00 0. -1.
         -1    1    4    4    0  501 -0.78781070000E+02 -0.10253993064E+03  0.97683727518E+02  0.16205864675E+03  0.00000000000E+00 0.  1.
          5    1    3    3  502    0 -0.10280373427E+03 -0.22155126370E+02  0.19534224676E+03  0.22190119597E+03  0.47000000000E+01 0. -1.
         13    1    6    6    0    0  0.75417365051E+02  0.90711688073E+02  0.62473804392E+02  0.13348919634E+03  0.00000000000E+00 0. -1.
        -14    1    6    6    0    0 -0.97742560682E+00  0.24781297709E+02  0.75559356427E+02  0.79525369667E+02  0.00000000000E+00 0.  1.
         -5    1    5    5    0  503  0.87013648310E+02  0.32734936585E+02  0.23692760635E+03  0.25455791427E+03  0.47000000000E+01 0.  1.
<mgrwt>
<rscale>  2 0.27956981E+03</rscale>
<asrwt>0</asrwt>
<pdfrwt beam="1">  1       21 0.12484288E+00 0.27964789E+03</pdfrwt>
<pdfrwt beam="2">  1       21 0.14832108E-01 0.27964789E+03</pdfrwt>
<totfact> 0.18251454E+04</totfact>
</mgrwt>
</event>
<event>
12    1  0.2769346E-001  0.1880595E+03  0.7546771E-02  0.1160354E+00
         21   -1    0    0  504  503  0.00000000000E+00  0.00000000000E+00  0.11282749565E+03  0.11282749565E+03  0.00000000000E+00 0.  1.
         21   -1    0    0  502  504 -0.00000000000E+00 -0.00000000000E+00 -0.56035666726E+03  0.56035666726E+03  0.00000000000E+00 0.  1.
          6    2    1    2  502    0 -0.64040405781E+02  0.36265122747E+02 -0.44743046725E+03  0.48512467750E+03  0.17244012582E+03 0.  0.
         24    2    3    3    0    0 -0.18781040033E+02 -0.43264250059E+02 -0.25286848986E+03  0.27006704714E+03  0.82275233159E+02 0.  0.
         -6    2    1    2    0  503  0.64040405781E+02 -0.36265122747E+02 -0.98704359581E-01  0.18805948541E+03  0.17306076277E+03 0.  0.
        -24    2    5    5    0    0  0.16689803791E+02 -0.48058600729E+02 -0.58514649617E+02  0.11179889079E+03  0.80540977814E+02 0.  0.
          4    1    4    4  501    0  0.19982439692E+02 -0.10615237350E+01 -0.14001273037E+02  0.24422538265E+02  0.00000000000E+00 0. -1.
         -3    1    4    4    0  501 -0.38763479725E+02 -0.42202726324E+02 -0.23886721682E+03  0.24564450888E+03  0.00000000000E+00 0.  1.
          5    1    3    3  502    0 -0.45259365748E+02  0.79529372806E+02 -0.19456197739E+03  0.21505763036E+03  0.47000000000E+01 0. -1.
         13    1    6    6    0    0  0.37568008610E+01 -0.53880787998E+02 -0.25573350166E+01  0.54072107693E+02  0.00000000000E+00 0. -1.
        -14    1    6    6    0    0  0.12933002930E+02  0.58221872684E+01 -0.55957314600E+02  0.57726783096E+02  0.00000000000E+00 0.  1.
         -5    1    5    5    0  503  0.47350601990E+02  0.11793477982E+02  0.58415945257E+02  0.76260594622E+02  0.47000000000E+01 0.  1.
<mgrwt>
<rscale>  2 0.18791655E+03</rscale>
<asrwt>0</asrwt>
<pdfrwt beam="1">  1       21 0.17358076E-01 0.18805946E+03</pdfrwt>
<pdfrwt beam="2">  1       21 0.86208719E-01 0.18805946E+03</pdfrwt>
<totfact> 0.34914537E+04</totfact>
</mgrwt>
</event>
<event>
12    1  0.2769346E-001  0.2204748E+03  0.7546771E-02  0.1134698E+00
         21   -1    0    0  504  503  0.00000000000E+00  0.00000000000E+00  0.65897881830E+02  0.65897881830E+02  0.00000000000E+00 0.  1.
         21   -1    0    0  502  504 -0.00000000000E+00 -0.00000000000E+00 -0.94142632536E+03  0.94142632536E+03  0.00000000000E+00 0.  1.
          6    2    1    2  502    0  0.57005681889E+02 -0.12131693763E+03 -0.68837183213E+03  0.72281734041E+03  0.17504765410E+03 0.  0.
         24    2    3    3    0    0  0.94219385628E+02 -0.38846819737E+02 -0.41211862209E+03  0.43208704245E+03  0.80443057829E+02 0.  0.
         -6    2    1    2    0  503 -0.57005681889E+02  0.12131693763E+03 -0.18715661139E+03  0.28450686677E+03  0.16717988195E+03 0.  0.
        -24    2    5    5    0    0 -0.28452646143E+02  0.13440210806E+03 -0.19467199728E+03  0.25187147861E+03  0.81661346371E+02 0.  0.
          2    1    4    4  501    0  0.53025945720E+02  0.17228506488E+02 -0.24095547018E+03  0.24732187725E+03  0.00000000000E+00 0. -1.
         -1    1    4    4    0  501  0.41193439908E+02 -0.56075326225E+02 -0.17116315190E+03  0.18476516520E+03  0.00000000000E+00 0.  1.
          5    1    3    3  502    0 -0.37213703739E+02 -0.82470117896E+02 -0.27625321004E+03  0.29073029796E+03  0.47000000000E+01 0. -1.
         13    1    6    6    0    0  0.10422720115E+02  0.38238257037E+02 -0.11327692068E+02  0.41220310569E+02  0.00000000000E+00 0. -1.
        -14    1    6    6    0    0 -0.38875366258E+02  0.96163851021E+02 -0.18334430521E+03  0.21065116804E+03  0.00000000000E+00 0.  1.
         -5    1    5    5    0  503 -0.28553035746E+02 -0.13085170425E+02  0.75153858844E+01  0.32635388160E+02  0.47000000000E+01 0.  1.
<mgrwt>
<rscale>  2 0.21890988E+03</rscale>
<asrwt>0</asrwt>
<pdfrwt beam="1">  1       21 0.10138136E-01 0.22047478E+03</pdfrwt>
<pdfrwt beam="2">  1       21 0.14483482E+00 0.22047478E+03</pdfrwt>
<totfact> 0.25506680E+04</totfact>
</mgrwt>
</event>
<event>
12    1  0.2769346E-001  0.1853884E+03  0.7546771E-02  0.1165170E+00
         21   -1    0    0  504  503  0.00000000000E+00  0.00000000000E+00  0.24750833931E+03  0.24750833931E+03  0.00000000000E+00 0.  1.
         21   -1    0    0  502  504 -0.00000000000E+00 -0.00000000000E+00 -0.20967657614E+03  0.20967657614E+03  0.00000000000E+00 0.  1.
          6    2    1    2  502    0 -0.11283349277E+01  0.34907839890E+02 -0.12121423791E+03  0.21292174547E+03  0.17153118607E+03 0.  0.
         24    2    3    3    0    0  0.62672229088E+02  0.39098280871E+02 -0.97362155202E+02  0.14451791799E+03  0.77133361702E+02 0.  0.
         -6    2    1    2    0  503  0.11283349277E+01 -0.34907839890E+02  0.15904600108E+03  0.24426316999E+03  0.18206876538E+03 0.  0.
        -24    2    5    5    0    0 -0.70576202659E+02 -0.34045209875E+02  0.11652578908E+03  0.16076261149E+03  0.78270563013E+02 0.  0.
          2    1    4    4  501    0  0.77134204998E+02  0.45656694503E+02 -0.73810305019E+02  0.11611279198E+03  0.00000000000E+00 0. -1.
         -1    1    4    4    0  501 -0.14461975909E+02 -0.65584136316E+01 -0.23551850184E+02  0.28405126010E+02  0.00000000000E+00 0.  1.
          5    1    3    3  502    0 -0.63800564016E+02 -0.41904409818E+01 -0.23852082706E+02  0.68403827479E+02  0.47000000000E+01 0. -1.
         13    1    6    6    0    0 -0.47022453367E+02 -0.13668642427E+01  0.11717331586E+02  0.48479637973E+02  0.00000000000E+00 0. -1.
        -14    1    6    6    0    0 -0.23553749292E+02 -0.32678345633E+02  0.10480845749E+03  0.11228297352E+03  0.00000000000E+00 0.  1.
         -5    1    5    5    0  503  0.71704537587E+02 -0.86263001436E+00  0.42520211997E+02  0.83500558497E+02  0.47000000000E+01 0.  1.
<mgrwt>
<rscale>  2 0.18274814E+03</rscale>
<asrwt>0</asrwt>
<pdfrwt beam="1">  1       21 0.38078206E-01 0.18538842E+03</pdfrwt>
<pdfrwt beam="2">  1       21 0.32257935E-01 0.18538842E+03</pdfrwt>
<totfact> 0.61687780E+04</totfact>
</mgrwt>
</event>
<event>
12    1  0.2769346E-001  0.1765870E+03  0.7546771E-02  0.1171571E+00
         21   -1    0    0  504  503  0.00000000000E+00  0.00000000000E+00  0.30475827704E+03  0.30475827704E+03  0.00000000000E+00 0. -1.
         21   -1    0    0  502  504 -0.00000000000E+00 -0.00000000000E+00 -0.10593801971E+03  0.10593801971E+03  0.00000000000E+00 0. -1.
          6    2    1    2  502    0 -0.29594127768E+02  0.25879749128E+02  0.56169594078E+02  0.18368930908E+03  0.17041468586E+03 0.  0.
         24    2    3    3    0    0  0.14056158505E+02 -0.13989424432E+02  0.84594491229E+02  0.11792485614E+03  0.79729318081E+02 0.  0.
         -6    2    1    2    0  503  0.29594127768E+02 -0.25879749128E+02  0.14265066326E+03  0.22700698768E+03  0.17215512456E+03 0.  0.
        -24    2    5    5    0    0  0.75548204070E+02 -0.27506143946E+02  0.56826403048E+02  0.12952716449E+03  0.84166068955E+02 0.  0.
          2    1    4    4  501    0 -0.10779922650E+02 -0.19713200047E+02  0.89233800028E+02  0.92018954872E+02  0.00000000000E+00 0. -1.
         -1    1    4    4    0  501  0.24836081155E+02  0.57237756153E+01 -0.46393087984E+01  0.25905901269E+02  0.00000000000E+00 0.  1.
          5    1    3    3  502    0 -0.43650286273E+02  0.39869173560E+02 -0.28424897151E+02  0.65764452937E+02  0.47000000000E+01 0. -1.
         13    1    6    6    0    0  0.14810554868E+02 -0.18865085448E+02  0.63440067604E+02  0.67822460602E+02  0.00000000000E+00 0. -1.
        -14    1    6    6    0    0  0.60737649201E+02 -0.86410584978E+01 -0.66136645564E+01  0.61704703883E+02  0.00000000000E+00 0.  1.
         -5    1    5    5    0  503 -0.45954076302E+02  0.16263948176E+01  0.85824260209E+02  0.97479823190E+02  0.47000000000E+01 0.  1.
<mgrwt>
<rscale>  2 0.17616136E+03</rscale>
<asrwt>0</asrwt>
<pdfrwt beam="1">  1       21 0.46885889E-01 0.17658698E+03</pdfrwt>
<pdfrwt beam="2">  1       21 0.16298157E-01 0.17658698E+03</pdfrwt>
<totfact> 0.14755892E+05</totfact>
</mgrwt>
</event>
<event>
12    1  0.2769346E-001  0.2854827E+03  0.7546771E-02  0.1092902E+00
         21   -1    0    0  504  503  0.00000000000E+00  0.00000000000E+00  0.46108451588E+03  0.46108451588E+03  0.00000000000E+00 0.  1.
         21   -1    0    0  502  504 -0.00000000000E+00 -0.00000000000E+00 -0.17650110365E+03  0.17650110365E+03  0.00000000000E+00 0. -1.
          6    2    1    2  502    0 -0.21256056828E+03 -0.75520875537E+02  0.12506059370E+03  0.31167375354E+03  0.17497136543E+03 0.  0.
         24    2    3    3    0    0 -0.64612593065E+02 -0.55533165346E+02  0.18246393295E+01  0.11803155159E+03  0.81666383692E+02 0.  0.
         -6    2    1    2    0  503  0.21256056828E+03  0.75520875537E+02  0.15952281853E+03  0.32591186599E+03  0.17287456993E+03 0.  0.
        -24    2    5    5    0    0  0.22329997811E+03  0.52710710169E+02  0.17237591205E+03  0.29722509934E+03  0.77382203568E+02 0.  0.
          2    1    4    4  501    0 -0.13957460316E+02  0.14031425736E+02 -0.21148351800E+02  0.28964536774E+02  0.00000000000E+00 0. -1.
         -1    1    4    4    0  501 -0.50655132748E+02 -0.69564591082E+02  0.22972991130E+02  0.89067014813E+02  0.00000000000E+00 0.  1.
          5    1    3    3  502    0 -0.14794797521E+03 -0.19987710191E+02  0.12323595437E+03  0.19364220195E+03  0.47000000000E+01 0. -1.
         13    1    6    6    0    0  0.50100308372E+02 -0.20454594287E+02  0.38782985696E+02  0.66577408375E+02  0.00000000000E+00 0. -1.
        -14    1    6    6    0    0  0.17319966974E+03  0.73165304455E+02  0.13359292635E+03  0.23064769096E+03  0.00000000000E+00 0.  1.
         -5    1    5    5    0  503 -0.10739409835E+02  0.22810165369E+02 -0.12853093519E+02  0.28686766649E+02  0.47000000000E+01 0.  1.
<mgrwt>
<rscale>  2 0.28516210E+03</rscale>
<asrwt>0</asrwt>
<pdfrwt beam="1">  1       21 0.70936079E-01 0.28548271E+03</pdfrwt>
<pdfrwt beam="2">  1       21 0.27154016E-01 0.28548271E+03</pdfrwt>
<totfact> 0.22204329E+04</totfact>
</mgrwt>
</event>
<event>
12    1  0.2769346E-001  0.2342555E+03  0.7546771E-02  0.1123947E+00
         21   -1    0    0  504  503  0.00000000000E+00  0.00000000000E+00  0.99299257837E+02  0.99299257837E+02  0.00000000000E+00 0. -1.
         21   -1    0    0  502  504 -0.00000000000E+00 -0.00000000000E+00 -0.58604127782E+03  0.58604127782E+03  0.00000000000E+00 0.  1.
          6    2    1    2  502    0 -0.95589476415E+01 -0.15690729600E+03 -0.32878200094E+03  0.40280379104E+03  0.17158676207E+03 0.  0.
         24    2    3    3    0    0  0.17039477528E+02 -0.15805194290E+03 -0.33024346475E+03  0.37572959088E+03  0.82711661826E+02 0.  0.
         -6    2    1    2    0  503  0.95589476415E+01  0.15690729600E+03 -0.15796001905E+03  0.28253674462E+03  0.17367893201E+03 0.  0.
        -24    2    5    5    0    0 -0.36233494714E+02  0.72566798718E+02 -0.22788157727E+02  0.11669408017E+03  0.80742812676E+02 0.  0.
          4    1    4    4  501    0  0.32955039852E+02 -0.67420361845E+02 -0.21819408543E+03  0.23073837730E+03  0.00000000000E+00 0. -1.
         -3    1    4    4    0  501 -0.15915562325E+02 -0.90631581053E+02 -0.11204937932E+03  0.14499121358E+03  0.00000000000E+00 0.  1.
          5    1    3    3  502    0 -0.26598425169E+02  0.11446468994E+01  0.14614638129E+01  0.27074200163E+02  0.47000000000E+01 0. -1.
         13    1    6    6    0    0  0.46560360614E+01  0.50957950440E+02 -0.42405149978E+02  0.66457415911E+02  0.00000000000E+00 0. -1.
        -14    1    6    6    0    0 -0.40889530776E+02  0.21608848278E+02  0.19616992251E+02  0.50236664260E+02  0.00000000000E+00 0.  1.
         -5    1    5    5    0  503  0.45792442356E+02  0.84340497279E+02 -0.13517186132E+03  0.16584266445E+03  0.47000000000E+01 0.  1.
<mgrwt>
<rscale>  2 0.23386782E+03</rscale>
<asrwt>0</asrwt>
<pdfrwt beam="1">  1       21 0.15276809E-01 0.23425551E+03</pdfrwt>
<pdfrwt beam="2">  1       21 0.90160196E-01 0.23425551E+03</pdfrwt>
<totfact> 0.38873176E+04</totfact>
</mgrwt>
</event>
<event>
12    1  0.2769346E-001  0.1871378E+03  0.7546771E-02  0.1161294E+00
         21   -1    0    0  504  503  0.00000000000E+00  0.00000000000E+00  0.69651873573E+02  0.69651873573E+02  0.00000000000E+00 0.  1.
         21   -1    0    0  502  504 -0.00000000000E+00 -0.00000000000E+00 -0.53456036706E+03  0.53456036706E+03  0.00000000000E+00 0. -1.
          6    2    1    2  502    0  0.54912694458E+02 -0.44992756480E+02 -0.30964618377E+03  0.36180288446E+03  0.17314969225E+03 0.  0.
         24    2    3    3    0    0 -0.17830517151E+02  0.27038646343E+02 -0.97933718862E+02  0.12659158450E+03  0.73385286248E+02 0.  0.
         -6    2    1    2    0  503 -0.54912694458E+02  0.44992756480E+02 -0.15526230971E+03  0.24240935618E+03  0.17209346006E+03 0.  0.
        -24    2    5    5    0    0 -0.28222809335E+02 -0.61009453450E+01 -0.16133444913E+03  0.18425544650E+03  0.84187389705E+02 0.  0.
          4    1    4    4  501    0 -0.75057377651E+01  0.37293399755E+02 -0.10406542770E+03  0.11080048288E+03  0.00000000000E+00 0. -1.
         -3    1    4    4    0  501 -0.10324779386E+02 -0.10254753412E+02  0.61317088388E+01  0.15791101614E+02  0.00000000000E+00 0.  1.
          5    1    3    3  502    0  0.72743211609E+02 -0.72031402823E+02 -0.21171246491E+03  0.23521129996E+03  0.47000000000E+01 0. -1.
         11    1    6    6    0    0  0.19591081030E+02 -0.28487396096E+02 -0.81648368526E+02  0.88666782254E+02  0.00000000000E+00 0. -1.
        -12    1    6    6    0    0 -0.47813890365E+02  0.22386450751E+02 -0.79686080609E+02  0.95588664243E+02  0.00000000000E+00 0.  1.
         -5    1    5    5    0  503 -0.26689885123E+02  0.51093701825E+02  0.60721394211E+01  0.58153909682E+02  0.47000000000E+01 0.  1.
<mgrwt>
<rscale>  2 0.18689314E+03</rscale>
<asrwt>0</asrwt>
<pdfrwt beam="1">  1       21 0.10715673E-01 0.18713783E+03</pdfrwt>
<pdfrwt beam="2">  1       21 0.82240057E-01 0.18713783E+03</pdfrwt>
<totfact> 0.92962556E+04</totfact>
</mgrwt>
</event>
<event>
12    1  0.2769346E-001  0.1834315E+03  0.7546771E-02  0.1165280E+00
         21   -1    0    0  504  503  0.00000000000E+00  0.00000000000E+00  0.88813487212E+03  0.88813487212E+03  0.00000000000E+00 0. -1.
         21   -1    0    0  502  504 -0.00000000000E+00 -0.00000000000E+00 -0.59437412330E+02  0.59437412330E+02  0.00000000000E+00 0. -1.
          6    2    1    2  502    0  0.29018954288E+02  0.38134699206E+02  0.70166597439E+03  0.72444875288E+03  0.17376564952E+03 0.  0.
         24    2    3    3    0    0  0.17602970805E+02  0.91882397185E+02  0.52491291081E+03  0.53929239949E+03  0.80935089574E+02 0.  0.
         -6    2    1    2    0  503 -0.29018954288E+02 -0.38134699206E+02  0.12703148540E+03  0.22312353157E+03  0.17706144996E+03 0.  0.
        -24    2    5    5    0    0 -0.18680850743E+02 -0.57263218968E+02  0.15631197922E+03  0.18635106944E+03  0.81640895403E+02 0.  0.
          2    1    4    4  501    0  0.31474234517E+02  0.10149947616E+03  0.46893259312E+03  0.48082278231E+03  0.00000000000E+00 0. -1.
         -1    1    4    4    0  501 -0.13871263712E+02 -0.96170789739E+01  0.55980317688E+02  0.58469617182E+02  0.00000000000E+00 0.  1.
          5    1    3    3  502    0  0.11415983484E+02 -0.53747697979E+02  0.17675306358E+03  0.18515635339E+03  0.47000000000E+01 0. -1.
         13    1    6    6    0    0  0.22584034886E+02 -0.45825165910E+02  0.48903756467E+02  0.70721721267E+02  0.00000000000E+00 0. -1.
        -14    1    6    6    0    0 -0.41264885629E+02 -0.11438053058E+02  0.10740822275E+03  0.11562934817E+03  0.00000000000E+00 0.  1.
         -5    1    5    5    0  503 -0.10338103546E+02  0.19128519762E+02 -0.29280493813E+02  0.36772462130E+02  0.47000000000E+01 0.  1.
<mgrwt>
<rscale>  2 0.18263145E+03</rscale>
<asrwt>0</asrwt>
<pdfrwt beam="1">  1       21 0.13663612E+00 0.18343149E+03</pdfrwt>
<pdfrwt beam="2">  1       21 0.91442179E-02 0.18343149E+03</pdfrwt>
<totfact> 0.36382714E+04</totfact>
</mgrwt>
</event>
<event>
12    1  0.2769346E-001  0.1996368E+03  0.7546771E-02  0.1150133E+00
         21   -1    0    0  504  503  0.00000000000E+00  0.00000000000E+00  0.38700765605E+03  0.38700765605E+03  0.00000000000E+00 0. -1.
         21   -1    0    0  502  504 -0.00000000000E+00 -0.00000000000E+00 -0.10290508609E+03  0.10290508609E+03  0.00000000000E+00 0. -1.
          6    2    1    2  502    0 -0.72866770411E+02  0.66792590925E+02  0.15110798576E+03  0.25037667275E+03  0.17344750924E+03 0.  0.
         24    2    3    3    0    0 -0.45602999357E+02  0.19560550252E+02  0.35316942834E+01  0.92975812885E+02  0.78547948672E+02 0.  0.
         -6    2    1    2    0  503  0.72866770411E+02 -0.66792590925E+02  0.13299458419E+03  0.23953606938E+03  0.17297153719E+03 0.  0.
        -24    2    5    5    0    0  0.54515406993E+02 -0.88199527002E+01  0.14722242471E+03  0.17690923194E+03  0.81072269262E+02 0.  0.
          4    1    4    4  501    0 -0.51308713208E+02 -0.18406837921E+02  0.25218781860E+01  0.54568815296E+02  0.00000000000E+00 0. -1.
         -3    1    4    4    0  501  0.57057138503E+01  0.37967388173E+02  0.10098160974E+01  0.38406997588E+02  0.00000000000E+00 0.  1.
          5    1    3    3  502    0 -0.27263771054E+02  0.47232040673E+02  0.14757629148E+03  0.15740085986E+03  0.47000000000E+01 0. -1.
         13    1    6    6    0    0  0.79470065144E+01  0.21968812678E+01 -0.97707782215E+01  0.12784729442E+02  0.00000000000E+00 0. -1.
        -14    1    6    6    0    0  0.46568400478E+02 -0.11016833968E+02  0.15699320293E+03  0.16412450250E+03  0.00000000000E+00 0.  1.
         -5    1    5    5    0  503  0.18351363419E+02 -0.57972638225E+02 -0.14227840518E+02  0.62626837441E+02  0.47000000000E+01 0.  1.
<mgrwt>
<rscale>  2 0.19953338E+03</rscale>
<asrwt>0</asrwt>
<pdfrwt beam="1">  1       21 0.59539639E-01 0.19963681E+03</pdfrwt>
<pdfrwt beam="2">  1       21 0.15831552E-01 0.19963681E+03</pdfrwt>
<totfact> 0.93380417E+04</totfact>
</mgrwt>
</event>
<event>
12    1  0.2769346E-001  0.1888411E+03  0.7546771E-02  0.1159829E+00
         21   -1    0    0  504  503  0.00000000000E+00  0.00000000000E+00  0.49339907572E+03  0.49339907572E+03  0.00000000000E+00 0.  1.
         21   -1    0    0  502  504 -0.00000000000E+00 -0.00000000000E+00 -0.83381326996E+02  0.83381326996E+02  0.00000000000E+00 0.  1.
          6    2    1    2  502    0 -0.73016261052E+02  0.93232194725E+01  0.31209669404E+03  0.36406110479E+03  0.17238864460E+03 0.  0.
         24    2    3    3    0    0  0.17206461502E+02 -0.16530435359E+02  0.96016229262E+02  0.12843129260E+03  0.81891165740E+02 0.  0.
         -6    2    1    2    0  503  0.73016261052E+02 -0.93232194725E+01  0.97921054684E+02  0.21271929793E+03  0.17390419765E+03 0.  0.
        -24    2    5    5    0    0  0.34979005064E+02  0.35446315067E+02  0.11937452417E+03  0.15000179304E+03  0.75962417338E+02 0.  0.
          4    1    4    4  501    0  0.15152961504E+02  0.29656485092E+02  0.18292163458E+02  0.37996349749E+02  0.00000000000E+00 0. -1.
         -3    1    4    4    0  501  0.20534999984E+01 -0.46186920451E+02  0.77724065804E+02  0.90434942849E+02  0.00000000000E+00 0.  1.
          5    1    3    3  502    0 -0.90222722554E+02  0.25853654832E+02  0.21608046478E+03  0.23562981219E+03  0.47000000000E+01 0. -1.
         13    1    6    6    0    0  0.46387030482E+02  0.34082606616E+00  0.95134656133E+02  0.10584174770E+03  0.00000000000E+00 0. -1.
        -14    1    6    6    0    0 -0.11408025418E+02  0.35105489001E+02  0.24239868040E+02  0.44160045341E+02  0.00000000000E+00 0.  1.
         -5    1    5    5    0  503  0.38037255988E+02 -0.44769534539E+02 -0.21453469489E+02  0.62717504886E+02  0.47000000000E+01 0.  1.
<mgrwt>
<rscale>  2 0.18849146E+03</rscale>
<asrwt>0</asrwt>
<pdfrwt beam="1">  1       21 0.75907548E-01 0.18884112E+03</pdfrwt>
<pdfrwt beam="2">  1       21 0.12827897E-01 0.18884112E+03</pdfrwt>
<totfact> 0.80712082E+04</totfact>
</mgrwt>
</event>
<event>
12    1  0.2769346E-001  0.2041260E+03  0.7546771E-02  0.1146637E+00
         21   -1    0    0  504  503  0.00000000000E+00  0.00000000000E+00  0.13426646596E+03  0.13426646596E+03  0.00000000000E+00 0. -1.
         21   -1    0    0  502  504 -0.00000000000E+00 -0.00000000000E+00 -0.31078576964E+03  0.31078576964E+03  0.00000000000E+00 0. -1.
          6    2    1    2  502    0 -0.34997913957E+02  0.99747302007E+02 -0.11011914257E+03  0.23193454137E+03  0.17462252914E+03 0.  0.
         24    2    3    3    0    0 -0.63038988364E+02  0.47836027954E+01 -0.75306453365E+02  0.12687065913E+03  0.80176713083E+02 0.  0.
         -6    2    1    2    0  503  0.34997913957E+02 -0.99747302007E+02 -0.66400161111E+02  0.21311769422E+03  0.17273040252E+03 0.  0.
        -24    2    5    5    0    0  0.39301913171E+02 -0.45300385150E+02  0.28116299752E+02  0.10385451406E+03  0.79990427585E+02 0.  0.
          2    1    4    4  501    0 -0.30798663146E+02  0.33981035982E+02 -0.69099429791E+02  0.82933706389E+02  0.00000000000E+00 0. -1.
         -1    1    4    4    0  501 -0.32240325218E+02 -0.29197433186E+02 -0.62070235742E+01  0.43936952745E+02  0.00000000000E+00 0.  1.
          5    1    3    3  502    0  0.28041074407E+02  0.94963699211E+02 -0.34812689206E+02  0.10506388224E+03  0.47000000000E+01 0. -1.
         11    1    6    6    0    0  0.14313845728E+02 -0.47576399277E+02 -0.16765133335E+02  0.52435385413E+02  0.00000000000E+00 0. -1.
        -12    1    6    6    0    0  0.24988067443E+02  0.22760141275E+01  0.44881433087E+02  0.51419128646E+02  0.00000000000E+00 0.  1.
         -5    1    5    5    0  503 -0.43039992142E+01 -0.54446916857E+02 -0.94516460863E+02  0.10926318016E+03  0.47000000000E+01 0.  1.
<mgrwt>
<rscale>  2 0.20372068E+03</rscale>
<asrwt>0</asrwt>
<pdfrwt beam="1">  1       21 0.20656380E-01 0.20412596E+03</pdfrwt>
<pdfrwt beam="2">  1       21 0.47813195E-01 0.20412596E+03</pdfrwt>
<totfact> 0.90431578E+04</totfact>
</mgrwt>
</event>
<event>
12    1  0.2769346E-001  0.2302571E+03  0.7546771E-02  0.1126537E+00
         21   -1    0    0  504  503  0.00000000000E+00  0.00000000000E+00  0.26557286269E+03  0.26557286269E+03  0.00000000000E+00 0. -1.
         21   -1    0    0  502  504 -0.00000000000E+00 -0.00000000000E+00 -0.20006909008E+03  0.20006909008E+03  0.00000000000E+00 0. -1.
          6    2    1    2  502    0  0.36580380309E+02 -0.14679966868E+03  0.47655387989E+02  0.23513688657E+03  0.17358010391E+03 0.  0.
         24    2    3    3    0    0 -0.17955525151E+01 -0.78275067149E+02 -0.37308157771E+02  0.11933866835E+03  0.81973221119E+02 0.  0.
         -6    2    1    2    0  503 -0.36580380309E+02  0.14679966868E+03  0.17848384626E+02  0.23050506620E+03  0.17299061756E+03 0.  0.
        -24    2    5    5    0    0  0.11124740072E+02  0.16083880431E+03  0.22990269866E+02  0.18029147418E+03  0.77353618779E+02 0.  0.
          2    1    4    4  501    0  0.24083232809E+02 -0.67618895856E+02  0.11332850598E+01  0.71788589026E+02  0.00000000000E+00 0. -1.
         -1    1    4    4    0  501 -0.25878785324E+02 -0.10656171292E+02 -0.38441442831E+02  0.47550079321E+02  0.00000000000E+00 0.  1.
          5    1    3    3  502    0  0.38375932824E+02 -0.68524601528E+02  0.84963545760E+02  0.11579821822E+03  0.47000000000E+01 0. -1.
         13    1    6    6    0    0 -0.56695972522E+01  0.84972252121E+02 -0.25257378345E+02  0.88827715969E+02  0.00000000000E+00 0. -1.
        -14    1    6    6    0    0  0.16794337324E+02  0.75866552194E+02  0.48247648211E+02  0.91463758210E+02  0.00000000000E+00 0.  1.
         -5    1    5    5    0  503 -0.47705120381E+02 -0.14039135638E+02 -0.51418852403E+01  0.50213592023E+02  0.47000000000E+01 0.  1.
<mgrwt>
<rscale>  2 0.23014598E+03</rscale>
<asrwt>0</asrwt>
<pdfrwt beam="1">  1       21 0.40857363E-01 0.23025707E+03</pdfrwt>
<pdfrwt beam="2">  1       21 0.30779860E-01 0.23025707E+03</pdfrwt>
<totfact> 0.57512424E+04</totfact>
</mgrwt>
</event>
<event>
12    1  0.2769346E-001  0.1794525E+03  0.7546771E-02  0.1168450E+00
         21   -1    0    0  504  503  0.00000000000E+00  0.00000000000E+00  0.72760272480E+03  0.72760272480E+03  0.00000000000E+00 0.  1.
         21   -1    0    0  502  504 -0.00000000000E+00 -0.00000000000E+00 -0.76154170715E+02  0.76154170715E+02  0.00000000000E+00 0.  1.
          6    2    1    2  502    0  0.35831170978E+02  0.26792587182E+02  0.65416978064E+02  0.19100418196E+03  0.17378579046E+03 0.  0.
         24    2    3    3    0    0  0.70493424051E+02 -0.31004732424E+02  0.40022344246E+02  0.11883092258E+03  0.81168860138E+02 0.  0.
         -6    2    1    2    0  503 -0.35831170978E+02 -0.26792587182E+02  0.58603157602E+03  0.61275271356E+03  0.17329502110E+03 0.  0.
        -24    2    5    5    0    0  0.38152310839E+02  0.24914588606E+01  0.31108783955E+03  0.32648839661E+03  0.91417848445E+02 0.  0.
          4    1    4    4  501    0  0.64314314136E+02 -0.56332362613E+02  0.34421205206E+02  0.92165532865E+02  0.00000000000E+00 0. -1.
         -3    1    4    4    0  501  0.61791099150E+01  0.25327630189E+02  0.56011390407E+01  0.26665389720E+02  0.00000000000E+00 0.  1.
          5    1    3    3  502    0 -0.34662253074E+02  0.57797319606E+02  0.25394633817E+02  0.72173259373E+02  0.47000000000E+01 0. -1.
         11    1    6    6    0    0  0.14056479915E+02  0.46682212119E+02  0.15138551043E+03  0.15904208979E+03  0.00000000000E+00 0. -1.
        -12    1    6    6    0    0  0.24095830924E+02 -0.44190753258E+02  0.15970232912E+03  0.16744630682E+03  0.00000000000E+00 0.  1.
         -5    1    5    5    0  503 -0.73983481817E+02 -0.29284046043E+02  0.27494373647E+03  0.28626431695E+03  0.47000000000E+01 0.  1.
<mgrwt>
<rscale>  2 0.17933362E+03</rscale>
<asrwt>0</asrwt>
<pdfrwt beam="1">  1       21 0.11193888E+00 0.17945255E+03</pdfrwt>
<pdfrwt beam="2">  1       21 0.11716027E-01 0.17945255E+03</pdfrwt>
<totfact> 0.38620059E+04</totfact>
</mgrwt>
</event>
<event>
12    1  0.2769346E-001  0.1742821E+03  0.7546771E-02  0.1173530E+00
         21   -1    0    0  504  503  0.00000000000E+00  0.00000000000E+00  0.74044969895E+02  0.74044969895E+02  0.00000000000E+00 0. -1.
         21   -1    0    0  502  504 -0.00000000000E+00 -0.00000000000E+00 -0.65042803738E+03  0.65042803738E+03  0.00000000000E+00 0. -1.
          6    2    1    2  502    0  0.14748936081E+01 -0.20335512206E+02 -0.50880899716E+03  0.53782974526E+03  0.17308532845E+03 0.  0.
         24    2    3    3    0    0 -0.56698115494E+02 -0.36088602421E+02 -0.40685165630E+03  0.41929853336E+03  0.75933696843E+02 0.  0.
         -6    2    1    2    0  503 -0.14748936081E+01  0.20335512206E+02 -0.67574070323E+02  0.18664326202E+03  0.17278235994E+03 0.  0.
        -24    2    5    5    0    0  0.26221108805E+01  0.83741061699E+01  0.31139476682E+02  0.87012368000E+02  0.80774278439E+02 0.  0.
          4    1    4    4  501    0 -0.24968289652E+02 -0.25418671437E+01 -0.31958038195E+03  0.32056434160E+03  0.00000000000E+00 0. -1.
         -3    1    4    4    0  501 -0.31729825842E+02 -0.33546735277E+02 -0.87271274350E+02  0.98734191759E+02  0.00000000000E+00 0.  1.
          5    1    3    3  502    0  0.58173009102E+02  0.15753090214E+02 -0.10195734086E+03  0.11853121190E+03  0.47000000000E+01 0. -1.
         11    1    6    6    0    0  0.28859847894E+02  0.19642688272E+02  0.43602312843E+02  0.55855954994E+02  0.00000000000E+00 0. -1.
        -12    1    6    6    0    0 -0.26237737014E+02 -0.11268582102E+02 -0.12462836161E+02  0.31156413006E+02  0.00000000000E+00 0.  1.
         -5    1    5    5    0  503 -0.40970044886E+01  0.11961406036E+02 -0.98713547005E+02  0.99630894016E+02  0.47000000000E+01 0.  1.
<mgrwt>
<rscale>  2 0.17420680E+03</rscale>
<asrwt>0</asrwt>
<pdfrwt beam="1">  1       21 0.11391534E-01 0.17428207E+03</pdfrwt>
<pdfrwt beam="2">  1       21 0.10006585E+00 0.17428207E+03</pdfrwt>
<totfact> 0.53269254E+04</totfact>
</mgrwt>
</event>
<event>
12    1  0.2769346E-001  0.2012014E+03  0.7546771E-02  0.1150094E+00
         21   -1    0    0  504  503  0.00000000000E+00  0.00000000000E+00  0.32925874685E+03  0.32925874685E+03  0.00000000000E+00 0.  1.
         21   -1    0    0  502  504 -0.00000000000E+00 -0.00000000000E+00 -0.42259764910E+03  0.42259764910E+03  0.00000000000E+00 0. -1.
          6    2    1    2  502    0 -0.59549666752E+02  0.65414525836E+02 -0.36546925612E+03  0.41719276027E+03  0.18071192283E+03 0.  0.
         24    2    3    3    0    0 -0.41023184864E+01  0.10014332441E+03 -0.28606362578E+03  0.31419838173E+03  0.82720678489E+02 0.  0.
         -6    2    1    2    0  503  0.59549666752E+02 -0.65414525836E+02  0.27213035387E+03  0.33466363568E+03  0.17354998286E+03 0.  0.
        -24    2    5    5    0    0  0.73421354098E+02 -0.10169608479E+03  0.20167223133E+03  0.25407075596E+03  0.90263343863E+02 0.  0.
          2    1    4    4  501    0 -0.16631676305E+02  0.11120286706E+03 -0.25953255775E+03  0.28284242756E+03  0.00000000000E+00 0. -1.
         -1    1    4    4    0  501  0.12529357819E+02 -0.11059542652E+02 -0.26531068031E+02  0.31355954169E+02  0.00000000000E+00 0.  1.
          5    1    3    3  502    0 -0.55447348266E+02 -0.34728798573E+02 -0.79405630343E+02  0.10299437854E+03  0.47000000000E+01 0. -1.
         11    1    6    6    0    0  0.81371670669E+02 -0.43714314012E+02  0.95665558823E+02  0.13298191299E+03  0.00000000000E+00 0. -1.
        -12    1    6    6    0    0 -0.79503165719E+01 -0.57981770782E+02  0.10600667251E+03  0.12108884297E+03  0.00000000000E+00 0.  1.
         -5    1    5    5    0  503 -0.13871687345E+02  0.36281558958E+02  0.70458122536E+02  0.80592879720E+02  0.47000000000E+01 0.  1.
<mgrwt>
<rscale>  2 0.19958017E+03</rscale>
<asrwt>0</asrwt>
<pdfrwt beam="1">  1       21 0.50655192E-01 0.20120145E+03</pdfrwt>
<pdfrwt beam="2">  1       21 0.65015022E-01 0.20120145E+03</pdfrwt>
<totfact> 0.80286436E+03</totfact>
</mgrwt>
</event>
<event>
12    1  0.2769346E-001  0.1964665E+03  0.7546771E-02  0.1152918E+00
         21   -1    0    0  504  503  0.00000000000E+00  0.00000000000E+00  0.16188630925E+03  0.16188630925E+03  0.00000000000E+00 0. -1.
         21   -1    0    0  502  504 -0.00000000000E+00 -0.00000000000E+00 -0.39695579649E+03  0.39695579649E+03  0.00000000000E+00 0.  1.
          6    2    1    2  502    0  0.34405217926E+01 -0.90042981998E+02 -0.29448338160E+03  0.35358834370E+03  0.17373738504E+03 0.  0.
         24    2    3    3    0    0 -0.55423195929E+02 -0.62180955567E+02 -0.12929707908E+03  0.17596561339E+03  0.85486610385E+02 0.  0.
         -6    2    1    2    0  503 -0.34405217926E+01  0.90042981998E+02  0.59413894360E+02  0.20525376204E+03  0.17458384860E+03 0.  0.
        -24    2    5    5    0    0  0.62252480247E+02  0.32653793729E+02  0.47132124723E+02  0.11703799637E+03  0.80838195623E+02 0.  0.
          4    1    4    4  501    0 -0.54787021278E+02 -0.84268863162E+01 -0.29946180697E+02  0.63003205092E+02  0.00000000000E+00 0. -1.
         -3    1    4    4    0  501 -0.63617465066E+00 -0.53754069250E+02 -0.99350898383E+02  0.11296240830E+03  0.00000000000E+00 0.  1.
          5    1    3    3  502    0  0.58863717721E+02 -0.27862026431E+02 -0.16518630252E+03  0.17762273031E+03  0.47000000000E+01 0. -1.
         11    1    6    6    0    0 -0.12558645610E+02 -0.12472479570E+02  0.17213175234E+02  0.24689587437E+02  0.00000000000E+00 0. -1.
        -12    1    6    6    0    0  0.74811125857E+02  0.45126273299E+02  0.29918949489E+02  0.92348408932E+02  0.00000000000E+00 0.  1.
         -5    1    5    5    0  503 -0.65693002039E+02  0.57389188269E+02  0.12281769637E+02  0.88215765669E+02  0.47000000000E+01 0.  1.
<mgrwt>
<rscale>  2 0.19627831E+03</rscale>
<asrwt>0</asrwt>
<pdfrwt beam="1">  1       21 0.24905587E-01 0.19646653E+03</pdfrwt>
<pdfrwt beam="2">  1       21 0.61070121E-01 0.19646653E+03</pdfrwt>
<totfact> 0.37982891E+04</totfact>
</mgrwt>
</event>
<event>
12    1  0.2769346E-001  0.2738526E+03  0.7546771E-02  0.1099105E+00
         21   -1    0    0  504  503  0.00000000000E+00  0.00000000000E+00  0.78112644047E+02  0.78112644047E+02  0.00000000000E+00 0. -1.
         21   -1    0    0  502  504 -0.00000000000E+00 -0.00000000000E+00 -0.11628662292E+04  0.11628662292E+04  0.00000000000E+00 0.  1.
          6    2    1    2  502    0 -0.73343234515E+01  0.21176198661E+03 -0.80169871587E+03  0.84718126249E+03  0.17348870049E+03 0.  0.
         24    2    3    3    0    0 -0.78425521807E+01  0.22107253144E+03 -0.80273103004E+03  0.83668839758E+03  0.82071909208E+02 0.  0.
         -6    2    1    2    0  503  0.73343234515E+01 -0.21176198661E+03 -0.28305486933E+03  0.39379761081E+03  0.17337695336E+03 0.  0.
        -24    2    5    5    0    0 -0.25470909547E+02 -0.21129049233E+03 -0.19052632950E+03  0.29551217800E+03  0.75727971941E+02 0.  0.
          2    1    4    4  501    0 -0.94101122700E+01  0.18825513777E+03 -0.75862284985E+03  0.78168866912E+03  0.00000000000E+00 0. -1.
         -1    1    4    4    0  501  0.15675600893E+01  0.32817393667E+02 -0.44108180185E+02  0.54999728462E+02  0.00000000000E+00 0.  1.
          5    1    3    3  502    0  0.50822872924E+00 -0.93105448257E+01  0.10323141628E+01  0.10492864905E+02  0.47000000000E+01 0. -1.
         13    1    6    6    0    0 -0.25011707475E+02 -0.17620069442E+02 -0.39231299111E+02  0.49750851128E+02  0.00000000000E+00 0. -1.
        -14    1    6    6    0    0 -0.45920207129E+00 -0.19367042289E+03 -0.15129503039E+03  0.24576132688E+03  0.00000000000E+00 0.  1.
         -5    1    5    5    0  503  0.32805232998E+02 -0.47149427954E+00 -0.92528539830E+02  0.98285432807E+02  0.47000000000E+01 0.  1.
<mgrwt>
<rscale>  2 0.27383493E+03</rscale>
<asrwt>0</asrwt>
<pdfrwt beam="1">  1       21 0.12017330E-01 0.27385263E+03</pdfrwt>
<pdfrwt beam="2">  1       21 0.17890249E+00 0.27385263E+03</pdfrwt>
<totfact> 0.10248698E+04</totfact>
</mgrwt>
</event>
<event>
12    1  0.2769346E-001  0.1856541E+03  0.7546771E-02  0.1162854E+00
         21   -1    0    0  504  503  0.00000000000E+00  0.00000000000E+00  0.67675239417E+03  0.67675239417E+03  0.00000000000E+00 0. -1.
         21   -1    0    0  502  504 -0.00000000000E+00 -0.00000000000E+00 -0.16504332664E+03  0.16504332664E+03  0.00000000000E+00 0. -1.
          6    2    1    2  502    0 -0.44798409164E+02 -0.51164104188E+02 -0.94492867917E+02  0.20831786434E+03  0.17275059333E+03 0.  0.
         24    2    3    3    0    0 -0.85593194121E+02 -0.45122464252E+02 -0.25660284691E+02  0.12793919549E+03  0.79672805100E+02 0.  0.
         -6    2    1    2    0  503  0.44798409164E+02  0.51164104188E+02  0.60620193545E+03  0.63347785647E+03  0.17084713951E+03 0.  0.
        -24    2    5    5    0    0  0.62605112504E+02  0.39192302727E+02  0.21993988654E+03  0.24659174514E+03  0.83537407045E+02 0.  0.
          2    1    4    4  501    0 -0.57141475658E+02 -0.67051601902E+02 -0.96936283597E+01  0.88628618340E+02  0.00000000000E+00 0. -1.
         -1    1    4    4    0  501 -0.28451718463E+02  0.21929137651E+02 -0.15966656331E+02  0.39310577151E+02  0.00000000000E+00 0.  1.
          5    1    3    3  502    0  0.40794784957E+02 -0.60416399360E+01 -0.68832583226E+02  0.80378668852E+02  0.47000000000E+01 0. -1.
         13    1    6    6    0    0  0.45398315926E+02  0.52898016616E+02  0.21206245156E+03  0.22322564954E+03  0.00000000000E+00 0. -1.
        -14    1    6    6    0    0  0.17206796578E+02 -0.13705713889E+02  0.78774349765E+01  0.23366095598E+02  0.00000000000E+00 0.  1.
         -5    1    5    5    0  503 -0.17806703340E+02  0.11971801461E+02  0.38626204891E+03  0.38688611133E+03  0.47000000000E+01 0.  1.
<mgrwt>
<rscale>  2 0.18521001E+03</rscale>
<asrwt>0</asrwt>
<pdfrwt beam="1">  1       21 0.10411575E+00 0.18565406E+03</pdfrwt>
<pdfrwt beam="2">  1       21 0.25391281E-01 0.18565406E+03</pdfrwt>
<totfact> 0.11016587E+04</totfact>
</mgrwt>
</event>
<event>
12    1  0.2769346E-001  0.1890784E+03  0.7546771E-02  0.1159864E+00
         21   -1    0    0  504  503  0.00000000000E+00  0.00000000000E+00  0.25623135925E+02  0.25623135925E+02  0.00000000000E+00 0.  1.
         21   -1    0    0  502  504 -0.00000000000E+00 -0.00000000000E+00 -0.13818792579E+04  0.13818792579E+04  0.00000000000E+00 0. -1.
          6    2    1    2  502    0  0.44428000786E+02  0.57950171627E+02 -0.71575444044E+03  0.73967528869E+03  0.17170627255E+03 0.  0.
         24    2    3    3    0    0  0.28184525317E+02 -0.56746274737E+01 -0.28030937116E+03  0.29928175567E+03  0.10084471654E+03 0.  0.
         -6    2    1    2    0  503 -0.44428000786E+02 -0.57950171627E+02 -0.64050168149E+03  0.66782710510E+03  0.17440919892E+03 0.  0.
        -24    2    5    5    0    0 -0.24602592963E+02 -0.10678858897E+03 -0.46202379232E+03  0.48166941730E+03  0.80810596944E+02 0.  0.
          2    1    4    4  501    0  0.24701372842E+02 -0.34627942325E+02 -0.26068283977E+03  0.26413026173E+03  0.00000000000E+00 0. -1.
         -1    1    4    4    0  501  0.34831524749E+01  0.28953314852E+02 -0.19626531385E+02  0.35151493941E+02  0.00000000000E+00 0.  1.
          5    1    3    3  502    0  0.16243475469E+02  0.63624799101E+02 -0.43544506929E+03  0.44039353302E+03  0.47000000000E+01 0. -1.
         11    1    6    6    0    0 -0.43044712812E+02 -0.10778322584E+03 -0.36869726572E+03  0.38653298025E+03  0.00000000000E+00 0. -1.
        -12    1    6    6    0    0  0.18442119849E+02  0.99463687026E+00 -0.93326526602E+02  0.95136437051E+02  0.00000000000E+00 0.  1.
         -5    1    5    5    0  503 -0.19825407822E+02  0.48838417341E+02 -0.17847788917E+03  0.18615768780E+03  0.47000000000E+01 0.  1.
<mgrwt>
<rscale>  2 0.18845272E+03</rscale>
<asrwt>0</asrwt>
<pdfrwt beam="1">  1       21 0.39420211E-02 0.18907839E+03</pdfrwt>
<pdfrwt beam="2">  1       21 0.21259680E+00 0.18907839E+03</pdfrwt>
<totfact> 0.44998895E+04</totfact>
</mgrwt>
</event>
<event>
12    1  0.2769346E-001  0.2077366E+03  0.7546771E-02  0.1143400E+00
         21   -1    0    0  504  503  0.00000000000E+00  0.00000000000E+00  0.11376271164E+03  0.11376271164E+03  0.00000000000E+00 0.  1.
         21   -1    0    0  502  504 -0.00000000000E+00 -0.00000000000E+00 -0.73219809808E+03  0.73219809808E+03  0.00000000000E+00 0. -1.
          6    2    1    2  502    0  0.96208853592E+02 -0.63280004248E+02 -0.60290641204E+03  0.63764456508E+03  0.17272506258E+03 0.  0.
         24    2    3    3    0    0  0.61559549962E+02 -0.27780780542E+02 -0.15512430630E+03  0.18709859256E+03  0.79881055167E+02 0.  0.
         -6    2    1    2    0  503 -0.96208853592E+02  0.63280004248E+02 -0.15528974402E+02  0.20831624464E+03  0.17289883253E+03 0.  0.
        -24    2    5    5    0    0 -0.30228802829E+02 -0.29813702172E+01 -0.58677008693E+02  0.10522512132E+03  0.81894234956E+02 0.  0.
          4    1    4    4  501    0  0.22841242199E+02  0.28210201850E+02 -0.60005360877E+02  0.70129745241E+02  0.00000000000E+00 0. -1.
         -3    1    4    4    0  501  0.38718307763E+02 -0.55990982391E+02 -0.95118945424E+02  0.11696884732E+03  0.00000000000E+00 0.  1.
          5    1    3    3  502    0  0.34649303629E+02 -0.35499223707E+02 -0.44778210574E+03  0.45054597251E+03  0.47000000000E+01 0. -1.
         11    1    6    6    0    0  0.10376472103E+01  0.34422856600E+02 -0.89398178757E+01  0.35579911634E+02  0.00000000000E+00 0. -1.
        -12    1    6    6    0    0 -0.31266450040E+02 -0.37404226818E+02 -0.49737190817E+02  0.69645209687E+02  0.00000000000E+00 0.  1.
         -5    1    5    5    0  503 -0.65980050762E+02  0.66261374466E+02  0.43148034291E+02  0.10309112332E+03  0.47000000000E+01 0.  1.
<mgrwt>
<rscale>  2 0.20770047E+03</rscale>
<asrwt>0</asrwt>
<pdfrwt beam="1">  1       21 0.17501955E-01 0.20773663E+03</pdfrwt>
<pdfrwt beam="2">  1       21 0.11264587E+00 0.20773663E+03</pdfrwt>
<totfact> 0.18055052E+04</totfact>
</mgrwt>
</event>
<event>
12    1  0.2769346E-001  0.1920222E+03  0.7546771E-02  0.1157217E+00
         21   -1    0    0  504  503  0.00000000000E+00  0.00000000000E+00  0.94812390536E+03  0.94812390536E+03  0.00000000000E+00 0. -1.
         21   -1    0    0  502  504 -0.00000000000E+00 -0.00000000000E+00 -0.40770674608E+02  0.40770674608E+02  0.00000000000E+00 0. -1.
          6    2    1    2  502    0 -0.79203931863E+02 -0.14088179883E+02  0.33675053288E+03  0.38765119131E+03  0.17435820915E+03 0.  0.
         24    2    3    3    0    0 -0.57477166972E+02  0.25167911871E+00  0.66178878395E+02  0.11578947264E+03  0.75656261892E+02 0.  0.
         -6    2    1    2    0  503  0.79203931863E+02  0.14088179883E+02  0.57060269788E+03  0.60124338866E+03  0.17156466404E+03 0.  0.
        -24    2    5    5    0    0  0.97135818929E+02  0.23115218906E+02  0.26183786732E+03  0.29179088730E+03  0.81321414678E+02 0.  0.
          4    1    4    4  501    0 -0.74459974131E+02 -0.89334061935E+01  0.46605716198E+02  0.88296015063E+02  0.00000000000E+00 0. -1.
         -3    1    4    4    0  501  0.16982807159E+02  0.91850853122E+01  0.19573162197E+02  0.27493457578E+02  0.00000000000E+00 0.  1.
          5    1    3    3  502    0 -0.21726764892E+02 -0.14339859002E+02  0.27057165448E+03  0.27186171867E+03  0.47000000000E+01 0. -1.
         13    1    6    6    0    0  0.84541886717E+02 -0.14099677240E+02  0.20944565692E+03  0.22630425252E+03  0.00000000000E+00 0. -1.
        -14    1    6    6    0    0  0.12593932211E+02  0.37214896147E+02  0.52392210398E+02  0.65486634775E+02  0.00000000000E+00 0.  1.
         -5    1    5    5    0  503 -0.17931887065E+02 -0.90270390230E+01  0.30876483056E+03  0.30945250136E+03  0.47000000000E+01 0.  1.
<mgrwt>
<rscale>  2 0.19138580E+03</rscale>
<asrwt>0</asrwt>
<pdfrwt beam="1">  1       21 0.14586520E+00 0.19202220E+03</pdfrwt>
<pdfrwt beam="2">  1       21 0.62724122E-02 0.19202220E+03</pdfrwt>
<totfact> 0.58793570E+04</totfact>
</mgrwt>
</event>
<event>
12    1  0.2769346E-001  0.1824849E+03  0.7546771E-02  0.1165839E+00
         21   -1    0    0  504  503  0.00000000000E+00  0.00000000000E+00  0.23434789325E+03  0.23434789325E+03  0.00000000000E+00 0. -1.
         21   -1    0    0  502  504 -0.00000000000E+00 -0.00000000000E+00 -0.45352729151E+03  0.45352729151E+03  0.00000000000E+00 0. -1.
          6    2    1    2  502    0 -0.45111612593E+02  0.37414851343E+02 -0.39505479715E+03  0.43443312104E+03  0.17096466070E+03 0.  0.
         24    2    3    3    0    0 -0.16395696156E+01 -0.42484946973E+02 -0.17295830843E+03  0.19438575781E+03  0.77869040540E+02 0.  0.
         -6    2    1    2    0  503  0.45111612593E+02 -0.37414851343E+02  0.17587539889E+03  0.25344206372E+03  0.17281723015E+03 0.  0.
        -24    2    5    5    0    0 -0.35651198006E+02  0.71308701772E+01  0.66847383047E+02  0.11055696611E+03  0.80202324814E+02 0.  0.
          4    1    4    4  501    0  0.33894148410E+02 -0.12774445292E+02 -0.11273286364E+03  0.11840902961E+03  0.00000000000E+00 0. -1.
         -3    1    4    4    0  501 -0.35533718026E+02 -0.29710501681E+02 -0.60225444789E+02  0.75976728193E+02  0.00000000000E+00 0.  1.
          5    1    3    3  502    0 -0.43472042978E+02  0.79899798315E+02 -0.22209648872E+03  0.24004736323E+03  0.47000000000E+01 0. -1.
         13    1    6    6    0    0 -0.49509007487E+02  0.73083231797E+01  0.87190740444E+01  0.50799366751E+02  0.00000000000E+00 0. -1.
        -14    1    6    6    0    0  0.13857809482E+02 -0.17745300249E+00  0.58128309002E+02  0.59757599355E+02  0.00000000000E+00 0.  1.
         -5    1    5    5    0  503  0.80762810599E+02 -0.44545721520E+02  0.10902801585E+03  0.14288509762E+03  0.47000000000E+01 0.  1.
<mgrwt>
<rscale>  2 0.18204491E+03</rscale>
<asrwt>0</asrwt>
<pdfrwt beam="1">  1       21 0.36053523E-01 0.18248486E+03</pdfrwt>
<pdfrwt beam="2">  1       21 0.69773428E-01 0.18248486E+03</pdfrwt>
<totfact> 0.13936209E+04</totfact>
</mgrwt>
</event>
<event>
12    1  0.2769346E-001  0.2308092E+03  0.7546771E-02  0.1126694E+00
         21   -1    0    0  504  503  0.00000000000E+00  0.00000000000E+00  0.10300529655E+03  0.10300529655E+03  0.00000000000E+00 0. -1.
         21   -1    0    0  502  504 -0.00000000000E+00 -0.00000000000E+00 -0.58922137111E+03  0.58922137111E+03  0.00000000000E+00 0.  1.
          6    2    1    2  502    0 -0.12872047057E+03 -0.83418721562E+02 -0.36894186968E+03  0.43333258311E+03  0.16772412387E+03 0.  0.
         24    2    3    3    0    0 -0.26996167774E+02 -0.43283545990E+02 -0.81614790327E+02  0.12586289903E+03  0.81106330972E+02 0.  0.
         -6    2    1    2    0  503  0.12872047057E+03  0.83418721562E+02 -0.11727420488E+03  0.25889408454E+03  0.17246815715E+03 0.  0.
        -24    2    5    5    0    0  0.29058834378E+02  0.96684844052E+02 -0.88160830397E+02  0.15411760670E+03  0.76075815831E+02 0.  0.
          2    1    4    4  501    0  0.24736959810E+02 -0.35835774149E+02 -0.37662228370E+02  0.57572244487E+02  0.00000000000E+00 0. -1.
         -1    1    4    4    0  501 -0.51733127585E+02 -0.74477718402E+01 -0.43952561957E+02  0.68290654541E+02  0.00000000000E+00 0.  1.
          5    1    3    3  502    0 -0.10172430280E+03 -0.40135175573E+02 -0.28732707936E+03  0.30746968408E+03  0.47000000000E+01 0. -1.
         13    1    6    6    0    0  0.31547523119E+02  0.97290846071E+02 -0.46455573899E+02  0.11233376737E+03  0.00000000000E+00 0. -1.
        -14    1    6    6    0    0 -0.24886887409E+01 -0.60600201935E+00 -0.41705256498E+02  0.41783839336E+02  0.00000000000E+00 0.  1.
         -5    1    5    5    0  503  0.99661636197E+02 -0.13266122490E+02 -0.29113374479E+02  0.10477647784E+03  0.47000000000E+01 0.  1.
<mgrwt>
<rscale>  2 0.22992340E+03</rscale>
<asrwt>0</asrwt>
<pdfrwt beam="1">  1       21 0.15846969E-01 0.23080925E+03</pdfrwt>
<pdfrwt beam="2">  1       21 0.90649440E-01 0.23080925E+03</pdfrwt>
<totfact> 0.35949033E+04</totfact>
</mgrwt>
</event>
<event>
12    1  0.2769346E-001  0.2702427E+03  0.7546771E-02  0.1101173E+00
         21   -1    0    0  504  503  0.00000000000E+00  0.00000000000E+00  0.10458361896E+04  0.10458361896E+04  0.00000000000E+00 0.  1.
         21   -1    0    0  502  504 -0.00000000000E+00 -0.00000000000E+00 -0.10435739136E+03  0.10435739136E+03  0.00000000000E+00 0.  1.
          6    2    1    2  502    0 -0.20560782875E+03 -0.23507590346E+02  0.80168410311E+03  0.84593437907E+03  0.17343698127E+03 0.  0.
         24    2    3    3    0    0 -0.14344855593E+03  0.18207799491E+02  0.33746223405E+03  0.37569190687E+03  0.79715979072E+02 0.  0.
         -6    2    1    2    0  503  0.20560782875E+03  0.23507590346E+02  0.13979469512E+03  0.30425920187E+03  0.17379274754E+03 0.  0.
        -24    2    5    5    0    0  0.30959280145E+02 -0.19630483796E+02  0.64890029320E+02  0.10933406771E+03  0.79996184512E+02 0.  0.
          4    1    4    4  501    0 -0.75113105307E+02 -0.30394628489E+02  0.17577300034E+03  0.19355092270E+03  0.00000000000E+00 0. -1.
         -3    1    4    4    0  501 -0.68335450621E+02  0.48602427981E+02  0.16168923371E+03  0.18214098417E+03  0.00000000000E+00 0.  1.
          5    1    3    3  502    0 -0.62159272819E+02 -0.41715389837E+02  0.46422186906E+03  0.47024247220E+03  0.47000000000E+01 0. -1.
         11    1    6    6    0    0 -0.11890543408E+02 -0.95090597199E+01 -0.12895243217E+02  0.19952306557E+02  0.00000000000E+00 0. -1.
        -12    1    6    6    0    0  0.42849823553E+02 -0.10121424076E+02  0.77785272537E+02  0.89381761157E+02  0.00000000000E+00 0.  1.
         -5    1    5    5    0  503  0.17464854860E+03  0.43138074141E+02  0.74904665799E+02  0.19492513416E+03  0.47000000000E+01 0.  1.
<mgrwt>
<rscale>  2 0.27018550E+03</rscale>
<asrwt>0</asrwt>
<pdfrwt beam="1">  1       21 0.16089787E+00 0.27024268E+03</pdfrwt>
<pdfrwt beam="2">  1       21 0.16054984E-01 0.27024268E+03</pdfrwt>
<totfact> 0.81433211E+03</totfact>
</mgrwt>
</event>
<event>
12    1  0.2769346E-001  0.1722838E+03  0.7546771E-02  0.1175601E+00
         21   -1    0    0  504  503  0.00000000000E+00  0.00000000000E+00  0.52789056567E+03  0.52789056567E+03  0.00000000000E+00 0. -1.
         21   -1    0    0  502  504 -0.00000000000E+00 -0.00000000000E+00 -0.75552186773E+02  0.75552186773E+02  0.00000000000E+00 0. -1.
          6    2    1    2  502    0 -0.94996424998E+01  0.26175870353E+01  0.73219024474E+02  0.18719700394E+03  0.17200173770E+03 0.  0.
         24    2    3    3    0    0 -0.35681137357E+02 -0.17486840308E+01 -0.19382280725E+02  0.90752062548E+02  0.81142236793E+02 0.  0.
         -6    2    1    2    0  503  0.94996424998E+01 -0.26175870353E+01  0.37911935442E+03  0.41624574850E+03  0.17155740519E+03 0.  0.
        -24    2    5    5    0    0 -0.84902582744E+01 -0.31163963899E+02  0.37068499986E+03  0.38114930283E+03  0.82608382087E+02 0.  0.
          4    1    4    4  501    0 -0.47093697724E+02  0.27926306409E+02 -0.21652529189E+02  0.58877219493E+02  0.00000000000E+00 0. -1.
         -3    1    4    4    0  501  0.11412560368E+02 -0.29674990439E+02  0.22702484640E+01  0.31874843055E+02  0.00000000000E+00 0.  1.
          5    1    3    3  502    0  0.26181494857E+02  0.43662710661E+01  0.92601305199E+02  0.96444941394E+02  0.47000000000E+01 0. -1.
         13    1    6    6    0    0 -0.53750841798E+01  0.28309351912E+02  0.13671895328E+03  0.13972252189E+03  0.00000000000E+00 0. -1.
        -14    1    6    6    0    0 -0.31151740946E+01 -0.59473315811E+02  0.23396604658E+03  0.24142678094E+03  0.00000000000E+00 0.  1.
         -5    1    5    5    0  503  0.17989900774E+02  0.28546376863E+02  0.84343545577E+01  0.35096445670E+02  0.47000000000E+01 0.  1.
<mgrwt>
<rscale>  2 0.17217275E+03</rscale>
<asrwt>0</asrwt>
<pdfrwt beam="1">  1       21 0.81213931E-01 0.17228376E+03</pdfrwt>
<pdfrwt beam="2">  1       21 0.11623414E-01 0.17228376E+03</pdfrwt>
<totfact> 0.83295851E+04</totfact>
</mgrwt>
</event>
<event>
12    1  0.2769346E-001  0.2268298E+03  0.7546771E-02  0.1129011E+00
         21   -1    0    0  504  503  0.00000000000E+00  0.00000000000E+00  0.30403658595E+03  0.30403658595E+03  0.00000000000E+00 0. -1.
         21   -1    0    0  502  504 -0.00000000000E+00 -0.00000000000E+00 -0.26539719308E+03  0.26539719308E+03  0.00000000000E+00 0. -1.
          6    2    1    2  502    0  0.14528280817E+03  0.99489969541E+01 -0.15253076748E+03  0.27278956512E+03  0.17303882490E+03 0.  0.
         24    2    3    3    0    0  0.56390775414E+02  0.68875256429E+02 -0.82564862304E+02  0.14515173597E+03  0.79550923742E+02 0.  0.
         -6    2    1    2    0  503 -0.14528280817E+03 -0.99489969541E+01  0.19117016034E+03  0.29664421391E+03  0.17391285908E+03 0.  0.
        -24    2    5    5    0    0 -0.71425517742E+02  0.18009670870E+01  0.18972613221E+03  0.22169665744E+03  0.89713737017E+02 0.  0.
          4    1    4    4  501    0  0.60537483052E+02  0.11453820750E+02 -0.46869591044E+02  0.77412760116E+02  0.00000000000E+00 0. -1.
         -3    1    4    4    0  501 -0.41467076380E+01  0.57421435679E+02 -0.35695271260E+02  0.67738975856E+02  0.00000000000E+00 0.  1.
          5    1    3    3  502    0  0.88892032754E+02 -0.58926259475E+02 -0.69965905171E+02  0.12763782915E+03  0.47000000000E+01 0. -1.
         11    1    6    6    0    0 -0.63153607475E+02 -0.25965020745E+02  0.67244723411E+02  0.95835344555E+02  0.00000000000E+00 0. -1.
        -12    1    6    6    0    0 -0.82719102677E+01  0.27765987832E+02  0.12248140880E+03  0.12586131288E+03  0.00000000000E+00 0.  1.
         -5    1    5    5    0  503 -0.73857290426E+02 -0.11749964041E+02  0.14440281308E+01  0.74947556473E+02  0.47000000000E+01 0.  1.
<mgrwt>
<rscale>  2 0.22666226E+03</rscale>
<asrwt>0</asrwt>
<pdfrwt beam="1">  1       21 0.46774859E-01 0.22682980E+03</pdfrwt>
<pdfrwt beam="2">  1       21 0.40830338E-01 0.22682980E+03</pdfrwt>
<totfact> 0.24815021E+04</totfact>
</mgrwt>
</event>
<event>
12    1  0.2769346E-001  0.2529040E+03  0.7546771E-02  0.1111502E+00
         21   -1    0    0  504  503  0.00000000000E+00  0.00000000000E+00  0.29032026977E+02  0.29032026977E+02  0.00000000000E+00 0.  1.
         21   -1    0    0  502  504 -0.00000000000E+00 -0.00000000000E+00 -0.27025398558E+04  0.27025398558E+04  0.00000000000E+00 0.  1.
          6    2    1    2  502    0 -0.56522906617E+02  0.17574610282E+03 -0.19247714109E+04  0.19413153819E+04  0.17285512974E+03 0.  0.
         24    2    3    3    0    0 -0.74591657997E+02  0.86116173264E+02 -0.15142252764E+04  0.15206846381E+04  0.81385932511E+02 0.  0.
         -6    2    1    2    0  503  0.56522906617E+02 -0.17574610282E+03 -0.74873641787E+03  0.79025650089E+03  0.17267768279E+03 0.  0.
        -24    2    5    5    0    0  0.98264734431E+00 -0.17135276426E+03 -0.64437120677E+03  0.67185798270E+03  0.82560047128E+02 0.  0.
          2    1    4    4  501    0 -0.29154263342E+02  0.23068154822E+01 -0.74506795762E+03  0.74564170615E+03  0.00000000000E+00 0. -1.
         -1    1    4    4    0  501 -0.45437394655E+02  0.83809357782E+02 -0.76915731878E+03  0.77504293192E+03  0.00000000000E+00 0.  1.
          5    1    3    3  502    0  0.18068751380E+02  0.89629929554E+02 -0.41054613453E+03  0.42063074379E+03  0.47000000000E+01 0. -1.
         13    1    6    6    0    0  0.17489121908E+02 -0.25196213450E+00 -0.43563350338E+02  0.46943565722E+02  0.00000000000E+00 0. -1.
        -14    1    6    6    0    0 -0.16506474564E+02 -0.17110080213E+03 -0.60080785643E+03  0.62491441697E+03  0.00000000000E+00 0.  1.
         -5    1    5    5    0  503  0.55540259273E+02 -0.43933385541E+01 -0.10436521110E+03  0.11839851820E+03  0.47000000000E+01 0.  1.
<mgrwt>
<rscale>  2 0.25287367E+03</rscale>
<asrwt>0</asrwt>
<pdfrwt beam="1">  1       21 0.44664640E-02 0.25290399E+03</pdfrwt>
<pdfrwt beam="2">  1       21 0.41577552E+00 0.25290399E+03</pdfrwt>
<totfact> 0.20895320E+03</totfact>
</mgrwt>
</event>
<event>
12    1  0.2769346E-001  0.2040149E+03  0.7546771E-02  0.1146695E+00
         21   -1    0    0  504  503  0.00000000000E+00  0.00000000000E+00  0.49588193357E+03  0.49588193357E+03  0.00000000000E+00 0. -1.
         21   -1    0    0  502  504 -0.00000000000E+00 -0.00000000000E+00 -0.84016592036E+02  0.84016592036E+02  0.00000000000E+00 0.  1.
          6    2    1    2  502    0  0.17857277956E+01 -0.10753131912E+03  0.23272033752E+03  0.30948481330E+03  0.17336643491E+03 0.  0.
         24    2    3    3    0    0  0.55634501348E+02 -0.10067652715E+03  0.12187195561E+03  0.18596909625E+03  0.80627354773E+02 0.  0.
         -6    2    1    2    0  503 -0.17857277956E+01  0.10753131912E+03  0.17914500401E+03  0.27041371230E+03  0.17165217716E+03 0.  0.
        -24    2    5    5    0    0 -0.55983449338E+02  0.88726790904E+02  0.16071917364E+03  0.20997693106E+03  0.85164950414E+02 0.  0.
          2    1    4    4  501    0  0.33002425409E+02 -0.86984887902E+02  0.12855355540E+03  0.15868694783E+03  0.00000000000E+00 0. -1.
         -1    1    4    4    0  501  0.22632075939E+02 -0.13691639244E+02 -0.66815997911E+01  0.27282148418E+02  0.00000000000E+00 0.  1.
          5    1    3    3  502    0 -0.53848773552E+02 -0.68547919773E+01  0.11084838191E+03  0.12351571705E+03  0.47000000000E+01 0. -1.
         13    1    6    6    0    0 -0.51458596141E+02  0.93778175733E+02  0.16854344178E+03  0.19962270694E+03  0.00000000000E+00 0. -1.
        -14    1    6    6    0    0 -0.45248531966E+01 -0.50513848294E+01 -0.78242681407E+01  0.10354224118E+02  0.00000000000E+00 0.  1.
         -5    1    5    5    0  503  0.54197721542E+02  0.18804528220E+02  0.18425830373E+02  0.60436781242E+02  0.47000000000E+01 0.  1.
<mgrwt>
<rscale>  2 0.20365028E+03</rscale>
<asrwt>0</asrwt>
<pdfrwt beam="1">  1       21 0.76289527E-01 0.20401494E+03</pdfrwt>
<pdfrwt beam="2">  1       21 0.12925630E-01 0.20401494E+03</pdfrwt>
<totfact> 0.78205726E+04</totfact>
</mgrwt>
</event>
<event>
12    1  0.2769346E-001  0.2009455E+03  0.7546771E-02  0.1149192E+00
         21   -1    0    0  504  503  0.00000000000E+00  0.00000000000E+00  0.68815348345E+03  0.68815348345E+03  0.00000000000E+00 0. -1.
         21   -1    0    0  502  504 -0.00000000000E+00 -0.00000000000E+00 -0.65705556987E+02  0.65705556987E+02  0.00000000000E+00 0. -1.
          6    2    1    2  502    0  0.17407885187E+02  0.10039563096E+03  0.43829715684E+03  0.48216543456E+03  0.17319581810E+03 0.  0.
         24    2    3    3    0    0  0.58524485940E+02  0.33598981683E+02  0.13891946910E+03  0.17264732987E+03  0.77165242129E+02 0.  0.
         -6    2    1    2    0  503 -0.17407885187E+02 -0.10039563096E+03  0.18415076962E+03  0.27169360588E+03  0.17182430660E+03 0.  0.
        -24    2    5    5    0    0 -0.62132575689E+02 -0.17369346265E+02  0.91440646529E+02  0.13936477752E+03  0.83060208424E+02 0.  0.
          4    1    4    4  501    0 -0.14452744261E+02 -0.62204148335E+01  0.82296548132E+01  0.17756761972E+02  0.00000000000E+00 0. -1.
         -3    1    4    4    0  501  0.72977230201E+02  0.39819396517E+02  0.13068981429E+03  0.15489056790E+03  0.00000000000E+00 0.  1.
          5    1    3    3  502    0 -0.41116600753E+02  0.66796649276E+02  0.29937768774E+03  0.30951810469E+03  0.47000000000E+01 0. -1.
         13    1    6    6    0    0 -0.13239121065E+02 -0.40062722040E+02  0.69209572657E+02  0.81057146331E+02  0.00000000000E+00 0. -1.
        -14    1    6    6    0    0 -0.48893454624E+02  0.22693375775E+02  0.22231073872E+02  0.58307631187E+02  0.00000000000E+00 0.  1.
         -5    1    5    5    0  503  0.44724690502E+02 -0.83026284695E+02  0.92710123094E+02  0.13232882836E+03  0.47000000000E+01 0.  1.
<mgrwt>
<rscale>  2 0.20064966E+03</rscale>
<asrwt>0</asrwt>
<pdfrwt beam="1">  1       21 0.10586976E+00 0.20094554E+03</pdfrwt>
<pdfrwt beam="2">  1       21 0.10108548E-01 0.20094554E+03</pdfrwt>
<totfact> 0.56785598E+04</totfact>
</mgrwt>
</event>
<event>
12    1  0.2769346E-001  0.1829221E+03  0.7546771E-02  0.1165049E+00
         21   -1    0    0  504  503  0.00000000000E+00  0.00000000000E+00  0.19450537234E+03  0.19450537234E+03  0.00000000000E+00 0. -1.
         21   -1    0    0  502  504 -0.00000000000E+00 -0.00000000000E+00 -0.24313048530E+03  0.24313048530E+03  0.00000000000E+00 0. -1.
          6    2    1    2  502    0  0.19222869594E+02 -0.56876849603E+02 -0.14278160242E+03  0.23190320107E+03  0.17259204484E+03 0.  0.
         24    2    3    3    0    0  0.27611638143E+02 -0.27112431929E+02 -0.39636352415E+01  0.89604887630E+02  0.80720746755E+02 0.  0.
         -6    2    1    2    0  503 -0.19222869594E+02  0.56876849603E+02  0.94156489455E+02  0.20573265656E+03  0.17278885014E+03 0.  0.
        -24    2    5    5    0    0 -0.10377520246E+02 -0.10791548507E+02  0.10898633761E+03  0.13573789459E+03  0.79514802375E+02 0.  0.
          2    1    4    4  501    0 -0.27553542248E+02 -0.18928860587E+02 -0.51499818784E+01  0.33823390825E+02  0.00000000000E+00 0. -1.
         -1    1    4    4    0  501  0.55165180391E+02 -0.81835713420E+01  0.11863466369E+01  0.55781496805E+02  0.00000000000E+00 0.  1.
          5    1    3    3  502    0 -0.83887685487E+01 -0.29764417673E+02 -0.13881796718E+03  0.14229831344E+03  0.47000000000E+01 0. -1.
         13    1    6    6    0    0 -0.16068240633E+02 -0.42709038800E+02  0.80719606010E+02  0.92724889575E+02  0.00000000000E+00 0. -1.
        -14    1    6    6    0    0  0.56907203870E+01  0.31917490293E+02  0.28266731596E+02  0.43013005013E+02  0.00000000000E+00 0.  1.
         -5    1    5    5    0  503 -0.88453493481E+01  0.67668398109E+02 -0.14829848152E+02  0.69994761975E+02  0.47000000000E+01 0.  1.
<mgrwt>
<rscale>  2 0.18287557E+03</rscale>
<asrwt>0</asrwt>
<pdfrwt beam="1">  1       21 0.29923903E-01 0.18292206E+03</pdfrwt>
<pdfrwt beam="2">  1       21 0.37404690E-01 0.18292206E+03</pdfrwt>
<totfact> 0.74118545E+04</totfact>
</mgrwt>
</event>
<event>
12    1  0.2769346E-001  0.1827844E+03  0.7546771E-02  0.1165393E+00
         21   -1    0    0  504  503  0.00000000000E+00  0.00000000000E+00  0.67755074665E+02  0.67755074665E+02  0.00000000000E+00 0. -1.
         21   -1    0    0  502  504 -0.00000000000E+00 -0.00000000000E+00 -0.59694773929E+03  0.59694773929E+03  0.00000000000E+00 0.  1.
          6    2    1    2  502    0 -0.13284579854E+02  0.54873526474E+02 -0.12468896162E+03  0.22126334723E+03  0.17384633361E+03 0.  0.
         24    2    3    3    0    0  0.42266712788E+02  0.79195404957E+02 -0.92105371033E+02  0.15226131637E+03  0.81496760145E+02 0.  0.
         -6    2    1    2    0  503  0.13284579854E+02 -0.54873526474E+02 -0.40450370300E+03  0.44343946672E+03  0.17270706683E+03 0.  0.
        -24    2    5    5    0    0 -0.56889931795E+02 -0.30869391964E+02 -0.18678129041E+03  0.21338338768E+03  0.80348217098E+02 0.  0.
          4    1    4    4  501    0  0.65951601602E+02  0.47039611418E+02 -0.66639249408E+02  0.10489579762E+03  0.00000000000E+00 0. -1.
         -3    1    4    4    0  501 -0.23684888814E+02  0.32155793539E+02 -0.25466121626E+02  0.47365518755E+02  0.00000000000E+00 0.  1.
          5    1    3    3  502    0 -0.55551292643E+02 -0.24321878483E+02 -0.32583590589E+02  0.69002030861E+02  0.47000000000E+01 0. -1.
         11    1    6    6    0    0 -0.62661088325E+02 -0.54593495452E+01 -0.17262955269E+03  0.18373126830E+03  0.00000000000E+00 0. -1.
        -12    1    6    6    0    0  0.57711565297E+01 -0.25410042419E+02 -0.14151737716E+02  0.29652119381E+02  0.00000000000E+00 0.  1.
         -5    1    5    5    0  503  0.70174511650E+02 -0.24004134510E+02 -0.21772241260E+03  0.23005607904E+03  0.47000000000E+01 0.  1.
<mgrwt>
<rscale>  2 0.18251298E+03</rscale>
<asrwt>0</asrwt>
<pdfrwt beam="1">  1       21 0.10423858E-01 0.18278439E+03</pdfrwt>
<pdfrwt beam="2">  1       21 0.91838112E-01 0.18278439E+03</pdfrwt>
<totfact> 0.75911352E+04</totfact>
</mgrwt>
</event>
<event>
12    1  0.2769346E-001  0.2286598E+03  0.7546771E-02  0.1129270E+00
         21   -1    0    0  504  503  0.00000000000E+00  0.00000000000E+00  0.26813953455E+03  0.26813953455E+03  0.00000000000E+00 0.  1.
         21   -1    0    0  502  504 -0.00000000000E+00 -0.00000000000E+00 -0.24168316992E+03  0.24168316992E+03  0.00000000000E+00 0.  1.
          6    2    1    2  502    0  0.13482220850E+03  0.62436706409E+01 -0.10804663479E+03  0.24453728335E+03  0.17294044157E+03 0.  0.
         24    2    3    3    0    0  0.16585270038E+03 -0.41183192248E+01 -0.10222618425E+03  0.21097793436E+03  0.80854296499E+02 0.  0.
         -6    2    1    2    0  503 -0.13482220850E+03 -0.62436706409E+01  0.13450299943E+03  0.26528542112E+03  0.18457867286E+03 0.  0.
        -24    2    5    5    0    0 -0.34258803174E+02 -0.53073943462E+02  0.11281734753E+03  0.15215527288E+03  0.80205760954E+02 0.  0.
          2    1    4    4  501    0  0.51021112157E+02  0.20499804453E+02 -0.70348200828E+02  0.89287542401E+02  0.00000000000E+00 0. -1.
         -1    1    4    4    0  501  0.11483158822E+03 -0.24618123678E+02 -0.31877983426E+02  0.12169039196E+03  0.00000000000E+00 0.  1.
          5    1    3    3  502    0 -0.31030491877E+02  0.10361989866E+02 -0.58204505329E+01  0.33559348988E+02  0.47000000000E+01 0. -1.
         13    1    6    6    0    0 -0.54854962441E+01 -0.20049369431E+02 -0.90385401266E+01  0.22666342697E+02  0.00000000000E+00 0. -1.
        -14    1    6    6    0    0 -0.28773306930E+02 -0.33024574031E+02  0.12185588766E+03  0.12948893018E+03  0.00000000000E+00 0.  1.
         -5    1    5    5    0  503 -0.10056340533E+03  0.46830272821E+02  0.21685651892E+02  0.11313014825E+03  0.47000000000E+01 0.  1.
<mgrwt>
<rscale>  2 0.22630181E+03</rscale>
<asrwt>0</asrwt>
<pdfrwt beam="1">  1       21 0.41252236E-01 0.22865979E+03</pdfrwt>
<pdfrwt beam="2">  1       21 0.37182026E-01 0.22865979E+03</pdfrwt>
<totfact> 0.38782011E+04</totfact>
</mgrwt>
</event>
<event>
12    1  0.2769346E-001  0.2195467E+03  0.7546771E-02  0.1134582E+00
         21   -1    0    0  504  503  0.00000000000E+00  0.00000000000E+00  0.71608705072E+03  0.71608705072E+03  0.00000000000E+00 0.  1.
         21   -1    0    0  502  504 -0.00000000000E+00 -0.00000000000E+00 -0.13696091626E+03  0.13696091626E+03  0.00000000000E+00 0.  1.
          6    2    1    2  502    0 -0.32384400313E+02 -0.13094913594E+03 -0.15257751262E+02  0.22007621276E+03  0.17321753624E+03 0.  0.
         24    2    3    3    0    0 -0.24715820904E+02 -0.36657219151E+02 -0.66641041057E+02  0.11231673451E+03  0.78863153491E+02 0.  0.
         -6    2    1    2    0  503  0.32384400313E+02  0.13094913594E+03  0.59438388572E+03  0.63297175422E+03  0.17077649851E+03 0.  0.
        -24    2    5    5    0    0 -0.23961085915E+01  0.29457438039E+02  0.13073223205E+03  0.15704613556E+03  0.81847970074E+02 0.  0.
          2    1    4    4  501    0 -0.19692898756E+02  0.20092070124E+02 -0.53515391472E+01  0.28638095511E+02  0.00000000000E+00 0. -1.
         -1    1    4    4    0  501 -0.50229221480E+01 -0.56749289275E+02 -0.61289501910E+02  0.83678638997E+02  0.00000000000E+00 0.  1.
          5    1    3    3  502    0 -0.76685794095E+01 -0.94291916793E+02  0.51383289795E+02  0.10775947825E+03  0.47000000000E+01 0. -1.
         11    1    6    6    0    0 -0.30392027371E+02 -0.10425512910E+02  0.82271327978E+02  0.88322919191E+02  0.00000000000E+00 0. -1.
        -12    1    6    6    0    0  0.27995918779E+02  0.39882950948E+02  0.48460904076E+02  0.68723216372E+02  0.00000000000E+00 0.  1.
         -5    1    5    5    0  503  0.34780508905E+02  0.10149169791E+03  0.46365165367E+03  0.47592561866E+03  0.47000000000E+01 0.  1.
<mgrwt>
<rscale>  2 0.21906490E+03</rscale>
<asrwt>0</asrwt>
<pdfrwt beam="1">  1       21 0.11016724E+00 0.21954667E+03</pdfrwt>
<pdfrwt beam="2">  1       21 0.21070911E-01 0.21954667E+03</pdfrwt>
<totfact> 0.13384109E+04</totfact>
</mgrwt>
</event>
<event>
12    1  0.2769346E-001  0.2122439E+03  0.7546771E-02  0.1140438E+00
         21   -1    0    0  504  503  0.00000000000E+00  0.00000000000E+00  0.42718005692E+02  0.42718005692E+02  0.00000000000E+00 0.  1.
         21   -1    0    0  502  504 -0.00000000000E+00 -0.00000000000E+00 -0.10511569117E+04  0.10511569117E+04  0.00000000000E+00 0. -1.
          6    2    1    2  502    0 -0.66655914449E+02  0.10391993485E+03 -0.44806340722E+03  0.49579056129E+03  0.17264153612E+03 0.  0.
         24    2    3    3    0    0 -0.24418458175E+02  0.12405538604E+02 -0.52180227311E+02  0.87251126768E+02  0.64341468061E+02 0.  0.
         -6    2    1    2    0  503  0.66655914449E+02 -0.10391993485E+03 -0.56037549881E+03  0.59808435612E+03  0.16864706809E+03 0.  0.
        -24    2    5    5    0    0  0.40696330332E+02 -0.24187565281E+02 -0.43799006186E+03  0.44965445367E+03  0.90069993872E+02 0.  0.
          2    1    4    4  501    0 -0.36378948418E+02  0.13790292759E+02 -0.58017617275E+01  0.39335232319E+02  0.00000000000E+00 0. -1.
         -1    1    4    4    0  501  0.11960490244E+02 -0.13847541549E+01 -0.46378465584E+02  0.47915894449E+02  0.00000000000E+00 0.  1.
          5    1    3    3  502    0 -0.42237456274E+02  0.91514396243E+02 -0.39588317990E+03  0.40853943453E+03  0.47000000000E+01 0. -1.
         11    1    6    6    0    0 -0.22309934569E+02  0.14869084128E+02 -0.92855379388E+02  0.96648560903E+02  0.00000000000E+00 0. -1.
        -12    1    6    6    0    0  0.63006264902E+02 -0.39056649409E+02 -0.34513468247E+03  0.35300589277E+03  0.00000000000E+00 0.  1.
         -5    1    5    5    0  503  0.25959584117E+02 -0.79732369567E+02 -0.12238543695E+03  0.14842990245E+03  0.47000000000E+01 0.  1.
<mgrwt>
<rscale>  2 0.21143015E+03</rscale>
<asrwt>0</asrwt>
<pdfrwt beam="1">  1       21 0.65720015E-02 0.21224388E+03</pdfrwt>
<pdfrwt beam="2">  1       21 0.16171643E+00 0.21224388E+03</pdfrwt>
<totfact> 0.40759599E+04</totfact>
</mgrwt>
</event>
<event>
12    1  0.2769346E-001  0.2518068E+03  0.7546771E-02  0.1112194E+00
         21   -1    0    0  504  503  0.00000000000E+00  0.00000000000E+00  0.74702593121E+03  0.74702593121E+03  0.00000000000E+00 0.  1.
         21   -1    0    0  502  504 -0.00000000000E+00 -0.00000000000E+00 -0.10783137138E+03  0.10783137138E+03  0.00000000000E+00 0. -1.
          6    2    1    2  502    0  0.36919868658E+01 -0.18341116669E+03  0.12224062164E+03  0.27990973014E+03  0.17249174072E+03 0.  0.
         24    2    3    3    0    0 -0.15597995923E+02 -0.89465392936E+02 -0.18424434243E+01  0.12301292049E+03  0.82954385061E+02 0.  0.
         -6    2    1    2    0  503 -0.36919868658E+01  0.18341116669E+03  0.51695393819E+03  0.57494757244E+03  0.17224996374E+03 0.  0.
        -24    2    5    5    0    0  0.14537053745E+02  0.20689525190E+03  0.46027598216E+03  0.51077373915E+03  0.77581322885E+02 0.  0.
          2    1    4    4  501    0  0.56246886950E+01 -0.62339871902E+02 -0.37881096434E+02  0.73163339308E+02  0.00000000000E+00 0. -1.
         -1    1    4    4    0  501 -0.21222684618E+02 -0.27125521034E+02  0.36038653009E+02  0.49849581187E+02  0.00000000000E+00 0.  1.
          5    1    3    3  502    0  0.19289982788E+02 -0.93945773755E+02  0.12408306506E+03  0.15689680965E+03  0.47000000000E+01 0. -1.
         13    1    6    6    0    0  0.43467237058E+02  0.15261882262E+03  0.35488945839E+03  0.38875240628E+03  0.00000000000E+00 0. -1.
        -14    1    6    6    0    0 -0.28930183313E+02  0.54276429272E+02  0.10538652377E+03  0.12202133286E+03  0.00000000000E+00 0.  1.
         -5    1    5    5    0  503 -0.18229040611E+02 -0.23484085205E+02  0.56677956033E+02  0.64173833294E+02  0.47000000000E+01 0.  1.
<mgrwt>
<rscale>  2 0.25176545E+03</rscale>
<asrwt>0</asrwt>
<pdfrwt beam="1">  1       21 0.11492706E+00 0.25180685E+03</pdfrwt>
<pdfrwt beam="2">  1       21 0.16589442E-01 0.25180685E+03</pdfrwt>
<totfact> 0.18512646E+04</totfact>
</mgrwt>
</event>
<event>
12    1  0.2769346E-001  0.2494580E+03  0.7546771E-02  0.1113717E+00
         21   -1    0    0  504  503  0.00000000000E+00  0.00000000000E+00  0.42422423473E+03  0.42422423473E+03  0.00000000000E+00 0. -1.
         21   -1    0    0  502  504 -0.00000000000E+00 -0.00000000000E+00 -0.15636122187E+03  0.15636122187E+03  0.00000000000E+00 0. -1.
          6    2    1    2  502    0  0.16363792867E+03 -0.72829912410E+02  0.60894573622E+02  0.25678289514E+03  0.17363104071E+03 0.  0.
         24    2    3    3    0    0  0.17198536560E+03 -0.55452863319E+02  0.46985450403E+00  0.19318353807E+03  0.68305728822E+02 0.  0.
         -6    2    1    2    0  503 -0.16363792867E+03  0.72829912410E+02  0.20696843924E+03  0.32380256146E+03  0.17300461303E+03 0.  0.
        -24    2    5    5    0    0 -0.10681435383E+02  0.46253943792E+02  0.55828818782E+02  0.10708328263E+03  0.78079779931E+02 0.  0.
          2    1    4    4  501    0  0.10705035633E+03 -0.54780920679E+02 -0.26044289605E+02  0.12304077813E+03  0.00000000000E+00 0. -1.
         -1    1    4    4    0  501  0.64935009263E+02 -0.67194264026E+00  0.26514144109E+02  0.70142759945E+02  0.00000000000E+00 0.  1.
          5    1    3    3  502    0 -0.83474369299E+01 -0.17377049091E+02  0.60424719118E+02  0.63599357064E+02  0.47000000000E+01 0. -1.
         11    1    6    6    0    0 -0.44297687794E+02  0.21603405920E+02  0.35259583527E+02  0.60598931688E+02  0.00000000000E+00 0. -1.
        -12    1    6    6    0    0  0.33616252411E+02  0.24650537872E+02  0.20569235256E+02  0.46484350943E+02  0.00000000000E+00 0.  1.
         -5    1    5    5    0  503 -0.15295649328E+03  0.26575968618E+02  0.15113962046E+03  0.21671927883E+03  0.47000000000E+01 0.  1.
<mgrwt>
<rscale>  2 0.24934905E+03</rscale>
<asrwt>0</asrwt>
<pdfrwt beam="1">  1       21 0.65265266E-01 0.24945802E+03</pdfrwt>
<pdfrwt beam="2">  1       21 0.24055573E-01 0.24945802E+03</pdfrwt>
<totfact> 0.34245233E+04</totfact>
</mgrwt>
</event>
<event>
12    1  0.2769346E-001  0.1822485E+03  0.7546771E-02  0.1165663E+00
         21   -1    0    0  504  503  0.00000000000E+00  0.00000000000E+00  0.89136214021E+02  0.89136214021E+02  0.00000000000E+00 0.  1.
         21   -1    0    0  502  504 -0.00000000000E+00 -0.00000000000E+00 -0.38412792143E+03  0.38412792143E+03  0.00000000000E+00 0.  1.
          6    2    1    2  502    0 -0.55086474523E+02 -0.15073810402E+02 -0.18869697126E+03  0.26228284985E+03  0.17298556855E+03 0.  0.
         24    2    3    3    0    0 -0.70155196653E+02  0.17860087591E+02 -0.19706259276E+03  0.22481577568E+03  0.80422218227E+02 0.  0.
         -6    2    1    2    0  503  0.55086474523E+02  0.15073810402E+02 -0.10629473614E+03  0.21098128559E+03  0.17306875080E+03 0.  0.
        -24    2    5    5    0    0 -0.15499072040E+02 -0.10896243273E+02 -0.10858705444E+03  0.13558826341E+03  0.78956186777E+02 0.  0.
          4    1    4    4  501    0 -0.14949575513E+02  0.40992233511E+02 -0.51948583299E+02  0.67841788914E+02  0.00000000000E+00 0. -1.
         -3    1    4    4    0  501 -0.55205621140E+02 -0.23132145921E+02 -0.14511400946E+03  0.15697398677E+03  0.00000000000E+00 0.  1.
          5    1    3    3  502    0  0.15068722131E+02 -0.32933897992E+02  0.83656214988E+01  0.37467074168E+02  0.47000000000E+01 0. -1.
         13    1    6    6    0    0 -0.23498512931E+02 -0.22361263118E+02 -0.71809657795E+01  0.33223071316E+02  0.00000000000E+00 0. -1.
        -14    1    6    6    0    0  0.79994408901E+01  0.11465019844E+02 -0.10140608866E+03  0.10236519209E+03  0.00000000000E+00 0.  1.
         -5    1    5    5    0  503  0.70585546563E+02  0.25970053675E+02  0.22923182957E+01  0.75393022188E+02  0.47000000000E+01 0.  1.
<mgrwt>
<rscale>  2 0.18222879E+03</rscale>
<asrwt>0</asrwt>
<pdfrwt beam="1">  1       21 0.13713264E-01 0.18224854E+03</pdfrwt>
<pdfrwt beam="2">  1       21 0.59096602E-01 0.18224854E+03</pdfrwt>
<totfact> 0.12402217E+05</totfact>
</mgrwt>
</event>
<event>
12    1  0.2769346E-001  0.2648884E+03  0.7546771E-02  0.1104269E+00
         21   -1    0    0  504  503  0.00000000000E+00  0.00000000000E+00  0.24745881727E+03  0.24745881727E+03  0.00000000000E+00 0.  1.
         21   -1    0    0  502  504 -0.00000000000E+00 -0.00000000000E+00 -0.32140128387E+03  0.32140128387E+03  0.00000000000E+00 0. -1.
          6    2    1    2  502    0  0.37151357538E+02  0.19806012909E+03  0.60896021015E+02  0.27179809679E+03  0.17192394230E+03 0.  0.
         24    2    3    3    0    0  0.77491711919E+02  0.11700194557E+03  0.79386982063E+02  0.17926821540E+03  0.78360573310E+02 0.  0.
         -6    2    1    2    0  503 -0.37151357538E+02 -0.19806012909E+03 -0.13483848761E+03  0.29706200436E+03  0.17162860655E+03 0.  0.
        -24    2    5    5    0    0 -0.85757753529E+02 -0.16889932552E+03 -0.88042683304E+02  0.22340827738E+03  0.79236165165E+02 0.  0.
          4    1    4    4  501    0  0.25576784926E+02  0.12351489255E+02  0.52045575119E+02  0.59291425210E+02  0.00000000000E+00 0. -1.
         -3    1    4    4    0  501  0.51914926993E+02  0.10465045631E+03  0.27341406944E+02  0.11997679019E+03  0.00000000000E+00 0.  1.
          5    1    3    3  502    0 -0.40340354381E+02  0.81058183529E+02 -0.18490961049E+02  0.92529881385E+02  0.47000000000E+01 0. -1.
         13    1    6    6    0    0 -0.81532735103E+02 -0.15643309769E+03 -0.50300630974E+02  0.18343678591E+03  0.00000000000E+00 0. -1.
        -14    1    6    6    0    0 -0.42250184264E+01 -0.12466227823E+02 -0.37742052330E+02  0.39971491478E+02  0.00000000000E+00 0.  1.
         -5    1    5    5    0  503  0.48606395991E+02 -0.29160803579E+02 -0.46795804301E+02  0.73653726972E+02  0.47000000000E+01 0.  1.
<mgrwt>
<rscale>  2 0.26484052E+03</rscale>
<asrwt>0</asrwt>
<pdfrwt beam="1">  1       21 0.38070587E-01 0.26488843E+03</pdfrwt>
<pdfrwt beam="2">  1       21 0.49446351E-01 0.26488843E+03</pdfrwt>
<totfact> 0.25020805E+04</totfact>
</mgrwt>
</event>
<event>
12    1  0.2769346E-001  0.2087668E+03  0.7546771E-02  0.1142596E+00
         21   -1    0    0  504  503  0.00000000000E+00  0.00000000000E+00  0.99132684152E+02  0.99132684152E+02  0.00000000000E+00 0. -1.
         21   -1    0    0  502  504 -0.00000000000E+00 -0.00000000000E+00 -0.43915940303E+03  0.43915940303E+03  0.00000000000E+00 0.  1.
          6    2    1    2  502    0 -0.87158967204E+01 -0.11619509638E+03 -0.16779631609E+03  0.26784174566E+03  0.17322335219E+03 0.  0.
         24    2    3    3    0    0  0.47512669816E+02 -0.68184014113E+02 -0.42662017633E+02  0.12242029481E+03  0.79121218773E+02 0.  0.
         -6    2    1    2    0  503  0.87158967204E+01  0.11619509638E+03 -0.17223040278E+03  0.27045034152E+03  0.17292428489E+03 0.  0.
        -24    2    5    5    0    0 -0.46252832630E+02  0.96389153088E+02 -0.63868150860E+02  0.14725008081E+03  0.78570046747E+02 0.  0.
          4    1    4    4  501    0  0.50565042094E+02 -0.67768183932E+02 -0.50736624956E+01  0.84705916479E+02  0.00000000000E+00 0. -1.
         -3    1    4    4    0  501 -0.30523722782E+01 -0.41583018162E+00 -0.37588355138E+02  0.37714378336E+02  0.00000000000E+00 0.  1.
          5    1    3    3  502    0 -0.56228566536E+02 -0.48011082271E+02 -0.12513429846E+03  0.14542145085E+03  0.47000000000E+01 0. -1.
         11    1    6    6    0    0 -0.12396192241E+02  0.80899686947E+01  0.17198597881E+02  0.22691517019E+02  0.00000000000E+00 0. -1.
        -12    1    6    6    0    0 -0.33856640388E+02  0.88299184394E+02 -0.81066748741E+02  0.12455856379E+03  0.00000000000E+00 0.  1.
         -5    1    5    5    0  503  0.54968729350E+02  0.19805943296E+02 -0.10836225192E+03  0.12320026071E+03  0.47000000000E+01 0.  1.
<mgrwt>
<rscale>  2 0.20870480E+03</rscale>
<asrwt>0</asrwt>
<pdfrwt beam="1">  1       21 0.15251182E-01 0.20876685E+03</pdfrwt>
<pdfrwt beam="2">  1       21 0.67562985E-01 0.20876685E+03</pdfrwt>
<totfact> 0.75691304E+04</totfact>
</mgrwt>
</event>
<event>
12    1  0.2769346E-001  0.2013451E+03  0.7546771E-02  0.1149016E+00
         21   -1    0    0  504  503  0.00000000000E+00  0.00000000000E+00  0.18039268827E+04  0.18039268827E+04  0.00000000000E+00 0. -1.
         21   -1    0    0  502  504 -0.00000000000E+00 -0.00000000000E+00 -0.55799302374E+02  0.55799302374E+02  0.00000000000E+00 0. -1.
          6    2    1    2  502    0 -0.93913500473E+02  0.44205210020E+02  0.15481452213E+03  0.25398306365E+03  0.17252829969E+03 0.  0.
         24    2    3    3    0    0 -0.92974900649E+02 -0.28959781729E+02  0.10698884174E+03  0.16644231490E+03  0.82300855547E+02 0.  0.
         -6    2    1    2    0  503  0.93913500473E+02 -0.44205210020E+02  0.15933130582E+04  0.16057431214E+04  0.17026633377E+03 0.  0.
        -24    2    5    5    0    0  0.12573004942E+03 -0.21946335938E+02  0.10247086721E+04  0.10357950640E+04  0.80955944573E+02 0.  0.
          2    1    4    4  501    0 -0.10435834159E+03 -0.29272477372E+02  0.73207686070E+02  0.13079337404E+03  0.00000000000E+00 0. -1.
         -1    1    4    4    0  501  0.11383440946E+02  0.31269564350E+00  0.33781155669E+02  0.35648940863E+02  0.00000000000E+00 0.  1.
          5    1    3    3  502    0 -0.93859982346E+00  0.73164991749E+02  0.47825680391E+02  0.87540748752E+02  0.47000000000E+01 0. -1.
         11    1    6    6    0    0 -0.19673715880E+01 -0.18819903369E+02  0.67536838859E+02  0.70137607008E+02  0.00000000000E+00 0. -1.
        -12    1    6    6    0    0  0.12769742100E+03 -0.31264325694E+01  0.95717183325E+03  0.96565745701E+03  0.00000000000E+00 0.  1.
         -5    1    5    5    0  503 -0.31816548943E+02 -0.22258874081E+02  0.56860438608E+03  0.56994805740E+03  0.47000000000E+01 0.  1.
<mgrwt>
<rscale>  2 0.20085967E+03</rscale>
<asrwt>0</asrwt>
<pdfrwt beam="1">  1       21 0.27752717E+00 0.20134513E+03</pdfrwt>
<pdfrwt beam="2">  1       21 0.85845095E-02 0.20134513E+03</pdfrwt>
<totfact> 0.48337431E+03</totfact>
</mgrwt>
</event>
<event>
12    1  0.2769346E-001  0.2139074E+03  0.7546771E-02  0.1138636E+00
         21   -1    0    0  504  503  0.00000000000E+00  0.00000000000E+00  0.11175372245E+03  0.11175372245E+03  0.00000000000E+00 0. -1.
         21   -1    0    0  502  504 -0.00000000000E+00 -0.00000000000E+00 -0.43370387209E+03  0.43370387209E+03  0.00000000000E+00 0. -1.
          6    2    1    2  502    0 -0.10460399510E+03 -0.78197520712E+02 -0.22690693673E+03  0.31138586279E+03  0.16857505620E+03 0.  0.
         24    2    3    3    0    0  0.10877526216E+02 -0.24029452944E+02 -0.11075356332E+03  0.13880585964E+03  0.79403902281E+02 0.  0.
         -6    2    1    2    0  503  0.10460399510E+03  0.78197520712E+02 -0.95043212913E+02  0.23407173176E+03  0.16940931276E+03 0.  0.
        -24    2    5    5    0    0  0.20463907258E+02  0.38870601798E+01  0.52456329610E+01  0.83467809051E+02  0.80656541865E+02 0.  0.
          4    1    4    4  501    0 -0.18047022606E+02  0.66358717850E+01 -0.89603070543E+02  0.91643003388E+02  0.00000000000E+00 0. -1.
         -3    1    4    4    0  501  0.28924548821E+02 -0.30665324729E+02 -0.21150492776E+02  0.47162856253E+02  0.00000000000E+00 0.  1.
          5    1    3    3  502    0 -0.11548152132E+03 -0.54168067767E+02 -0.11615337341E+03  0.17258000315E+03  0.47000000000E+01 0. -1.
         11    1    6    6    0    0  0.51007282750E+02  0.27291444127E+01 -0.47721988052E+01  0.51302680283E+02  0.00000000000E+00 0. -1.
        -12    1    6    6    0    0 -0.30543375492E+02  0.11579157670E+01  0.10017831766E+02  0.32165128768E+02  0.00000000000E+00 0.  1.
         -5    1    5    5    0  503  0.84140087846E+02  0.74310460532E+02 -0.10028884587E+03  0.15060392270E+03  0.47000000000E+01 0.  1.
<mgrwt>
<rscale>  2 0.21374215E+03</rscale>
<asrwt>0</asrwt>
<pdfrwt beam="1">  1       21 0.17192880E-01 0.21390737E+03</pdfrwt>
<pdfrwt beam="2">  1       21 0.66723674E-01 0.21390737E+03</pdfrwt>
<totfact> 0.62288995E+04</totfact>
</mgrwt>
</event>
<event>
12    1  0.2769346E-001  0.1882227E+03  0.7546771E-02  0.1160216E+00
         21   -1    0    0  504  503  0.00000000000E+00  0.00000000000E+00  0.31865683554E+03  0.31865683554E+03  0.00000000000E+00 0.  1.
         21   -1    0    0  502  504 -0.00000000000E+00 -0.00000000000E+00 -0.11960161469E+03  0.11960161469E+03  0.00000000000E+00 0.  1.
          6    2    1    2  502    0  0.21644395832E+02 -0.68939123357E+02  0.39967939893E+02  0.19181057115E+03  0.17312647512E+03 0.  0.
         24    2    3    3    0    0  0.62482147048E+02  0.53689182100E+01  0.14268528924E+02  0.10308652317E+03  0.80562996220E+02 0.  0.
         -6    2    1    2    0  503 -0.21644395832E+02  0.68939123357E+02  0.15908728096E+03  0.24644787908E+03  0.17380078118E+03 0.  0.
        -24    2    5    5    0    0  0.34148325634E+02  0.92277338561E+02  0.12018520443E+03  0.17438567251E+03  0.79275873105E+02 0.  0.
          2    1    4    4  501    0  0.38858777680E+02  0.42326808971E+02  0.18061256052E+01  0.57487611276E+02  0.00000000000E+00 0. -1.
         -1    1    4    4    0  501  0.23623369368E+02 -0.36957890761E+02  0.12462403318E+02  0.45598911898E+02  0.00000000000E+00 0.  1.
          5    1    3    3  502    0 -0.40837751216E+02 -0.74308041567E+02  0.25699410969E+02  0.88724047981E+02  0.47000000000E+01 0. -1.
         13    1    6    6    0    0 -0.10843227148E+02  0.10907356591E+02 -0.69504282466E+01  0.16877631813E+02  0.00000000000E+00 0. -1.
        -14    1    6    6    0    0  0.44991552783E+02  0.81369981969E+02  0.12713563267E+03  0.15750804069E+03  0.00000000000E+00 0.  1.
         -5    1    5    5    0  503 -0.55792721466E+02 -0.23338215204E+02  0.38902076535E+02  0.72062206573E+02  0.47000000000E+01 0.  1.
<mgrwt>
<rscale>  2 0.18806692E+03</rscale>
<asrwt>0</asrwt>
<pdfrwt beam="1">  1       21 0.49024128E-01 0.18822272E+03</pdfrwt>
<pdfrwt beam="2">  1       21 0.18400249E-01 0.18822272E+03</pdfrwt>
<totfact> 0.10719235E+05</totfact>
</mgrwt>
</event>
<event>
12    1  0.2769346E-001  0.2095949E+03  0.7546771E-02  0.1142225E+00
         21   -1    0    0  504  503  0.00000000000E+00  0.00000000000E+00  0.54601619181E+02  0.54601619181E+02  0.00000000000E+00 0. -1.
         21   -1    0    0  502  504 -0.00000000000E+00 -0.00000000000E+00 -0.11198272775E+04  0.11198272775E+04  0.00000000000E+00 0.  1.
          6    2    1    2  502    0 -0.86038344569E+02 -0.78364651282E+02 -0.84891528124E+03  0.87440676628E+03  0.17431701835E+03 0.  0.
         24    2    3    3    0    0 -0.93416823690E+02 -0.11379124610E+03 -0.60571160605E+03  0.62848075464E+03  0.80164572062E+02 0.  0.
         -6    2    1    2    0  503  0.86038344569E+02  0.78364651282E+02 -0.21631037711E+03  0.30002213044E+03  0.17227734674E+03 0.  0.
        -24    2    5    5    0    0  0.17027755944E+02 -0.22312182986E+02 -0.82638772275E+02  0.11894625065E+03  0.80816247613E+02 0.  0.
          4    1    4    4  501    0 -0.47857724453E+02 -0.74580838810E+02 -0.20566675981E+03  0.22394525983E+03  0.00000000000E+00 0. -1.
         -3    1    4    4    0  501 -0.45559099237E+02 -0.39210407287E+02 -0.40004484624E+03  0.40453549482E+03  0.00000000000E+00 0.  1.
          5    1    3    3  502    0  0.73784791209E+01  0.35426594815E+02 -0.24320367519E+03  0.24592601164E+03  0.47000000000E+01 0. -1.
         13    1    6    6    0    0  0.10889492711E+02  0.30292406920E+02 -0.25763962693E+02  0.41230968241E+02  0.00000000000E+00 0. -1.
        -14    1    6    6    0    0  0.61382632325E+01 -0.52604589906E+02 -0.56874809582E+02  0.77715282408E+02  0.00000000000E+00 0.  1.
         -5    1    5    5    0  503  0.69010588626E+02  0.10067683427E+03 -0.13367160484E+03  0.18107587979E+03  0.47000000000E+01 0.  1.
<mgrwt>
<rscale>  2 0.20917033E+03</rscale>
<asrwt>0</asrwt>
<pdfrwt beam="1">  1       21 0.84002484E-02 0.20959494E+03</pdfrwt>
<pdfrwt beam="2">  1       21 0.17228113E+00 0.20959494E+03</pdfrwt>
<totfact> 0.22405987E+04</totfact>
</mgrwt>
</event>
<event>
12    1  0.2769346E-001  0.2055797E+03  0.7546771E-02  0.1146815E+00
         21   -1    0    0  504  503  0.00000000000E+00  0.00000000000E+00  0.43147210571E+03  0.43147210571E+03  0.00000000000E+00 0. -1.
         21   -1    0    0  502  504 -0.00000000000E+00 -0.00000000000E+00 -0.18945782189E+03  0.18945782189E+03  0.00000000000E+00 0. -1.
          6    2    1    2  502    0 -0.47745738489E+02  0.82761063208E+02 -0.10045543344E+03  0.22149466598E+03  0.17274126266E+03 0.  0.
         24    2    3    3    0    0  0.21266319985E+02  0.17459969342E+02 -0.94730912186E+02  0.12619641197E+03  0.78705030175E+02 0.  0.
         -6    2    1    2    0  503  0.47745738489E+02 -0.82761063208E+02  0.34246971726E+03  0.39943526161E+03  0.18202739314E+03 0.  0.
        -24    2    5    5    0    0  0.90379091717E+01 -0.11014096002E+03  0.31789894446E+03  0.34582772785E+03  0.79525867419E+02 0.  0.
          4    1    4    4  501    0 -0.20482217164E+02  0.24130957156E+02 -0.70947650336E+02  0.77687794417E+02  0.00000000000E+00 0. -1.
         -3    1    4    4    0  501  0.41748537149E+02 -0.66709878134E+01 -0.23783261851E+02  0.48508617551E+02  0.00000000000E+00 0.  1.
          5    1    3    3  502    0 -0.69012058474E+02  0.65301093865E+02 -0.57245212507E+01  0.95298254015E+02  0.47000000000E+01 0. -1.
         13    1    6    6    0    0  0.33149579410E+01 -0.32073988724E+02  0.21036073299E+03  0.21281768649E+03  0.00000000000E+00 0. -1.
        -14    1    6    6    0    0  0.57229512307E+01 -0.78066971292E+02  0.10753821147E+03  0.13301004136E+03  0.00000000000E+00 0.  1.
         -5    1    5    5    0  503  0.38707829318E+02  0.27379896809E+02  0.24570772798E+02  0.53607533758E+02  0.47000000000E+01 0.  1.
<mgrwt>
<rscale>  2 0.20350475E+03</rscale>
<asrwt>0</asrwt>
<pdfrwt beam="1">  1       21 0.66380324E-01 0.20557972E+03</pdfrwt>
<pdfrwt beam="2">  1       21 0.29147357E-01 0.20557972E+03</pdfrwt>
<totfact> 0.23288862E+04</totfact>
</mgrwt>
</event>
<event>
12    1  0.2769346E-001  0.1924640E+03  0.7546771E-02  0.1158965E+00
         21   -1    0    0  504  503  0.00000000000E+00  0.00000000000E+00  0.98027385861E+03  0.98027385861E+03  0.00000000000E+00 0.  1.
         21   -1    0    0  502  504 -0.00000000000E+00 -0.00000000000E+00 -0.17660232388E+03  0.17660232388E+03  0.00000000000E+00 0.  1.
          6    2    1    2  502    0 -0.40166277639E+02  0.71564392038E+02 -0.11769870819E+03  0.21561877381E+03  0.16094619487E+03 0.  0.
         24    2    3    3    0    0 -0.76613423763E+02  0.28033667655E+02 -0.10533758813E+03  0.15732464275E+03  0.83663208894E+02 0.  0.
         -6    2    1    2    0  503  0.40166277639E+02 -0.71564392038E+02  0.92137024291E+03  0.94125740868E+03  0.17409076026E+03 0.  0.
        -24    2    5    5    0    0  0.79727099351E+02 -0.59836660492E+02  0.84145776718E+03  0.85119802783E+03  0.80932517102E+02 0.  0.
          2    1    4    4  501    0 -0.23081663320E+02  0.46105060693E+02 -0.20697144134E+02  0.55559081872E+02  0.00000000000E+00 0. -1.
         -1    1    4    4    0  501 -0.53531760443E+02 -0.18071393038E+02 -0.84640443993E+02  0.10176556088E+03  0.00000000000E+00 0.  1.
          5    1    3    3  502    0  0.36447146125E+02  0.43530724383E+02 -0.12361120060E+02  0.58294131052E+02  0.47000000000E+01 0. -1.
         11    1    6    6    0    0  0.39403329357E+02 -0.73483510227E+02  0.47345597961E+03  0.48074214842E+03  0.00000000000E+00 0. -1.
        -12    1    6    6    0    0  0.40323769994E+02  0.13646849735E+02  0.36800178756E+03  0.37045587940E+03  0.00000000000E+00 0.  1.
         -5    1    5    5    0  503 -0.39560821712E+02 -0.11727731546E+02  0.79912475735E+02  0.90059380855E+02  0.47000000000E+01 0.  1.
<mgrwt>
<rscale>  2 0.18944290E+03</rscale>
<asrwt>0</asrwt>
<pdfrwt beam="1">  1       21 0.15081136E+00 0.19246398E+03</pdfrwt>
<pdfrwt beam="2">  1       21 0.27169589E-01 0.19246398E+03</pdfrwt>
<totfact> 0.38059752E+03</totfact>
</mgrwt>
</event>
<event>
12    1  0.2769346E-001  0.1942887E+03  0.7546771E-02  0.1155443E+00
         21   -1    0    0  504  503  0.00000000000E+00  0.00000000000E+00  0.10526152607E+03  0.10526152607E+03  0.00000000000E+00 0. -1.
         21   -1    0    0  502  504 -0.00000000000E+00 -0.00000000000E+00 -0.45633371466E+03  0.45633371466E+03  0.00000000000E+00 0. -1.
          6    2    1    2  502    0 -0.96385088405E+01  0.79786489364E+02 -0.30852222284E+03  0.36270183183E+03  0.17293892588E+03 0.  0.
         24    2    3    3    0    0 -0.32647675911E+02  0.78221350056E+02 -0.31712449041E+03  0.33764269302E+03  0.79058177211E+02 0.  0.
         -6    2    1    2    0  503  0.96385088405E+01 -0.79786489364E+02 -0.42549965746E+02  0.19889340891E+03  0.17688782826E+03 0.  0.
        -24    2    5    5    0    0  0.47827011491E+02 -0.11048281895E+03 -0.28008092899E+02  0.14756912177E+03  0.80612133830E+02 0.  0.
          4    1    4    4  501    0 -0.41426705958E+01  0.82538392336E+02 -0.18839188570E+03  0.20572129333E+03  0.00000000000E+00 0. -1.
         -3    1    4    4    0  501 -0.28505005315E+02 -0.43170422798E+01 -0.12873260471E+03  0.13192139969E+03  0.00000000000E+00 0.  1.
          5    1    3    3  502    0  0.23009167071E+02  0.15651393073E+01  0.86022675701E+01  0.25059138806E+02  0.47000000000E+01 0. -1.
         13    1    6    6    0    0 -0.13020011067E+02 -0.71317818495E+02 -0.15474616111E+02  0.74129721886E+02  0.00000000000E+00 0. -1.
        -14    1    6    6    0    0  0.60847022558E+02 -0.39165000453E+02 -0.12533476788E+02  0.73439399882E+02  0.00000000000E+00 0.  1.
         -5    1    5    5    0  503 -0.38188502650E+02  0.30696329585E+02 -0.14541872847E+02  0.51324287141E+02  0.47000000000E+01 0.  1.
<mgrwt>
<rscale>  2 0.19338533E+03</rscale>
<asrwt>0</asrwt>
<pdfrwt beam="1">  1       21 0.16194081E-01 0.19428867E+03</pdfrwt>
<pdfrwt beam="2">  1       21 0.70205187E-01 0.19428867E+03</pdfrwt>
<totfact> 0.62745382E+04</totfact>
</mgrwt>
</event>
<event>
12    1  0.2769346E-001  0.1745240E+03  0.7546771E-02  0.1173285E+00
         21   -1    0    0  504  503  0.00000000000E+00  0.00000000000E+00  0.25888498495E+03  0.25888498495E+03  0.00000000000E+00 0.  1.
         21   -1    0    0  502  504 -0.00000000000E+00 -0.00000000000E+00 -0.16784197674E+03  0.16784197674E+03  0.00000000000E+00 0.  1.
          6    2    1    2  502    0 -0.23504482018E+02 -0.54288085338E+01 -0.71357567058E+02  0.18854846889E+03  0.17284874923E+03 0.  0.
         24    2    3    3    0    0  0.91917935813E+01  0.30038279180E+02  0.17008462233E+02  0.87763520209E+02  0.80164583243E+02 0.  0.
         -6    2    1    2    0  503  0.23504482018E+02  0.54288085338E+01  0.16240057527E+03  0.23817849280E+03  0.17254887698E+03 0.  0.
        -24    2    5    5    0    0  0.16153349677E+02  0.68734130038E+02  0.78193048563E+02  0.13246851015E+03  0.80302191745E+02 0.  0.
          2    1    4    4  501    0  0.16303733590E+02 -0.25377096748E+02  0.43186551943E+01  0.30470634241E+02  0.00000000000E+00 0. -1.
         -1    1    4    4    0  501 -0.71119400088E+01  0.55415375928E+02  0.12689807038E+02  0.57292885968E+02  0.00000000000E+00 0.  1.
          5    1    3    3  502    0 -0.32696275599E+02 -0.35467087713E+02 -0.88366029291E+02  0.10078494869E+03  0.47000000000E+01 0. -1.
         13    1    6    6    0    0 -0.22941838015E+00  0.61452975066E+02  0.91444055538E+02  0.11017502471E+03  0.00000000000E+00 0. -1.
        -14    1    6    6    0    0  0.16382768058E+02  0.72811549726E+01 -0.13251006975E+02  0.22293485434E+02  0.00000000000E+00 0.  1.
         -5    1    5    5    0  503  0.73511323404E+01 -0.63305321504E+02  0.84207526711E+02  0.10570998265E+03  0.47000000000E+01 0.  1.
<mgrwt>
<rscale>  2 0.17444969E+03</rscale>
<asrwt>0</asrwt>
<pdfrwt beam="1">  1       21 0.39828459E-01 0.17452399E+03</pdfrwt>
<pdfrwt beam="2">  1       21 0.25821843E-01 0.17452399E+03</pdfrwt>
<totfact> 0.87140301E+04</totfact>
</mgrwt>
</event>
<event>
12    1  0.2769346E-001  0.1977306E+03  0.7546771E-02  0.1153975E+00
         21   -1    0    0  504  503  0.00000000000E+00  0.00000000000E+00  0.48432398570E+03  0.48432398570E+03  0.00000000000E+00 0.  1.
         21   -1    0    0  502  504 -0.00000000000E+00 -0.00000000000E+00 -0.14840675680E+03  0.14840675680E+03  0.00000000000E+00 0. -1.
          6    2    1    2  502    0  0.54417013365E+02 -0.46465336189E+02 -0.54554558651E+02  0.19504865316E+03  0.17305357096E+03 0.  0.
         24    2    3    3    0    0  0.98771246532E+02 -0.59839081948E+02 -0.50223961171E+02  0.14828329045E+03  0.78288013644E+02 0.  0.
         -6    2    1    2    0  503 -0.54417013365E+02  0.46465336189E+02  0.39047178755E+03  0.43768208933E+03  0.18432893326E+03 0.  0.
        -24    2    5    5    0    0 -0.63049507800E+02  0.96901348230E+02  0.24230770201E+03  0.28086054261E+03  0.82489455209E+02 0.  0.
          2    1    4    4  501    0  0.16480955605E+02 -0.46871510272E+02 -0.41097346969E+02  0.64479084211E+02  0.00000000000E+00 0. -1.
         -1    1    4    4    0  501  0.82290290927E+02 -0.12967571676E+02 -0.91266142020E+01  0.83804206236E+02  0.00000000000E+00 0.  1.
          5    1    3    3  502    0 -0.44354233167E+02  0.13373745758E+02 -0.43305974794E+01  0.46765362716E+02  0.47000000000E+01 0. -1.
         11    1    6    6    0    0 -0.59814948589E+02  0.23113719414E+02  0.14624868482E+03  0.15968954228E+03  0.00000000000E+00 0. -1.
        -12    1    6    6    0    0 -0.32345592105E+01  0.73787628815E+02  0.96059017185E+02  0.12117100033E+03  0.00000000000E+00 0.  1.
         -5    1    5    5    0  503  0.86324944348E+01 -0.50436012040E+02  0.14816408554E+03  0.15682154672E+03  0.47000000000E+01 0.  1.
<mgrwt>
<rscale>  2 0.19506033E+03</rscale>
<asrwt>0</asrwt>
<pdfrwt beam="1">  1       21 0.74511382E-01 0.19773061E+03</pdfrwt>
<pdfrwt beam="2">  1       21 0.22831809E-01 0.19773061E+03</pdfrwt>
<totfact> 0.28951108E+04</totfact>
</mgrwt>
</event>
<event>
12    1  0.2769346E-001  0.2251458E+03  0.7546771E-02  0.1130219E+00
         21   -1    0    0  504  503  0.00000000000E+00  0.00000000000E+00  0.71579510169E+03  0.71579510169E+03  0.00000000000E+00 0. -1.
         21   -1    0    0  502  504 -0.00000000000E+00 -0.00000000000E+00 -0.71214800847E+02  0.71214800847E+02  0.00000000000E+00 0. -1.
          6    2    1    2  502    0  0.13276731722E+03 -0.54004711665E+02  0.28581064538E+03  0.36344612078E+03  0.17280534800E+03 0.  0.
         24    2    3    3    0    0  0.13644307287E+03 -0.83458401102E+02  0.27770663363E+03  0.33232063271E+03  0.87943230093E+02 0.  0.
         -6    2    1    2    0  503 -0.13276731722E+03  0.54004711665E+02  0.35876965547E+03  0.42356378176E+03  0.17362874799E+03 0.  0.
        -24    2    5    5    0    0 -0.85938597322E+02  0.45433711450E+02  0.99535386869E+02  0.15995253945E+03  0.78916772572E+02 0.  0.
          4    1    4    4  501    0  0.68502476235E+02  0.47172974125E+01  0.13376099487E+03  0.15035573116E+03  0.00000000000E+00 0. -1.
         -3    1    4    4    0  501  0.67940596635E+02 -0.88175698515E+02  0.14394563876E+03  0.18196490155E+03  0.00000000000E+00 0.  1.
          5    1    3    3  502    0 -0.36757556504E+01  0.29453689437E+02  0.81040117531E+01  0.31125488069E+02  0.47000000000E+01 0. -1.
         11    1    6    6    0    0 -0.37595164839E+02  0.18875952816E+02  0.95845610741E+02  0.10467129077E+03  0.00000000000E+00 0. -1.
        -12    1    6    6    0    0 -0.48343432483E+02  0.26557758634E+02  0.36897761281E+01  0.55281248682E+02  0.00000000000E+00 0.  1.
         -5    1    5    5    0  503 -0.46828719898E+02  0.85710002150E+01  0.25923426860E+03  0.26361124230E+03  0.47000000000E+01 0.  1.
<mgrwt>
<rscale>  2 0.22498699E+03</rscale>
<asrwt>0</asrwt>
<pdfrwt beam="1">  1       21 0.11012232E+00 0.22514576E+03</pdfrwt>
<pdfrwt beam="2">  1       21 0.10956124E-01 0.22514576E+03</pdfrwt>
<totfact> 0.44210644E+04</totfact>
</mgrwt>
</event>
<event>
12    1  0.2769346E-001  0.3355418E+03  0.7546771E-02  0.1068932E+00
         21   -1    0    0  504  503  0.00000000000E+00  0.00000000000E+00  0.78134679725E+03  0.78134679725E+03  0.00000000000E+00 0. -1.
         21   -1    0    0  502  504 -0.00000000000E+00 -0.00000000000E+00 -0.21731236069E+03  0.21731236069E+03  0.00000000000E+00 0. -1.
          6    2    1    2  502    0  0.25951031022E+03  0.12030746703E+03 -0.89731694958E+01  0.33566171238E+03  0.17541031798E+03 0.  0.
         24    2    3    3    0    0  0.10800808236E+03 -0.75380502684E+01 -0.19439133344E+02  0.13709427361E+03  0.81819263590E+02 0.  0.
         -6    2    1    2    0  503 -0.25951031022E+03 -0.12030746703E+03  0.57300760606E+03  0.66299744556E+03  0.17148879989E+03 0.  0.
        -24    2    5    5    0    0 -0.20126512407E+03 -0.15381705666E+03  0.44310451584E+03  0.51666803241E+03  0.80230335091E+02 0.  0.
          2    1    4    4  501    0  0.10524182334E+01 -0.88847120845E+01 -0.28380251223E+02  0.29757089113E+02  0.00000000000E+00 0. -1.
         -1    1    4    4    0  501  0.10695566412E+03  0.13466618161E+01  0.89411178790E+01  0.10733718449E+03  0.00000000000E+00 0.  1.
          5    1    3    3  502    0  0.15150222786E+03  0.12784551730E+03  0.10465963849E+02  0.19856743877E+03  0.47000000000E+01 0. -1.
         13    1    6    6    0    0 -0.11069187126E+03 -0.35107589922E+02  0.18231107867E+03  0.21615402526E+03  0.00000000000E+00 0. -1.
        -14    1    6    6    0    0 -0.90573252809E+02 -0.11870946673E+03  0.26079343718E+03  0.30051400715E+03  0.00000000000E+00 0.  1.
         -5    1    5    5    0  503 -0.58245186153E+02  0.33509589622E+02  0.12990309022E+03  0.14632941315E+03  0.47000000000E+01 0.  1.
<mgrwt>
<rscale>  2 0.33503227E+03</rscale>
<asrwt>0</asrwt>
<pdfrwt beam="1">  1       21 0.12020720E+00 0.33554175E+03</pdfrwt>
<pdfrwt beam="2">  1       21 0.33432671E-01 0.33554175E+03</pdfrwt>
<totfact> 0.41397339E+03</totfact>
</mgrwt>
</event>
<event>
12    1  0.2769346E-001  0.2495136E+03  0.7546771E-02  0.1114052E+00
         21   -1    0    0  504  503  0.00000000000E+00  0.00000000000E+00  0.96963161610E+03  0.96963161610E+03  0.00000000000E+00 0. -1.
         21   -1    0    0  502  504 -0.00000000000E+00 -0.00000000000E+00 -0.13516770336E+03  0.13516770336E+03  0.00000000000E+00 0.  1.
          6    2    1    2  502    0 -0.61830137479E+02  0.16519895558E+03  0.16087249483E+02  0.25003164407E+03  0.17647482147E+03 0.  0.
         24    2    3    3    0    0 -0.10458040796E+03  0.93023692649E+02  0.33288695261E+02  0.16427131558E+03  0.79287191700E+02 0.  0.
         -6    2    1    2    0  503  0.61830137479E+02 -0.16519895558E+03  0.81837666325E+03  0.85476767539E+03  0.17255073197E+03 0.  0.
        -24    2    5    5    0    0  0.18744261719E+02 -0.16650723556E+03  0.75784212840E+03  0.78030544203E+03  0.80472880190E+02 0.  0.
          4    1    4    4  501    0 -0.45745719309E+02  0.14365631414E+02  0.44487314958E+02  0.65407670752E+02  0.00000000000E+00 0. -1.
         -3    1    4    4    0  501 -0.58834688651E+02  0.78658061235E+02 -0.11198619697E+02  0.98863644830E+02  0.00000000000E+00 0.  1.
          5    1    3    3  502    0  0.42750270480E+02  0.72175262935E+02 -0.17201445778E+02  0.85760328490E+02  0.47000000000E+01 0. -1.
         13    1    6    6    0    0 -0.18196297796E+02 -0.12466610851E+03  0.44355262102E+03  0.46109833168E+03  0.00000000000E+00 0. -1.
        -14    1    6    6    0    0  0.36940559514E+02 -0.41841127047E+02  0.31428950738E+03  0.31920711035E+03  0.00000000000E+00 0.  1.
         -5    1    5    5    0  503  0.43085875761E+02  0.13082799743E+01  0.60534534855E+02  0.74462233358E+02  0.47000000000E+01 0.  1.
<mgrwt>
<rscale>  2 0.24882074E+03</rscale>
<asrwt>0</asrwt>
<pdfrwt beam="1">  1       21 0.14917409E+00 0.24951357E+03</pdfrwt>
<pdfrwt beam="2">  1       21 0.20795032E-01 0.24951357E+03</pdfrwt>
<totfact> 0.62422902E+03</totfact>
</mgrwt>
</event>
<event>
12    1  0.2769346E-001  0.1915245E+03  0.7546771E-02  0.1159235E+00
         21   -1    0    0  504  503  0.00000000000E+00  0.00000000000E+00  0.35760763033E+03  0.35760763033E+03  0.00000000000E+00 0. -1.
         21   -1    0    0  502  504 -0.00000000000E+00 -0.00000000000E+00 -0.11050223107E+03  0.11050223107E+03  0.00000000000E+00 0. -1.
          6    2    1    2  502    0 -0.14912883962E+02 -0.55688831819E+02  0.40966946316E+02  0.18672988557E+03  0.17281816853E+03 0.  0.
         24    2    3    3    0    0  0.41163311366E+02 -0.75815991695E+02  0.61934566989E+01  0.11758563181E+03  0.79658892180E+02 0.  0.
         -6    2    1    2    0  503  0.14912883962E+02  0.55688831819E+02  0.20613845295E+03  0.28137997584E+03  0.18264169546E+03 0.  0.
        -24    2    5    5    0    0  0.17973974613E+02 -0.23797513715E+02  0.35568957797E+02  0.93115555195E+02  0.80721561173E+02 0.  0.
          2    1    4    4  501    0  0.49790476037E+02 -0.99586667178E+01  0.62966683370E+01  0.51165560477E+02  0.00000000000E+00 0. -1.
         -1    1    4    4    0  501 -0.86271646713E+01 -0.65857324977E+02 -0.10321163817E+00  0.66420071334E+02  0.00000000000E+00 0.  1.
          5    1    3    3  502    0 -0.56076195327E+02  0.20127159876E+02  0.34773489617E+02  0.69144253754E+02  0.47000000000E+01 0. -1.
         11    1    6    6    0    0 -0.78432180201E+01 -0.46394379352E+02  0.35270930906E+02  0.58804702800E+02  0.00000000000E+00 0. -1.
        -12    1    6    6    0    0  0.25817192633E+02  0.22596865637E+02  0.29802689012E+00  0.34310852396E+02  0.00000000000E+00 0.  1.
         -5    1    5    5    0  503 -0.30610906513E+01  0.79486345534E+02  0.17056949515E+03  0.18826442064E+03  0.47000000000E+01 0.  1.
<mgrwt>
<rscale>  2 0.18914451E+03</rscale>
<asrwt>0</asrwt>
<pdfrwt beam="1">  1       21 0.55016558E-01 0.19152449E+03</pdfrwt>
<pdfrwt beam="2">  1       21 0.17000343E-01 0.19152449E+03</pdfrwt>
<totfact> 0.97289978E+04</totfact>
</mgrwt>
</event>
<event>
12    1  0.2769346E-001  0.1870947E+03  0.7546771E-02  0.1161117E+00
         21   -1    0    0  504  503  0.00000000000E+00  0.00000000000E+00  0.51425742190E+02  0.51425742190E+02  0.00000000000E+00 0. -1.
         21   -1    0    0  502  504 -0.00000000000E+00 -0.00000000000E+00 -0.81561429357E+03  0.81561429357E+03  0.00000000000E+00 0.  1.
          6    2    1    2  502    0 -0.56393044024E+02 -0.44533877465E+02 -0.55848585375E+03  0.58897885588E+03  0.17270264095E+03 0.  0.
         24    2    3    3    0    0 -0.60156835112E+02  0.34888186128E+02 -0.23286022215E+03  0.25375330158E+03  0.73012496602E+02 0.  0.
         -6    2    1    2    0  503  0.56393044024E+02  0.44533877465E+02 -0.20570269763E+03  0.27806117987E+03  0.17274541465E+03 0.  0.
        -24    2    5    5    0    0  0.30050158322E+01  0.28680034134E+02 -0.20523017427E+03  0.22216896950E+03  0.80050309790E+02 0.  0.
          2    1    4    4  501    0 -0.18040376491E+01  0.15674236391E+02 -0.14881164753E+03  0.14964572389E+03  0.00000000000E+00 0. -1.
         -1    1    4    4    0  501 -0.58352797463E+02  0.19213949736E+02 -0.84048574622E+02  0.10410757769E+03  0.00000000000E+00 0.  1.
          5    1    3    3  502    0  0.37637910882E+01 -0.79422063592E+02 -0.32562563159E+03  0.33522555431E+03  0.47000000000E+01 0. -1.
         13    1    6    6    0    0  0.74871206340E+01 -0.15993470205E+02 -0.71294047690E+01  0.19044066713E+02  0.00000000000E+00 0. -1.
        -14    1    6    6    0    0 -0.44821048018E+01  0.44673504340E+02 -0.19810076950E+03  0.20312490278E+03  0.00000000000E+00 0.  1.
         -5    1    5    5    0  503  0.53388028192E+02  0.15853843330E+02 -0.47252336291E+00  0.55892210378E+02  0.47000000000E+01 0.  1.
<mgrwt>
<rscale>  2 0.18708481E+03</rscale>
<asrwt>0</asrwt>
<pdfrwt beam="1">  1       21 0.79116528E-02 0.18709468E+03</pdfrwt>
<pdfrwt beam="2">  1       21 0.12547912E+00 0.18709468E+03</pdfrwt>
<totfact> 0.57967021E+04</totfact>
</mgrwt>
</event>
<event>
12    1  0.2769346E-001  0.1763963E+03  0.7546771E-02  0.1171639E+00
         21   -1    0    0  504  503  0.00000000000E+00  0.00000000000E+00  0.91574546451E+02  0.91574546451E+02  0.00000000000E+00 0. -1.
         21   -1    0    0  502  504 -0.00000000000E+00 -0.00000000000E+00 -0.65407560173E+03  0.65407560173E+03  0.00000000000E+00 0. -1.
          6    2    1    2  502    0  0.21754353118E+02  0.19335875245E+02 -0.54114179898E+03  0.56916613422E+03  0.17397848656E+03 0.  0.
         24    2    3    3    0    0  0.52542489251E+02  0.68821046455E+02 -0.30839858141E+03  0.32919074626E+03  0.75893430550E+02 0.  0.
         -6    2    1    2    0  503 -0.21754353118E+02 -0.19335875245E+02 -0.21359256303E+02  0.17648401397E+03  0.17275202287E+03 0.  0.
        -24    2    5    5    0    0 -0.41574785582E+02  0.44994258708E+02 -0.37625218228E+02  0.10707301200E+03  0.79347506191E+02 0.  0.
          2    1    4    4  501    0  0.10293664448E+02  0.70640633214E+02 -0.16736136266E+03  0.18195022479E+03  0.00000000000E+00 0. -1.
         -1    1    4    4    0  501  0.42248824803E+02 -0.18195867587E+01 -0.14103721874E+03  0.14724052148E+03  0.00000000000E+00 0.  1.
          5    1    3    3  502    0 -0.30788136133E+02 -0.49485171210E+02 -0.23274321757E+03  0.23997538795E+03  0.47000000000E+01 0. -1.
         13    1    6    6    0    0 -0.53646751308E+01  0.20525179177E+01  0.23421765803E+02  0.24115797361E+02  0.00000000000E+00 0. -1.
        -14    1    6    6    0    0 -0.36210110451E+02  0.42941740790E+02 -0.61046984031E+02  0.82957214636E+02  0.00000000000E+00 0.  1.
         -5    1    5    5    0  503  0.19820432463E+02 -0.64330133953E+02  0.16265961925E+02  0.69411001972E+02  0.47000000000E+01 0.  1.
<mgrwt>
<rscale>  2 0.17609310E+03</rscale>
<asrwt>0</asrwt>
<pdfrwt beam="1">  1       21 0.14088392E-01 0.17639626E+03</pdfrwt>
<pdfrwt beam="2">  1       21 0.10062701E+00 0.17639626E+03</pdfrwt>
<totfact> 0.35874828E+04</totfact>
</mgrwt>
</event>
<event>
12    1  0.2769346E-001  0.2254881E+03  0.7546771E-02  0.1129960E+00
         21   -1    0    0  504  503  0.00000000000E+00  0.00000000000E+00  0.21741325745E+03  0.21741325745E+03  0.00000000000E+00 0. -1.
         21   -1    0    0  502  504 -0.00000000000E+00 -0.00000000000E+00 -0.24096107038E+03  0.24096107038E+03  0.00000000000E+00 0.  1.
          6    2    1    2  502    0  0.54743611204E+02 -0.13216159120E+03 -0.52706444339E+02  0.23100877041E+03  0.17356132512E+03 0.  0.
         24    2    3    3    0    0  0.81418220964E+02 -0.34714688448E+02 -0.22572673538E+02  0.12547409458E+03  0.86024336789E+02 0.  0.
         -6    2    1    2    0  503 -0.54743611204E+02  0.13216159120E+03  0.29158631406E+02  0.22736555741E+03  0.17430238597E+03 0.  0.
        -24    2    5    5    0    0  0.17625364162E+02  0.85694064645E+02  0.62154400505E+02  0.13513047516E+03  0.82115465271E+02 0.  0.
          4    1    4    4  501    0  0.57701934676E+02  0.77662286834E+01  0.19244045422E+02  0.61320150502E+02  0.00000000000E+00 0. -1.
         -3    1    4    4    0  501  0.23716286287E+02 -0.42480917131E+02 -0.41816718961E+02  0.64153944074E+02  0.00000000000E+00 0.  1.
          5    1    3    3  502    0 -0.26674609760E+02 -0.97446902753E+02 -0.30133770801E+02  0.10553467584E+03  0.47000000000E+01 0. -1.
         11    1    6    6    0    0 -0.39753463958E+01  0.20455968644E+02  0.63048964186E+02  0.66403478200E+02  0.00000000000E+00 0. -1.
        -12    1    6    6    0    0  0.21600710558E+02  0.65238096001E+02 -0.89456368090E+00  0.68726996956E+02  0.00000000000E+00 0.  1.
         -5    1    5    5    0  503 -0.72368975366E+02  0.46467526556E+02 -0.32995769099E+02  0.92235082253E+02  0.47000000000E+01 0.  1.
<mgrwt>
<rscale>  2 0.22534485E+03</rscale>
<asrwt>0</asrwt>
<pdfrwt beam="1">  1       21 0.33448193E-01 0.22548807E+03</pdfrwt>
<pdfrwt beam="2">  1       21 0.37070934E-01 0.22548807E+03</pdfrwt>
<totfact> 0.59533100E+04</totfact>
</mgrwt>
</event>
<event>
12    1  0.2769346E-001  0.2569680E+03  0.7546771E-02  0.1109090E+00
         21   -1    0    0  504  503  0.00000000000E+00  0.00000000000E+00  0.27611814718E+03  0.27611814718E+03  0.00000000000E+00 0.  1.
         21   -1    0    0  502  504 -0.00000000000E+00 -0.00000000000E+00 -0.24301824825E+03  0.24301824825E+03  0.00000000000E+00 0. -1.
          6    2    1    2  502    0 -0.15434323461E+03  0.10972357302E+03 -0.18997829873E+02  0.25694046364E+03  0.17261630215E+03 0.  0.
         24    2    3    3    0    0 -0.15276729062E+03  0.32337090412E+02 -0.22161346116E+02  0.17933086935E+03  0.85351642867E+02 0.  0.
         -6    2    1    2    0  503  0.15434323461E+03 -0.10972357302E+03  0.52097728803E+02  0.26219593180E+03  0.17369927104E+03 0.  0.
        -24    2    5    5    0    0  0.18485356939E+02 -0.34094288602E+01  0.27793660232E+02  0.87917884064E+02  0.81263362981E+02 0.  0.
          2    1    4    4  501    0 -0.63912481067E+02 -0.27782407178E+02  0.45091511125E+00  0.69691252745E+02  0.00000000000E+00 0. -1.
         -1    1    4    4    0  501 -0.88854809558E+02  0.60119497590E+02 -0.22612261227E+02  0.10963961661E+03  0.00000000000E+00 0.  1.
          5    1    3    3  502    0 -0.15759439844E+01  0.77386482606E+02  0.31635162434E+01  0.77609594282E+02  0.47000000000E+01 0. -1.
         11    1    6    6    0    0  0.88318484011E+01 -0.39386657023E+02 -0.17075352681E+01  0.40400816506E+02  0.00000000000E+00 0. -1.
        -12    1    6    6    0    0  0.96535085379E+01  0.35977228163E+02  0.29501195500E+02  0.47517067558E+02  0.00000000000E+00 0.  1.
         -5    1    5    5    0  503  0.13585787767E+03 -0.10631414416E+03  0.24304068570E+02  0.17427804773E+03  0.47000000000E+01 0.  1.
<mgrwt>
<rscale>  2 0.25678507E+03</rscale>
<asrwt>0</asrwt>
<pdfrwt beam="1">  1       21 0.42479715E-01 0.25696796E+03</pdfrwt>
<pdfrwt beam="2">  1       21 0.37387423E-01 0.25696796E+03</pdfrwt>
<totfact> 0.35681972E+04</totfact>
</mgrwt>
</event>
<event>
12    1  0.2769346E-001  0.2432857E+03  0.7546771E-02  0.1117668E+00
         21   -1    0    0  504  503  0.00000000000E+00  0.00000000000E+00  0.22607332505E+03  0.22607332505E+03  0.00000000000E+00 0.  1.
         21   -1    0    0  502  504 -0.00000000000E+00 -0.00000000000E+00 -0.27970631175E+03  0.27970631175E+03  0.00000000000E+00 0. -1.
          6    2    1    2  502    0 -0.11223011699E+02  0.16899652417E+03 -0.91293502760E+02  0.25959631486E+03  0.17426979620E+03 0.  0.
         24    2    3    3    0    0  0.59294886222E+02  0.86323851930E+02 -0.33709090268E+02  0.13652885683E+03  0.80846366878E+02 0.  0.
         -6    2    1    2    0  503  0.11223011699E+02 -0.16899652417E+03  0.37660516056E+02  0.24618332194E+03  0.17464859679E+03 0.  0.
        -24    2    5    5    0    0  0.94930763197E+01 -0.10062243216E+03 -0.47408834927E+02  0.13692723007E+03  0.79287302601E+02 0.  0.
          4    1    4    4  501    0  0.34312086854E+02  0.94681084504E+02 -0.41701921234E+02  0.10899943716E+03  0.00000000000E+00 0. -1.
         -3    1    4    4    0  501  0.24982799368E+02 -0.83572325741E+01  0.79928309657E+01  0.27529419671E+02  0.00000000000E+00 0.  1.
          5    1    3    3  502    0 -0.70517897921E+02  0.82672672240E+02 -0.57584412492E+02  0.12306745802E+03  0.47000000000E+01 0. -1.
         13    1    6    6    0    0 -0.33230376296E+02 -0.53828446107E+02 -0.12155412088E+02  0.64416718032E+02  0.00000000000E+00 0. -1.
        -14    1    6    6    0    0  0.42723452616E+02 -0.46793986058E+02 -0.35253422839E+02  0.72510512041E+02  0.00000000000E+00 0.  1.
         -5    1    5    5    0  503  0.17299353793E+01 -0.68374092005E+02  0.85069350983E+02  0.10925609187E+03  0.47000000000E+01 0.  1.
<mgrwt>
<rscale>  2 0.24321769E+03</rscale>
<asrwt>0</asrwt>
<pdfrwt beam="1">  1       21 0.34780511E-01 0.24328566E+03</pdfrwt>
<pdfrwt beam="2">  1       21 0.43031740E-01 0.24328566E+03</pdfrwt>
<totfact> 0.40397942E+04</totfact>
</mgrwt>
</event>
<event>
12    1  0.2769346E-001  0.2216427E+03  0.7546771E-02  0.1135786E+00
         21   -1    0    0  504  503  0.00000000000E+00  0.00000000000E+00  0.27108398630E+04  0.27108398630E+04  0.00000000000E+00 0.  1.
         21   -1    0    0  502  504 -0.00000000000E+00 -0.00000000000E+00 -0.49485054397E+02  0.49485054397E+02  0.00000000000E+00 0.  1.
          6    2    1    2  502    0  0.41642680988E+02  0.13235257974E+03  0.22679123953E+03  0.31711158485E+03  0.17284146688E+03 0.  0.
         24    2    3    3    0    0  0.36236126895E+02  0.14741542791E+03  0.24015148465E+03  0.29574089530E+03  0.82131457414E+02 0.  0.
         -6    2    1    2    0  503 -0.41642680988E+02 -0.13235257974E+03  0.24345635691E+04  0.24432133326E+04  0.15146055017E+03 0.  0.
        -24    2    5    5    0    0  0.15739107827E+02 -0.11331237534E+03  0.19498863878E+04  0.19547573375E+04  0.77018888584E+02 0.  0.
          4    1    4    4  501    0 -0.18024114650E+02  0.66519400520E+02  0.13993224020E+03  0.15598311191E+03  0.00000000000E+00 0. -1.
         -3    1    4    4    0  501  0.54260241545E+02  0.80896027392E+02  0.10021924445E+03  0.13975778339E+03  0.00000000000E+00 0.  1.
          5    1    3    3  502    0  0.54065540927E+01 -0.15062848173E+02 -0.13360245113E+02  0.21370689547E+02  0.47000000000E+01 0. -1.
         11    1    6    6    0    0 -0.11865082616E+02 -0.18675867191E+02  0.89532000456E+03  0.89559336686E+03  0.00000000000E+00 0. -1.
        -12    1    6    6    0    0  0.27604190443E+02 -0.94636508149E+02  0.10545663832E+04  0.10591639706E+04  0.00000000000E+00 0.  1.
         -5    1    5    5    0  503 -0.57381788815E+02 -0.19040204399E+02  0.48467718132E+03  0.48845599511E+03  0.47000000000E+01 0.  1.
<mgrwt>
<rscale>  2 0.21746700E+03</rscale>
<asrwt>0</asrwt>
<pdfrwt beam="1">  1       21 0.41705217E+00 0.22164271E+03</pdfrwt>
<pdfrwt beam="2">  1       21 0.76130874E-02 0.22164271E+03</pdfrwt>
<totfact> 0.85288767E+02</totfact>
</mgrwt>
</event>
<event>
12    1  0.2769346E-001  0.2182070E+03  0.7546771E-02  0.1135310E+00
         21   -1    0    0  504  503  0.00000000000E+00  0.00000000000E+00  0.14897592293E+04  0.14897592293E+04  0.00000000000E+00 0.  1.
         21   -1    0    0  502  504 -0.00000000000E+00 -0.00000000000E+00 -0.41592531762E+02  0.41592531762E+02  0.00000000000E+00 0.  1.
          6    2    1    2  502    0 -0.13324904524E+03  0.56955700450E+01  0.35495575139E+03  0.41666276622E+03  0.17270358345E+03 0.  0.
         24    2    3    3    0    0 -0.12153130724E+03 -0.58628529674E+02  0.27550029668E+03  0.31365716214E+03  0.65370014247E+02 0.  0.
         -6    2    1    2    0  503  0.13324904524E+03 -0.56955700450E+01  0.10932109461E+04  0.11146889948E+04  0.17214422691E+03 0.  0.
        -24    2    5    5    0    0 -0.24867289579E+01  0.12552861220E+02  0.35208867038E+03  0.36100370025E+03  0.78698676210E+02 0.  0.
          2    1    4    4  501    0 -0.62456430394E+02 -0.60521259237E+02  0.19743273680E+03  0.21573899526E+03  0.00000000000E+00 0. -1.
         -1    1    4    4    0  501 -0.59074876847E+02  0.18927295627E+01  0.78067559877E+02  0.97918166878E+02  0.00000000000E+00 0.  1.
          5    1    3    3  502    0 -0.11717737996E+02  0.64324099719E+02  0.79455454711E+02  0.10300560408E+03  0.47000000000E+01 0. -1.
         13    1    6    6    0    0 -0.12856849750E+02 -0.25199330723E+02  0.60370293889E+02  0.66669912544E+02  0.00000000000E+00 0. -1.
        -14    1    6    6    0    0  0.10370120792E+02  0.37752191943E+02  0.29171837649E+03  0.29433378770E+03  0.00000000000E+00 0.  1.
         -5    1    5    5    0  503  0.13573577419E+03 -0.18248431265E+02  0.74112227574E+03  0.75368529456E+03  0.47000000000E+01 0.  1.
<mgrwt>
<rscale>  2 0.21809626E+03</rscale>
<asrwt>0</asrwt>
<pdfrwt beam="1">  1       21 0.22919369E+00 0.21820696E+03</pdfrwt>
<pdfrwt beam="2">  1       21 0.63988522E-02 0.21820696E+03</pdfrwt>
<totfact> 0.15291138E+04</totfact>
</mgrwt>
</event>
<event>
12    1  0.2769346E-001  0.2296540E+03  0.7546771E-02  0.1126906E+00
         21   -1    0    0  504  503  0.00000000000E+00  0.00000000000E+00  0.87922946938E+02  0.87922946938E+02  0.00000000000E+00 0.  1.
         21   -1    0    0  502  504 -0.00000000000E+00 -0.00000000000E+00 -0.60748698836E+03  0.60748698836E+03  0.00000000000E+00 0.  1.
          6    2    1    2  502    0 -0.84918744805E+02 -0.12583648628E+03 -0.29966946543E+03  0.37754835436E+03  0.17232224718E+03 0.  0.
         24    2    3    3    0    0 -0.85827703348E+02 -0.10255639068E+03 -0.13311290538E+03  0.20930458255E+03  0.90582309356E+02 0.  0.
         -6    2    1    2    0  503  0.84918744805E+02  0.12583648628E+03 -0.21989457599E+03  0.31786158093E+03  0.17215210015E+03 0.  0.
        -24    2    5    5    0    0  0.47631384352E+02  0.41522541743E+02 -0.19838918541E+03  0.22307888042E+03  0.80081506937E+02 0.  0.
          2    1    4    4  501    0 -0.54136076477E+02 -0.70262396769E+01 -0.20612781840E+02  0.58352117318E+02  0.00000000000E+00 0. -1.
         -1    1    4    4    0  501 -0.31691626871E+02 -0.95530151004E+02 -0.11250012354E+03  0.15095246524E+03  0.00000000000E+00 0.  1.
          5    1    3    3  502    0  0.90895854263E+00 -0.23280095599E+02 -0.16655656005E+03  0.16824377181E+03  0.47000000000E+01 0. -1.
         13    1    6    6    0    0  0.28763047492E+01  0.52255139818E+02 -0.75593123504E+02  0.91941248020E+02  0.00000000000E+00 0. -1.
        -14    1    6    6    0    0  0.44755079603E+02 -0.10732598074E+02 -0.12279606190E+03  0.13113763240E+03  0.00000000000E+00 0.  1.
         -5    1    5    5    0  503  0.37287360453E+02  0.84313944537E+02 -0.21505390582E+02  0.94782700515E+02  0.47000000000E+01 0.  1.
<mgrwt>
<rscale>  2 0.22962211E+03</rscale>
<asrwt>0</asrwt>
<pdfrwt beam="1">  1       21 0.13526608E-01 0.22965403E+03</pdfrwt>
<pdfrwt beam="2">  1       21 0.93459534E-01 0.22965403E+03</pdfrwt>
<totfact> 0.44711153E+04</totfact>
</mgrwt>
</event>
<event>
12    1  0.2769346E-001  0.1974918E+03  0.7546771E-02  0.1151964E+00
         21   -1    0    0  504  503  0.00000000000E+00  0.00000000000E+00  0.70843441034E+02  0.70843441034E+02  0.00000000000E+00 0. -1.
         21   -1    0    0  502  504 -0.00000000000E+00 -0.00000000000E+00 -0.56061340865E+03  0.56061340865E+03  0.00000000000E+00 0. -1.
          6    2    1    2  502    0  0.55999401997E+02  0.79190946511E+02 -0.20042558057E+03  0.28137775961E+03  0.17203456404E+03 0.  0.
         24    2    3    3    0    0  0.11584581637E+02  0.91688779572E+00 -0.16349442982E+03  0.18398420526E+03  0.83574613280E+02 0.  0.
         -6    2    1    2    0  503 -0.55999401997E+02 -0.79190946511E+02 -0.28934438705E+03  0.35007909007E+03  0.17154607532E+03 0.  0.
        -24    2    5    5    0    0 -0.48680513154E+02  0.14073575379E+02 -0.19540729046E+03  0.21742123960E+03  0.80747311896E+02 0.  0.
          4    1    4    4  501    0  0.44664847130E+02 -0.10609864151E+02 -0.11763710230E+03  0.12627749452E+03  0.00000000000E+00 0. -1.
         -3    1    4    4    0  501 -0.33080265493E+02  0.11526751947E+02 -0.45857327528E+02  0.57706710732E+02  0.00000000000E+00 0.  1.
          5    1    3    3  502    0  0.44414820360E+02  0.78274058715E+02 -0.36931150746E+02  0.97393554359E+02  0.47000000000E+01 0. -1.
         13    1    6    6    0    0 -0.49715554597E+01 -0.31592540107E+02 -0.71239922183E+02  0.78089253209E+02  0.00000000000E+00 0. -1.
        -14    1    6    6    0    0 -0.43708957694E+02  0.45666115485E+02 -0.12416736828E+03  0.13933198639E+03  0.00000000000E+00 0.  1.
         -5    1    5    5    0  503 -0.73188888434E+01 -0.93264521890E+02 -0.93937096587E+02  0.13265785047E+03  0.47000000000E+01 0.  1.
<mgrwt>
<rscale>  2 0.19738542E+03</rscale>
<asrwt>0</asrwt>
<pdfrwt beam="1">  1       21 0.10898991E-01 0.19749185E+03</pdfrwt>
<pdfrwt beam="2">  1       21 0.86248220E-01 0.19749185E+03</pdfrwt>
<totfact> 0.80562406E+04</totfact>
</mgrwt>
</event>
<event>
12    1  0.2769346E-001  0.3302934E+03  0.7546771E-02  0.1071253E+00
         21   -1    0    0  504  503  0.00000000000E+00  0.00000000000E+00  0.14532829325E+04  0.14532829325E+04  0.00000000000E+00 0.  1.
         21   -1    0    0  502  504 -0.00000000000E+00 -0.00000000000E+00 -0.10630212149E+03  0.10630212149E+03  0.00000000000E+00 0. -1.
          6    2    1    2  502    0 -0.24956303387E+03  0.12379565143E+03  0.24899443247E+03  0.41363263262E+03  0.17744479755E+03 0.  0.
         24    2    3    3    0    0 -0.21827244896E+03  0.69062776922E+02  0.25272642002E+03  0.35030170820E+03  0.80175521593E+02 0.  0.
         -6    2    1    2    0  503  0.24956303387E+03 -0.12379565143E+03  0.10979863785E+04  0.11459524213E+04  0.17327952382E+03 0.  0.
        -24    2    5    5    0    0  0.19780240703E+03 -0.84788800885E+02  0.58967423511E+03  0.63350337800E+03  0.85416002056E+02 0.  0.
          4    1    4    4  501    0 -0.15662882545E+03  0.48666903248E+02  0.12225372173E+03  0.20456546363E+03  0.00000000000E+00 0. -1.
         -3    1    4    4    0  501 -0.61643623507E+02  0.20395873674E+02  0.13047269830E+03  0.14573624458E+03  0.00000000000E+00 0.  1.
          5    1    3    3  502    0 -0.31290584918E+02  0.54732874511E+02 -0.37319875507E+01  0.63330924420E+02  0.47000000000E+01 0.  1.
         11    1    6    6    0    0  0.27773790438E+02 -0.51066711907E+02  0.15487580876E+03  0.16542584030E+03  0.00000000000E+00 0. -1.
        -12    1    6    6    0    0  0.17002861659E+03 -0.33722088978E+02  0.43479842634E+03  0.46807753770E+03  0.00000000000E+00 0.  1.
         -5    1    5    5    0  503  0.51760626843E+02 -0.39006850549E+02  0.50831214339E+03  0.51244904331E+03  0.47000000000E+01 0.  1.
<mgrwt>
<rscale>  2 0.32973726E+03</rscale>
<asrwt>0</asrwt>
<pdfrwt beam="1">  1       21 0.22358197E+00 0.33029340E+03</pdfrwt>
<pdfrwt beam="2">  1       21 0.16354174E-01 0.33029340E+03</pdfrwt>
<totfact> 0.28737236E+03</totfact>
</mgrwt>
</event>
<event>
12    1  0.2769346E-001  0.1850087E+03  0.7546771E-02  0.1164465E+00
         21   -1    0    0  504  503  0.00000000000E+00  0.00000000000E+00  0.31709286041E+03  0.31709286041E+03  0.00000000000E+00 0.  1.
         21   -1    0    0  502  504 -0.00000000000E+00 -0.00000000000E+00 -0.10496536124E+03  0.10496536124E+03  0.00000000000E+00 0. -1.
          6    2    1    2  502    0 -0.19547401075E+02 -0.40954555991E+02  0.11871212884E+03  0.21480322473E+03  0.17317182010E+03 0.  0.
         24    2    3    3    0    0  0.36427540541E+02  0.91100096925E+01  0.11031168181E+03  0.13909118912E+03  0.75945597379E+02 0.  0.
         -6    2    1    2    0  503  0.19547401075E+02  0.40954555991E+02  0.93415370334E+02  0.20725499692E+03  0.17935669987E+03 0.  0.
        -24    2    5    5    0    0  0.24130717830E+01 -0.12949842591E+02 -0.15834070376E+02  0.84142041781E+02  0.81582130837E+02 0.  0.
          2    1    4    4  501    0  0.41704685914E+02 -0.16837255055E+02  0.10177668210E+03  0.11127114183E+03  0.00000000000E+00 0. -1.
         -1    1    4    4    0  501 -0.52771453734E+01  0.25947264748E+02  0.85349997069E+01  0.27820047289E+02  0.00000000000E+00 0.  1.
          5    1    3    3  502    0 -0.55974941616E+02 -0.50064565684E+02  0.84004470345E+01  0.75712035611E+02  0.47000000000E+01 0. -1.
         11    1    6    6    0    0 -0.31764958691E+02  0.17763940673E+02 -0.34868923794E+01  0.36561299312E+02  0.00000000000E+00 0. -1.
        -12    1    6    6    0    0  0.34178030474E+02 -0.30713783264E+02 -0.12347177997E+02  0.47580742470E+02  0.00000000000E+00 0.  1.
         -5    1    5    5    0  503  0.17134329292E+02  0.53904398582E+02  0.10924944071E+03  0.12311295514E+03  0.47000000000E+01 0.  1.
<mgrwt>
<rscale>  2 0.18349275E+03</rscale>
<asrwt>0</asrwt>
<pdfrwt beam="1">  1       21 0.48783517E-01 0.18500865E+03</pdfrwt>
<pdfrwt beam="2">  1       21 0.16148517E-01 0.18500865E+03</pdfrwt>
<totfact> 0.13785751E+05</totfact>
</mgrwt>
</event>
<event>
12    1  0.2769346E-001  0.2129928E+03  0.7546771E-02  0.1139317E+00
         21   -1    0    0  504  503  0.00000000000E+00  0.00000000000E+00  0.77082770153E+03  0.77082770153E+03  0.00000000000E+00 0. -1.
         21   -1    0    0  502  504 -0.00000000000E+00 -0.00000000000E+00 -0.66705218812E+02  0.66705218812E+02  0.00000000000E+00 0. -1.
          6    2    1    2  502    0  0.41715186632E+02  0.11785668725E+03  0.20674175318E+03  0.29646588963E+03  0.17181244332E+03 0.  0.
         24    2    3    3    0    0  0.90420336762E+02  0.93722644312E+02  0.12324693766E+03  0.19672563750E+03  0.80940703280E+02 0.  0.
         -6    2    1    2    0  503 -0.41715186632E+02 -0.11785668725E+03  0.49738072953E+03  0.54106703071E+03  0.17244009419E+03 0.  0.
        -24    2    5    5    0    0  0.38268027017E+02 -0.76636534985E+02  0.21594012485E+03  0.24555506922E+03  0.79558494918E+02 0.  0.
          2    1    4    4  501    0  0.53397362569E+02  0.85310668574E+02  0.46010969813E+02  0.11066254039E+03  0.00000000000E+00 0. -1.
         -1    1    4    4    0  501  0.37022974193E+02  0.84119757378E+01  0.77235967851E+02  0.86063097108E+02  0.00000000000E+00 0.  1.
          5    1    3    3  502    0 -0.48705150131E+02  0.24134042937E+02  0.83494815520E+02  0.99740252137E+02  0.47000000000E+01 0. -1.
         13    1    6    6    0    0 -0.20945180996E+02 -0.42840886634E+02  0.10530731165E+03  0.11560134974E+03  0.00000000000E+00 0. -1.
        -14    1    6    6    0    0  0.59213208013E+02 -0.33795648350E+02  0.11063281320E+03  0.12995371948E+03  0.00000000000E+00 0.  1.
         -5    1    5    5    0  503 -0.79983213648E+02 -0.41220152264E+02  0.28144060468E+03  0.29551196149E+03  0.47000000000E+01 0.  1.
<mgrwt>
<rscale>  2 0.21286575E+03</rscale>
<asrwt>0</asrwt>
<pdfrwt beam="1">  1       21 0.11858887E+00 0.21299282E+03</pdfrwt>
<pdfrwt beam="2">  1       21 0.10262342E-01 0.21299282E+03</pdfrwt>
<totfact> 0.41689741E+04</totfact>
</mgrwt>
</event>
<event>
12    1  0.2769346E-001  0.2151880E+03  0.7546771E-02  0.1137800E+00
         21   -1    0    0  504  503  0.00000000000E+00  0.00000000000E+00  0.37834394222E+03  0.37834394222E+03  0.00000000000E+00 0.  1.
         21   -1    0    0  502  504 -0.00000000000E+00 -0.00000000000E+00 -0.12178687428E+03  0.12178687428E+03  0.00000000000E+00 0. -1.
          6    2    1    2  502    0 -0.49706049434E+02  0.11778597266E+03  0.11732154977E+03  0.24382554419E+03  0.17129601062E+03 0.  0.
         24    2    3    3    0    0 -0.92245329600E+01  0.45789778128E+02  0.13146388343E+03  0.15989521115E+03  0.78114852051E+02 0.  0.
         -6    2    1    2    0  503  0.49706049434E+02 -0.11778597266E+03  0.13923551817E+03  0.25630527231E+03  0.17309429912E+03 0.  0.
        -24    2    5    5    0    0  0.89256381179E+02 -0.12073188189E+03  0.89367324236E+02  0.19241604091E+03  0.80588617512E+02 0.  0.
          4    1    4    4  501    0 -0.40807634579E+02  0.31973681830E+02  0.52734562130E+02  0.73949397649E+02  0.00000000000E+00 0. -1.
         -3    1    4    4    0  501  0.31583101619E+02  0.13816096297E+02  0.78729321305E+02  0.85945813498E+02  0.00000000000E+00 0.  1.
          5    1    3    3  502    0 -0.40481516474E+02  0.71996194530E+02 -0.14142333668E+02  0.83930333041E+02  0.47000000000E+01 0. -1.
         13    1    6    6    0    0  0.83251728080E+02 -0.11450592162E+03  0.10382927902E+03  0.17556473306E+03  0.00000000000E+00 0. -1.
        -14    1    6    6    0    0  0.60046530989E+01 -0.62259602678E+01 -0.14461954779E+02  0.16851307846E+02  0.00000000000E+00 0.  1.
         -5    1    5    5    0  503 -0.39550331745E+02  0.29459092299E+01  0.49868193935E+02  0.63889231399E+02  0.47000000000E+01 0.  1.
<mgrwt>
<rscale>  2 0.21482610E+03</rscale>
<asrwt>0</asrwt>
<pdfrwt beam="1">  1       21 0.58206760E-01 0.21518797E+03</pdfrwt>
<pdfrwt beam="2">  1       21 0.18736442E-01 0.21518797E+03</pdfrwt>
<totfact> 0.71367298E+04</totfact>
</mgrwt>
</event>
<event>
12    1  0.2769346E-001  0.2004110E+03  0.7546771E-02  0.1150452E+00
         21   -1    0    0  504  503  0.00000000000E+00  0.00000000000E+00  0.44781082059E+03  0.44781082059E+03  0.00000000000E+00 0.  1.
         21   -1    0    0  502  504 -0.00000000000E+00 -0.00000000000E+00 -0.16143946051E+03  0.16143946051E+03  0.00000000000E+00 0. -1.
          6    2    1    2  502    0 -0.78475569230E+02 -0.64616023598E+02 -0.63963008660E+02  0.20564313930E+03  0.16692569841E+03 0.  0.
         24    2    3    3    0    0 -0.37992616429E+02 -0.20164289430E+02 -0.10146375714E+03  0.13462749120E+03  0.77328066711E+02 0.  0.
         -6    2    1    2    0  503  0.78475569230E+02  0.64616023598E+02  0.35033436874E+03  0.40360714180E+03  0.17271626883E+03 0.  0.
        -24    2    5    5    0    0  0.50530324121E+02 -0.14568842884E+02  0.27321144042E+03  0.28949659944E+03  0.79988905946E+02 0.  0.
          2    1    4    4  501    0 -0.54361740530E+02 -0.10899613410E+02 -0.10168382316E+03  0.11581709847E+03  0.00000000000E+00 0. -1.
         -1    1    4    4    0  501  0.16369124100E+02 -0.92646760193E+01  0.22006601409E+00  0.18810392729E+02  0.00000000000E+00 0.  1.
          5    1    3    3  502    0 -0.40482952801E+02 -0.44451734169E+02  0.37500748483E+02  0.71015648098E+02  0.47000000000E+01 0. -1.
         11    1    6    6    0    0  0.69928890305E+02 -0.19014093474E+02  0.17722538764E+03  0.19146911885E+03  0.00000000000E+00 0. -1.
        -12    1    6    6    0    0 -0.19398566184E+02  0.44452505895E+01  0.95986052780E+02  0.98027480591E+02  0.00000000000E+00 0.  1.
         -5    1    5    5    0  503  0.27945245109E+02  0.79184866483E+02  0.77122928328E+02  0.11411054236E+03  0.47000000000E+01 0.  1.
<mgrwt>
<rscale>  2 0.19915717E+03</rscale>
<asrwt>0</asrwt>
<pdfrwt beam="1">  1       21 0.68893972E-01 0.20041097E+03</pdfrwt>
<pdfrwt beam="2">  1       21 0.24836840E-01 0.20041097E+03</pdfrwt>
<totfact> 0.29305206E+04</totfact>
</mgrwt>
</event>
<event>
12    1  0.2769346E-001  0.2824830E+03  0.7546771E-02  0.1094753E+00
         21   -1    0    0  504  503  0.00000000000E+00  0.00000000000E+00  0.26376346219E+03  0.26376346219E+03  0.00000000000E+00 0.  1.
         21   -1    0    0  502  504 -0.00000000000E+00 -0.00000000000E+00 -0.33792592860E+03  0.33792592860E+03  0.00000000000E+00 0. -1.
          6    2    1    2  502    0  0.13796800951E+03 -0.17134308288E+03  0.64825959228E+02  0.28686491641E+03  0.17232368258E+03 0.  0.
         24    2    3    3    0    0  0.16269811991E+03 -0.11020082132E+03  0.38493220785E+02  0.21569288804E+03  0.80167291736E+02 0.  0.
         -6    2    1    2    0  503 -0.13796800951E+03  0.17134308288E+03 -0.13898842564E+03  0.31482447438E+03  0.17720903902E+03 0.  0.
        -24    2    5    5    0    0 -0.14815338740E+03  0.19396332928E+03 -0.12593909776E+03  0.28640278498E+03  0.81207755772E+02 0.  0.
          2    1    4    4  501    0  0.10650028698E+03 -0.56955282688E+02 -0.14842958971E+02  0.12168208079E+03  0.00000000000E+00 0. -1.
         -1    1    4    4    0  501  0.56197832921E+02 -0.53245538631E+02  0.53336179756E+02  0.94010807252E+02  0.00000000000E+00 0.  1.
          5    1    3    3  502    0 -0.24730110393E+02 -0.61142261559E+02  0.26332738443E+02  0.71172028371E+02  0.47000000000E+01 0. -1.
         11    1    6    6    0    0 -0.10116655685E+03  0.71647357879E+02 -0.42450889614E+02  0.13103470588E+03  0.00000000000E+00 0. -1.
        -12    1    6    6    0    0 -0.46986830554E+02  0.12231597140E+03 -0.83488208145E+02  0.15536807911E+03  0.00000000000E+00 0.  1.
         -5    1    5    5    0  503  0.10185377891E+02 -0.22620246404E+02 -0.13049327881E+02  0.28421689399E+02  0.47000000000E+01 0.  1.
<mgrwt>
<rscale>  2 0.28172025E+03</rscale>
<asrwt>0</asrwt>
<pdfrwt beam="1">  1       21 0.40578994E-01 0.28248304E+03</pdfrwt>
<pdfrwt beam="2">  1       21 0.51988604E-01 0.28248304E+03</pdfrwt>
<totfact> 0.19624822E+04</totfact>
</mgrwt>
</event>
<event>
12    1  0.2769346E-001  0.3254420E+03  0.7546771E-02  0.1073793E+00
         21   -1    0    0  504  503  0.00000000000E+00  0.00000000000E+00  0.29061853399E+03  0.29061853399E+03  0.00000000000E+00 0.  1.
         21   -1    0    0  502  504 -0.00000000000E+00 -0.00000000000E+00 -0.45387729232E+03  0.45387729232E+03  0.00000000000E+00 0.  1.
          6    2    1    2  502    0  0.14637864984E+03  0.22526887221E+03  0.88605470751E+02  0.33728838335E+03  0.18368383211E+03 0.  0.
         24    2    3    3    0    0  0.75689284618E+02  0.22915381620E+03  0.60643163975E+02  0.26102528778E+03  0.78843314495E+02 0.  0.
         -6    2    1    2    0  503 -0.14637864984E+03 -0.22526887221E+03 -0.25186422908E+03  0.40720744296E+03  0.17380891172E+03 0.  0.
        -24    2    5    5    0    0 -0.12351501356E+03 -0.21183473220E+03 -0.27121659220E+03  0.37404381920E+03  0.78869680245E+02 0.  0.
          4    1    4    4  501    0 -0.14841325895E+01  0.70041723168E+02  0.45504100579E+02  0.83538427106E+02  0.00000000000E+00 0. -1.
         -3    1    4    4    0  501  0.77173417208E+02  0.15911209303E+03  0.15139063396E+02  0.17748686068E+03  0.00000000000E+00 0.  1.
          5    1    3    3  502    0  0.70689365225E+02 -0.38849439871E+01  0.27962306776E+02  0.76263095570E+02  0.47000000000E+01 0. -1.
         11    1    6    6    0    0 -0.91611247327E+02 -0.79174249396E+02 -0.12351612576E+03  0.17296651620E+03  0.00000000000E+00 0. -1.
        -12    1    6    6    0    0 -0.31903766234E+02 -0.13266048280E+03 -0.14770046643E+03  0.20107730300E+03  0.00000000000E+00 0.  1.
         -5    1    5    5    0  503 -0.22863636283E+02 -0.13434140014E+02  0.19352363119E+02  0.33163623751E+02  0.47000000000E+01 0.  1.
<mgrwt>
<rscale>  2 0.32406592E+03</rscale>
<asrwt>0</asrwt>
<pdfrwt beam="1">  1       21 0.44710544E-01 0.32544204E+03</pdfrwt>
<pdfrwt beam="2">  1       21 0.69827275E-01 0.32544204E+03</pdfrwt>
<totfact> 0.83099371E+03</totfact>
</mgrwt>
</event>
<event>
12    1  0.2769346E-001  0.1758491E+03  0.7546771E-02  0.1172195E+00
         21   -1    0    0  504  503  0.00000000000E+00  0.00000000000E+00  0.44495109489E+02  0.44495109489E+02  0.00000000000E+00 0.  1.
         21   -1    0    0  502  504 -0.00000000000E+00 -0.00000000000E+00 -0.92016780438E+03  0.92016780438E+03  0.00000000000E+00 0.  1.
          6    2    1    2  502    0 -0.11647815084E+02 -0.29434432967E+02 -0.67787394643E+03  0.69999852191E+03  0.17170552111E+03 0.  0.
         24    2    3    3    0    0  0.36142645966E+02 -0.87523288576E+01 -0.18463312369E+03  0.20399421062E+03  0.78366788148E+02 0.  0.
         -6    2    1    2    0  503  0.11647815084E+02  0.29434432967E+02 -0.19779874846E+03  0.26466439197E+03  0.17297640891E+03 0.  0.
        -24    2    5    5    0    0 -0.54605948654E+02  0.29437854083E+01 -0.74852324794E+02  0.12243489886E+03  0.79980987927E+02 0.  0.
          4    1    4    4  501    0  0.29484114789E+02  0.20684167243E+02 -0.16282147008E+03  0.16675724547E+03  0.00000000000E+00 0. -1.
         -3    1    4    4    0  501  0.66585311765E+01 -0.29436496101E+02 -0.21811653618E+02  0.37236965151E+02  0.00000000000E+00 0.  1.
          5    1    3    3  502    0 -0.47790461050E+02 -0.20682104109E+02 -0.49324082274E+03  0.49600431128E+03  0.47000000000E+01 0. -1.
         11    1    6    6    0    0  0.76945937896E+01 -0.21858317474E+02 -0.41525593628E+02  0.47553840461E+02  0.00000000000E+00 0. -1.
        -12    1    6    6    0    0 -0.62300542443E+02  0.24802102882E+02 -0.33326731166E+02  0.74881058395E+02  0.00000000000E+00 0.  1.
         -5    1    5    5    0  503  0.66253763738E+02  0.26490647558E+02 -0.12294642367E+03  0.14222949311E+03  0.47000000000E+01 0.  1.
<mgrwt>
<rscale>  2 0.17553574E+03</rscale>
<asrwt>0</asrwt>
<pdfrwt beam="1">  1       21 0.68454018E-02 0.17584907E+03</pdfrwt>
<pdfrwt beam="2">  1       21 0.14156427E+00 0.17584907E+03</pdfrwt>
<totfact> 0.55159080E+04</totfact>
</mgrwt>
</event>
<event>
12    1  0.2769346E-001  0.2784075E+03  0.7546771E-02  0.1096741E+00
         21   -1    0    0  504  503  0.00000000000E+00  0.00000000000E+00  0.23425385384E+04  0.23425385384E+04  0.00000000000E+00 0. -1.
         21   -1    0    0  502  504 -0.00000000000E+00 -0.00000000000E+00 -0.35053761855E+02  0.35053761855E+02  0.00000000000E+00 0.  1.
          6    2    1    2  502    0 -0.20278727323E+03  0.77158362477E+02  0.85891788174E+03  0.90251373727E+03  0.17238047247E+03 0.  0.
         24    2    3    3    0    0 -0.21186710228E+03  0.52813254120E+02  0.62054452912E+03  0.66268239479E+03  0.79972088228E+02 0.  0.
         -6    2    1    2    0  503  0.20278727323E+03 -0.77158362477E+02  0.14485668948E+04  0.14750785630E+04  0.17445522975E+03 0.  0.
        -24    2    5    5    0    0  0.19528910901E+03 -0.69611855156E+02  0.14462837600E+04  0.14632263504E+04  0.79441749964E+02 0.  0.
          2    1    4    4  501    0 -0.19141002360E+03  0.41753746460E+02  0.60157425655E+03  0.63267112991E+03  0.00000000000E+00 0. -1.
         -1    1    4    4    0  501 -0.20457078685E+02  0.11059507660E+02  0.18970272570E+02  0.30011264875E+02  0.00000000000E+00 0.  1.
          5    1    3    3  502    0  0.90798290468E+01  0.24345108357E+02  0.23837335262E+03  0.23983134248E+03  0.47000000000E+01 0. -1.
         13    1    6    6    0    0  0.98585702340E+02 -0.76126469795E+02  0.86374160018E+03  0.87267630424E+03  0.00000000000E+00 0. -1.
        -14    1    6    6    0    0  0.96703406667E+02  0.65146146384E+01  0.58254215980E+03  0.59055004615E+03  0.00000000000E+00 0.  1.
         -5    1    5    5    0  503  0.74981642272E+01 -0.75465073206E+01  0.22831348640E+01  0.11852212634E+02  0.47000000000E+01 0.  1.
<mgrwt>
<rscale>  2 0.27808306E+03</rscale>
<asrwt>0</asrwt>
<pdfrwt beam="1">  1       21 0.36039042E+00 0.27840747E+03</pdfrwt>
<pdfrwt beam="2">  1       21 0.53928883E-02 0.27840747E+03</pdfrwt>
<totfact> 0.32639637E+03</totfact>
</mgrwt>
</event>
<event>
12    1  0.2769346E-001  0.2113097E+03  0.7546771E-02  0.1140549E+00
         21   -1    0    0  504  503  0.00000000000E+00  0.00000000000E+00  0.27835287539E+02  0.27835287539E+02  0.00000000000E+00 0.  1.
         21   -1    0    0  502  504 -0.00000000000E+00 -0.00000000000E+00 -0.16731492829E+04  0.16731492829E+04  0.00000000000E+00 0.  1.
          6    2    1    2  502    0  0.36099575894E+02 -0.11567734919E+03 -0.64903405582E+03  0.68254189000E+03  0.17301386506E+03 0.  0.
         24    2    3    3    0    0 -0.56277521484E+00 -0.14082807032E+03 -0.56777696077E+03  0.58979765968E+03  0.75217950510E+02 0.  0.
         -6    2    1    2    0  503 -0.36099575894E+02  0.11567734919E+03 -0.99627993959E+03  0.10184426805E+04  0.17311079372E+03 0.  0.
        -24    2    5    5    0    0  0.35407914623E+02  0.22813981889E+02 -0.51347625234E+03  0.52159419593E+03  0.81415264640E+02 0.  0.
          4    1    4    4  501    0 -0.67540747679E+01 -0.68847971111E+02 -0.14222780614E+03  0.15815944326E+03  0.00000000000E+00 0. -1.
         -3    1    4    4    0  501  0.61912995530E+01 -0.71980099209E+02 -0.42554915462E+03  0.43163821642E+03  0.00000000000E+00 0.  1.
          5    1    3    3  502    0  0.36662351109E+02  0.25150721133E+02 -0.81257095052E+02  0.92744230326E+02  0.47000000000E+01 0. -1.
         13    1    6    6    0    0 -0.74063165591E+01  0.11548699874E+01 -0.37437939887E+03  0.37445443188E+03  0.00000000000E+00 0. -1.
        -14    1    6    6    0    0  0.42814231183E+02  0.21659111901E+02 -0.13909685347E+03  0.14713976405E+03  0.00000000000E+00 0.  1.
         -5    1    5    5    0  503 -0.71507490517E+02  0.92863367298E+02 -0.48280368724E+03  0.49684848455E+03  0.47000000000E+01 0.  1.
<mgrwt>
<rscale>  2 0.21128981E+03</rscale>
<asrwt>0</asrwt>
<pdfrwt beam="1">  1       21 0.42823506E-02 0.21130967E+03</pdfrwt>
<pdfrwt beam="2">  1       21 0.25740766E+00 0.21130967E+03</pdfrwt>
<totfact> 0.20689542E+04</totfact>
</mgrwt>
</event>
<event>
12    1  0.2769346E-001  0.2321856E+03  0.7546771E-02  0.1125222E+00
         21   -1    0    0  504  503  0.00000000000E+00  0.00000000000E+00  0.49103813473E+03  0.49103813473E+03  0.00000000000E+00 0.  1.
         21   -1    0    0  502  504 -0.00000000000E+00 -0.00000000000E+00 -0.11381454891E+03  0.11381454891E+03  0.00000000000E+00 0. -1.
          6    2    1    2  502    0  0.93681467925E+02 -0.12296362354E+03  0.24783429512E+03  0.33960561298E+03  0.17324509917E+03 0.  0.
         24    2    3    3    0    0 -0.15726253697E+02 -0.20625532252E+02  0.87845616081E+02  0.12037604860E+03  0.78107702411E+02 0.  0.
         -6    2    1    2    0  503 -0.93681467925E+02  0.12296362354E+03  0.12938929069E+03  0.26524707066E+03  0.17238952927E+03 0.  0.
        -24    2    5    5    0    0  0.14515555561E+02  0.13692653828E+02  0.64928775629E+02  0.98441828790E+02  0.71252071049E+02 0.  0.
          2    1    4    4  501    0 -0.15847235384E+02  0.23460489278E+02  0.84224417996E+01  0.29537551563E+02  0.00000000000E+00 0. -1.
         -1    1    4    4    0  501  0.12098168712E+00 -0.44086021530E+02  0.79423174281E+02  0.90838497036E+02  0.00000000000E+00 0.  1.
          5    1    3    3  502    0  0.10940772162E+03 -0.10233809129E+03  0.15998867904E+03  0.21922956439E+03  0.47000000000E+01 0. -1.
         13    1    6    6    0    0 -0.15991942303E+02 -0.10053885196E+02 -0.40951620643E+01  0.19328558625E+02  0.00000000000E+00 0. -1.
        -14    1    6    6    0    0  0.30507497864E+02  0.23746539024E+02  0.69023937694E+02  0.79113270166E+02  0.00000000000E+00 0.  1.
         -5    1    5    5    0  503 -0.10819702349E+03  0.10927096971E+03  0.64460515062E+02  0.16680524187E+03  0.47000000000E+01 0.  1.
<mgrwt>
<rscale>  2 0.23202598E+03</rscale>
<asrwt>0</asrwt>
<pdfrwt beam="1">  1       21 0.75544327E-01 0.23218556E+03</pdfrwt>
<pdfrwt beam="2">  1       21 0.17509931E-01 0.23218556E+03</pdfrwt>
<totfact> 0.45347416E+04</totfact>
</mgrwt>
</event>
<event>
12    1  0.2769346E-001  0.2001372E+03  0.7546771E-02  0.1149939E+00
         21   -1    0    0  504  503  0.00000000000E+00  0.00000000000E+00  0.46182901413E+02  0.46182901413E+02  0.00000000000E+00 0. -1.
         21   -1    0    0  502  504 -0.00000000000E+00 -0.00000000000E+00 -0.10205113106E+04  0.10205113106E+04  0.00000000000E+00 0.  1.
          6    2    1    2  502    0 -0.94904176246E+02  0.30375317028E+02 -0.69657859070E+03  0.72434958774E+03  0.17184623847E+03 0.  0.
         24    2    3    3    0    0 -0.86119227065E+02  0.11531868450E+02 -0.69223242651E+03  0.70259573682E+03  0.83099529644E+02 0.  0.
         -6    2    1    2    0  503  0.94904176246E+02 -0.30375317028E+02 -0.27774981846E+03  0.34234462425E+03  0.17356675242E+03 0.  0.
        -24    2    5    5    0    0  0.13488336887E+03 -0.16464643482E+02 -0.21587132496E+03  0.26722551457E+03  0.79651986901E+02 0.  0.
          4    1    4    4  501    0  0.10704479139E+02  0.19007009652E+02 -0.17191286324E+03  0.17329132938E+03  0.00000000000E+00 0. -1.
         -3    1    4    4    0  501 -0.96823706204E+02 -0.74751412020E+01 -0.52031956327E+03  0.52930440744E+03  0.00000000000E+00 0.  1.
          5    1    3    3  502    0 -0.87849491805E+01  0.18843448578E+02 -0.43461641907E+01  0.21753850914E+02  0.47000000000E+01 0. -1.
         11    1    6    6    0    0  0.51686311128E+02 -0.43287138910E+01 -0.22830503231E+02  0.56669607372E+02  0.00000000000E+00 0. -1.
        -12    1    6    6    0    0  0.83197057737E+02 -0.12135929591E+02 -0.19304082173E+03  0.21055590720E+03  0.00000000000E+00 0.  1.
         -5    1    5    5    0  503 -0.39979192620E+02 -0.13910673546E+02 -0.61878493502E+02  0.75119109680E+02  0.47000000000E+01 0.  1.
<mgrwt>
<rscale>  2 0.19976355E+03</rscale>
<asrwt>0</asrwt>
<pdfrwt beam="1">  1       21 0.71050623E-02 0.20013715E+03</pdfrwt>
<pdfrwt beam="2">  1       21 0.15700173E+00 0.20013715E+03</pdfrwt>
<totfact> 0.38864152E+04</totfact>
</mgrwt>
</event>
<event>
12    1  0.2769346E-001  0.2430914E+03  0.7546771E-02  0.1117993E+00
         21   -1    0    0  504  503  0.00000000000E+00  0.00000000000E+00  0.60481013358E+03  0.60481013358E+03  0.00000000000E+00 0.  1.
         21   -1    0    0  502  504 -0.00000000000E+00 -0.00000000000E+00 -0.97119378242E+02  0.97119378242E+02  0.00000000000E+00 0. -1.
          6    2    1    2  502    0  0.15815907738E+03 -0.59362936134E+02  0.25578968604E+03  0.35186153367E+03  0.17274236147E+03 0.  0.
         24    2    3    3    0    0  0.13482069428E+03 -0.60939758630E+02  0.27422240945E+03  0.32171154549E+03  0.80063192957E+02 0.  0.
         -6    2    1    2    0  503 -0.15815907738E+03  0.59362936134E+02  0.25190106930E+03  0.35006797816E+03  0.17480042526E+03 0.  0.
        -24    2    5    5    0    0 -0.45073756484E+02 -0.28655097217E+02  0.70566005906E+02  0.11889713394E+03  0.79399050058E+02 0.  0.
          4    1    4    4  501    0  0.10252461567E+03 -0.37362764585E+02  0.11915253162E+03  0.16156917648E+03  0.00000000000E+00 0. -1.
         -3    1    4    4    0  501  0.32296078610E+02 -0.23576994046E+02  0.15506987783E+03  0.16014236901E+03  0.00000000000E+00 0.  1.
          5    1    3    3  502    0  0.23338383098E+02  0.15768224959E+01 -0.18432723412E+02  0.30149988179E+02  0.47000000000E+01 0. -1.
         11    1    6    6    0    0 -0.46505039131E+02 -0.38697876704E+02  0.14891108180E+02  0.62305613141E+02  0.00000000000E+00 0. -1.
        -12    1    6    6    0    0  0.14312826471E+01  0.10042779487E+02  0.55674897727E+02  0.56591520802E+02  0.00000000000E+00 0.  1.
         -5    1    5    5    0  503 -0.11308532090E+03  0.88018033352E+02  0.18133506340E+03  0.23117084422E+03  0.47000000000E+01 0.  1.
<mgrwt>
<rscale>  2 0.24272167E+03</rscale>
<asrwt>0</asrwt>
<pdfrwt beam="1">  1       21 0.93047711E-01 0.24309142E+03</pdfrwt>
<pdfrwt beam="2">  1       21 0.14941443E-01 0.24309142E+03</pdfrwt>
<totfact> 0.37459855E+04</totfact>
</mgrwt>
</event>
<event>
12    1  0.2769346E-001  0.2216962E+03  0.7546771E-02  0.1132739E+00
         21   -1    0    0  504  503  0.00000000000E+00  0.00000000000E+00  0.58845396349E+03  0.58845396349E+03  0.00000000000E+00 0. -1.
         21   -1    0    0  502  504 -0.00000000000E+00 -0.00000000000E+00 -0.87460539860E+02  0.87460539860E+02  0.00000000000E+00 0.  1.
          6    2    1    2  502    0 -0.13834113737E+03 -0.60505419221E+01  0.17703472214E+03  0.28370849511E+03  0.17313098512E+03 0.  0.
         24    2    3    3    0    0 -0.95817777686E+02 -0.60126966530E+02  0.15414247426E+03  0.21105423969E+03  0.89373883748E+02 0.  0.
         -6    2    1    2    0  503  0.13834113737E+03  0.60505419221E+01  0.32395870149E+03  0.39220600824E+03  0.17234103773E+03 0.  0.
        -24    2    5    5    0    0  0.26572195246E+02 -0.46814419553E+02  0.12268294299E+03  0.15594128059E+03  0.79805432472E+02 0.  0.
          4    1    4    4  501    0 -0.26143979339E+01 -0.49434565911E+02  0.42645099614E+02  0.65339237097E+02  0.00000000000E+00 0. -1.
         -3    1    4    4    0  501 -0.93203379752E+02 -0.10692400619E+02  0.11149737465E+03  0.14571500260E+03  0.00000000000E+00 0.  1.
          5    1    3    3  502    0 -0.42523359680E+02  0.54076424608E+02  0.22892247876E+02  0.72654255413E+02  0.47000000000E+01 0. -1.
         11    1    6    6    0    0 -0.16439067452E+02  0.15012286043E+01  0.71707759739E+02  0.73583282292E+02  0.00000000000E+00 0. -1.
        -12    1    6    6    0    0  0.43011262699E+02 -0.48315648157E+02  0.50975183253E+02  0.82357998297E+02  0.00000000000E+00 0.  1.
         -5    1    5    5    0  503  0.11176894212E+03  0.52864961475E+02  0.20127575850E+03  0.23626472765E+03  0.47000000000E+01 0.  1.
<mgrwt>
<rscale>  2 0.22154198E+03</rscale>
<asrwt>0</asrwt>
<pdfrwt beam="1">  1       21 0.90531377E-01 0.22169623E+03</pdfrwt>
<pdfrwt beam="2">  1       21 0.13455468E-01 0.22169623E+03</pdfrwt>
<totfact> 0.48804318E+04</totfact>
</mgrwt>
</event>
<event>
12    1  0.2769346E-001  0.1882545E+03  0.7546771E-02  0.1160697E+00
         21   -1    0    0  504  503  0.00000000000E+00  0.00000000000E+00  0.11446540243E+03  0.11446540243E+03  0.00000000000E+00 0.  1.
         21   -1    0    0  502  504 -0.00000000000E+00 -0.00000000000E+00 -0.42960879918E+03  0.42960879918E+03  0.00000000000E+00 0.  1.
          6    2    1    2  502    0 -0.47008399600E+02  0.55894692451E+02 -0.30324907722E+03  0.35544432969E+03  0.17043081411E+03 0.  0.
         24    2    3    3    0    0 -0.90667220722E+02  0.68089897502E+02 -0.23687431525E+03  0.27493026437E+03  0.81366024760E+02 0.  0.
         -6    2    1    2    0  503  0.47008399600E+02 -0.55894692451E+02 -0.11894319523E+02  0.18862987191E+03  0.17351007885E+03 0.  0.
        -24    2    5    5    0    0  0.73660563104E+02  0.16702368925E+02 -0.12062843646E+02  0.11115220067E+03  0.80650181856E+02 0.  0.
          2    1    4    4  501    0 -0.10160355447E+03  0.75208502459E+02 -0.21762450754E+03  0.25167444726E+03  0.00000000000E+00 0. -1.
         -1    1    4    4    0  501  0.10936333748E+02 -0.71186049572E+01 -0.19249807717E+02  0.23255817111E+02  0.00000000000E+00 0.  1.
          5    1    3    3  502    0  0.43658821122E+02 -0.12195205051E+02 -0.66374761971E+02  0.80514065322E+02  0.47000000000E+01 0. -1.
         11    1    6    6    0    0  0.69423955227E+02 -0.18942786902E+02 -0.19362898451E+02  0.74521383316E+02  0.00000000000E+00 0. -1.
        -12    1    6    6    0    0  0.42366078779E+01  0.35645155826E+02  0.73000548044E+01  0.36630817358E+02  0.00000000000E+00 0.  1.
         -5    1    5    5    0  503 -0.26652163504E+02 -0.72597061376E+02  0.16852412298E+00  0.77477671237E+02  0.47000000000E+01 0.  1.
<mgrwt>
<rscale>  2 0.18754190E+03</rscale>
<asrwt>0</asrwt>
<pdfrwt beam="1">  1       21 0.17610062E-01 0.18825449E+03</pdfrwt>
<pdfrwt beam="2">  1       21 0.66093660E-01 0.18825449E+03</pdfrwt>
<totfact> 0.61562845E+04</totfact>
</mgrwt>
</event>
<event>
12    1  0.2769346E-001  0.2147137E+03  0.7546771E-02  0.1138033E+00
         21   -1    0    0  504  503  0.00000000000E+00  0.00000000000E+00  0.31454041565E+02  0.31454041565E+02  0.00000000000E+00 0. -1.
         21   -1    0    0  502  504 -0.00000000000E+00 -0.00000000000E+00 -0.17426384263E+04  0.17426384263E+04  0.00000000000E+00 0.  1.
          6    2    1    2  502    0 -0.94186179212E+02 -0.84940276940E+02 -0.12137633147E+04  0.12326083547E+04  0.17325150826E+03 0.  0.
         24    2    3    3    0    0 -0.77403535465E+02 -0.89365600009E+01 -0.97681207266E+03  0.98315654935E+03  0.79773465641E+02 0.  0.
         -6    2    1    2    0  503  0.94186179212E+02  0.84940276940E+02 -0.49742107009E+03  0.54148411315E+03  0.17231203333E+03 0.  0.
        -24    2    5    5    0    0  0.84157677094E+02  0.11799021510E+03 -0.46662863452E+03  0.49497461568E+03  0.79078329130E+02 0.  0.
          2    1    4    4  501    0 -0.58970676341E+02 -0.35538415474E+02 -0.82841778461E+03  0.83127404958E+03  0.00000000000E+00 0. -1.
         -1    1    4    4    0  501 -0.18432859124E+02  0.26601855473E+02 -0.14839428805E+03  0.15188249977E+03  0.00000000000E+00 0.  1.
          5    1    3    3  502    0 -0.16782643747E+02 -0.76003716939E+02 -0.23695124199E+03  0.24945180537E+03  0.47000000000E+01 0. -1.
         13    1    6    6    0    0  0.76645215874E+01  0.44448369608E+02 -0.24665657624E+03  0.25074662322E+03  0.00000000000E+00 0. -1.
        -14    1    6    6    0    0  0.76493155507E+02  0.73541845494E+02 -0.21997205828E+03  0.24422799247E+03  0.00000000000E+00 0.  1.
         -5    1    5    5    0  503  0.10028502118E+02 -0.33049938162E+02 -0.30792435563E+02  0.46509497473E+02  0.47000000000E+01 0.  1.
<mgrwt>
<rscale>  2 0.21452411E+03</rscale>
<asrwt>0</asrwt>
<pdfrwt beam="1">  1       21 0.48390809E-02 0.21471370E+03</pdfrwt>
<pdfrwt beam="2">  1       21 0.26809835E+00 0.21471370E+03</pdfrwt>
<totfact> 0.14526843E+04</totfact>
</mgrwt>
</event>
<event>
12    1  0.2769346E-001  0.1993941E+03  0.7546771E-02  0.1150430E+00
         21   -1    0    0  504  503  0.00000000000E+00  0.00000000000E+00  0.25475408501E+03  0.25475408501E+03  0.00000000000E+00 0.  1.
         21   -1    0    0  502  504 -0.00000000000E+00 -0.00000000000E+00 -0.22045343257E+03  0.22045343257E+03  0.00000000000E+00 0. -1.
          6    2    1    2  502    0  0.56902672249E+02  0.80966059992E+02 -0.11194232562E+03  0.22793229851E+03  0.17212969372E+03 0.  0.
         24    2    3    3    0    0  0.24696402007E+02  0.45512929737E+02 -0.14230409551E+03  0.17102803365E+03  0.79490840043E+02 0.  0.
         -6    2    1    2    0  503 -0.56902672249E+02 -0.80966059992E+02  0.14624297805E+03  0.24727521907E+03  0.17310288374E+03 0.  0.
        -24    2    5    5    0    0 -0.47857309770E+01 -0.10392652077E+03  0.64440527471E+02  0.14749000350E+03  0.82323111029E+02 0.  0.
          4    1    4    4  501    0  0.20861042219E+02  0.68478407065E+02 -0.10730252377E+03  0.12898956130E+03  0.00000000000E+00 0. -1.
         -3    1    4    4    0  501  0.38353597873E+01 -0.22965477328E+02 -0.35001571738E+02  0.42038472352E+02  0.00000000000E+00 0.  1.
          5    1    3    3  502    0  0.32206270243E+02  0.35453130255E+02  0.30361769893E+02  0.56904264856E+02  0.47000000000E+01 0. -1.
         13    1    6    6    0    0 -0.31033128978E+02 -0.64988324888E+02  0.56377912408E+01  0.72237955093E+02  0.00000000000E+00 0. -1.
        -14    1    6    6    0    0  0.26247398001E+02 -0.38938195884E+02  0.58802736231E+02  0.75252048402E+02  0.00000000000E+00 0.  1.
         -5    1    5    5    0  503 -0.52116941272E+02  0.22960460780E+02  0.81802450578E+02  0.99785215575E+02  0.47000000000E+01 0.  1.
<mgrwt>
<rscale>  2 0.19918274E+03</rscale>
<asrwt>0</asrwt>
<pdfrwt beam="1">  1       21 0.39192936E-01 0.19939415E+03</pdfrwt>
<pdfrwt beam="2">  1       21 0.33915913E-01 0.19939415E+03</pdfrwt>
<totfact> 0.52397565E+04</totfact>
</mgrwt>
</event>
<event>
12    1  0.2769346E-001  0.1809971E+03  0.7546771E-02  0.1166928E+00
         21   -1    0    0  504  503  0.00000000000E+00  0.00000000000E+00  0.36166108549E+02  0.36166108549E+02  0.00000000000E+00 0. -1.
         21   -1    0    0  502  504 -0.00000000000E+00 -0.00000000000E+00 -0.99452958254E+03  0.99452958254E+03  0.00000000000E+00 0. -1.
          6    2    1    2  502    0 -0.33990572206E+02 -0.40066876168E+02 -0.63421894919E+03  0.65944155085E+03  0.17282583693E+03 0.  0.
         24    2    3    3    0    0 -0.87939880419E+02 -0.21628509159E+02 -0.47529376827E+03  0.49053387084E+03  0.80734734238E+02 0.  0.
         -6    2    1    2    0  503  0.33990572206E+02  0.40066876168E+02 -0.32414452480E+03  0.37125414024E+03  0.17320291603E+03 0.  0.
        -24    2    5    5    0    0  0.80294751051E+02 -0.39485594030E+01 -0.24293739180E+03  0.26782240431E+03  0.79040658830E+02 0.  0.
          4    1    4    4  501    0 -0.95544018769E+02 -0.25546291263E+02 -0.31838440693E+03  0.33339151623E+03  0.00000000000E+00 0. -1.
         -3    1    4    4    0  501  0.76041383504E+01  0.39177821041E+01 -0.15690936134E+03  0.15714235461E+03  0.00000000000E+00 0.  1.
          5    1    3    3  502    0  0.53949308213E+02 -0.18438367009E+02 -0.15892518093E+03  0.16890768001E+03  0.47000000000E+01 0. -1.
         13    1    6    6    0    0  0.31834815508E+01  0.28790288631E+02 -0.62017279848E+02  0.68448216003E+02  0.00000000000E+00 0. -1.
        -14    1    6    6    0    0  0.77111269500E+02 -0.32738848034E+02 -0.18092011195E+03  0.19937418831E+03  0.00000000000E+00 0.  1.
         -5    1    5    5    0  503 -0.46304178845E+02  0.44015435571E+02 -0.81207133001E+02  0.10343173593E+03  0.47000000000E+01 0.  1.
<mgrwt>
<rscale>  2 0.18090687E+03</rscale>
<asrwt>0</asrwt>
<pdfrwt beam="1">  1       21 0.55640169E-02 0.18099714E+03</pdfrwt>
<pdfrwt beam="2">  1       21 0.15300455E+00 0.18099714E+03</pdfrwt>
<totfact> 0.64022028E+04</totfact>
</mgrwt>
</event>
<event>
12    1  0.2769346E-001  0.3037099E+03  0.7546771E-02  0.1084019E+00
         21   -1    0    0  504  503  0.00000000000E+00  0.00000000000E+00  0.13657886409E+04  0.13657886409E+04  0.00000000000E+00 0.  1.
         21   -1    0    0  502  504 -0.00000000000E+00 -0.00000000000E+00 -0.68788469891E+02  0.68788469891E+02  0.00000000000E+00 0. -1.
          6    2    1    2  502    0  0.13929141185E+02 -0.24284004848E+03  0.52091808497E+03  0.60298867119E+03  0.18186361982E+03 0.  0.
         24    2    3    3    0    0 -0.60761294926E+02 -0.13625955421E+03  0.33808263996E+03  0.37851383305E+03  0.81940522907E+02 0.  0.
         -6    2    1    2    0  503 -0.13929141185E+02  0.24284004848E+03  0.77608208604E+03  0.83158843960E+03  0.17340881894E+03 0.  0.
        -24    2    5    5    0    0 -0.29130922296E+02  0.38446228753E+02  0.24105112166E+03  0.25862408597E+03  0.80337111281E+02 0.  0.
          2    1    4    4  501    0 -0.99603396578E+01 -0.11405421650E+03  0.23782959565E+03  0.26395167974E+03  0.00000000000E+00 0. -1.
         -1    1    4    4    0  501 -0.50800955268E+02 -0.22205337706E+02  0.10025304431E+03  0.11456215332E+03  0.00000000000E+00 0.  1.
          5    1    3    3  502    0  0.74690436111E+02 -0.10658049427E+03  0.18283544501E+03  0.22447483814E+03  0.47000000000E+01 0. -1.
         13    1    6    6    0    0 -0.26200181660E+02  0.49106394211E+02  0.24122916791E+03  0.24756695846E+03  0.00000000000E+00 0. -1.
        -14    1    6    6    0    0 -0.29307406359E+01 -0.10660165458E+02 -0.17804624630E+00  0.11057127508E+02  0.00000000000E+00 0.  1.
         -5    1    5    5    0  503  0.15201781111E+02  0.20439381973E+03  0.53503096438E+03  0.57296435363E+03  0.47000000000E+01 0.  1.
<mgrwt>
<rscale>  2 0.30245561E+03</rscale>
<asrwt>0</asrwt>
<pdfrwt beam="1">  1       21 0.21012131E+00 0.30370987E+03</pdfrwt>
<pdfrwt beam="2">  1       21 0.10582843E-01 0.30370987E+03</pdfrwt>
<totfact> 0.78533994E+03</totfact>
</mgrwt>
</event>
<event>
12    1  0.2769346E-001  0.2259817E+03  0.7546771E-02  0.1129670E+00
         21   -1    0    0  504  503  0.00000000000E+00  0.00000000000E+00  0.65682899689E+03  0.65682899689E+03  0.00000000000E+00 0.  1.
         21   -1    0    0  502  504 -0.00000000000E+00 -0.00000000000E+00 -0.79665894161E+02  0.79665894161E+02  0.00000000000E+00 0. -1.
          6    2    1    2  502    0  0.10971638604E+03 -0.92716826785E+02  0.22624880623E+03  0.31911187033E+03  0.17323327662E+03 0.  0.
         24    2    3    3    0    0  0.50492888316E+01 -0.76425128501E+02  0.15792721553E+03  0.19297483997E+03  0.80199675017E+02 0.  0.
         -6    2    1    2    0  503 -0.10971638604E+03  0.92716826785E+02  0.35091429650E+03  0.41738302073E+03  0.17445242092E+03 0.  0.
        -24    2    5    5    0    0 -0.93457360134E+02  0.67480269022E+02  0.12324227229E+03  0.18769218420E+03  0.82169540966E+02 0.  0.
          4    1    4    4  501    0 -0.65558257843E+01 -0.37966799142E+02  0.10161599509E+02  0.39846139002E+02  0.00000000000E+00 0. -1.
         -3    1    4    4    0  501  0.11605114616E+02 -0.38458329359E+02  0.14776561602E+03  0.15312870097E+03  0.00000000000E+00 0.  1.
          5    1    3    3  502    0  0.10466709721E+03 -0.16291698284E+02  0.68321590697E+02  0.12613703035E+03  0.47000000000E+01 0. -1.
         13    1    6    6    0    0 -0.22684667290E+02  0.64525058857E+02  0.77534514691E+02  0.10339090056E+03  0.00000000000E+00 0. -1.
        -14    1    6    6    0    0 -0.70772692844E+02  0.29552101655E+01  0.45707757596E+02  0.84301283643E+02  0.00000000000E+00 0.  1.
         -5    1    5    5    0  503 -0.16259025907E+02  0.25236557763E+02  0.22767202422E+03  0.22969083652E+03  0.47000000000E+01 0.  1.
<mgrwt>
<rscale>  2 0.22574641E+03</rscale>
<asrwt>0</asrwt>
<pdfrwt beam="1">  1       21 0.10105061E+00 0.22598173E+03</pdfrwt>
<pdfrwt beam="2">  1       21 0.12256292E-01 0.22598173E+03</pdfrwt>
<totfact> 0.44490254E+04</totfact>
</mgrwt>
</event>
<event>
12    1  0.2769346E-001  0.1779346E+03  0.7546771E-02  0.1170190E+00
         21   -1    0    0  504  503  0.00000000000E+00  0.00000000000E+00  0.23408721170E+03  0.23408721170E+03  0.00000000000E+00 0. -1.
         21   -1    0    0  502  504 -0.00000000000E+00 -0.00000000000E+00 -0.13627947007E+03  0.13627947007E+03  0.00000000000E+00 0. -1.
          6    2    1    2  502    0 -0.21465227844E+02  0.30157910083E+02  0.25313413900E+02  0.17823091162E+03  0.17249705327E+03 0.  0.
         24    2    3    3    0    0 -0.39015244032E+02  0.77203556894E+02 -0.49317231900E+01  0.11942483821E+03  0.82191189462E+02 0.  0.
         -6    2    1    2    0  503  0.21465227844E+02 -0.30157910083E+02  0.72494327736E+02  0.19213577015E+03  0.17404157856E+03 0.  0.
        -24    2    5    5    0    0 -0.11335365640E+02 -0.32506129683E+02  0.11058832304E+03  0.14159236754E+03  0.81446193105E+02 0.  0.
          2    1    4    4  501    0 -0.61526085555E+02  0.52867187759E+02 -0.19156253210E+02  0.83350829524E+02  0.00000000000E+00 0. -1.
         -1    1    4    4    0  501  0.22510841523E+02  0.24336369135E+02  0.14224530020E+02  0.36074008691E+02  0.00000000000E+00 0.  1.
          5    1    3    3  502    0  0.17550016188E+02 -0.47045646810E+02  0.30245137090E+02  0.58806073407E+02  0.47000000000E+01 0. -1.
         11    1    6    6    0    0  0.22307325148E+02 -0.38844966265E+02  0.92723745738E+02  0.10297689636E+03  0.00000000000E+00 0. -1.
        -12    1    6    6    0    0 -0.33642690788E+02  0.63388365820E+01  0.17864577307E+02  0.38615471187E+02  0.00000000000E+00 0.  1.
         -5    1    5    5    0  503  0.32800593484E+02  0.23482195997E+01 -0.38093995309E+02  0.50543402604E+02  0.47000000000E+01 0.  1.
<mgrwt>
<rscale>  2 0.17755580E+03</rscale>
<asrwt>0</asrwt>
<pdfrwt beam="1">  1       21 0.36013417E-01 0.17793461E+03</pdfrwt>
<pdfrwt beam="2">  1       21 0.20966072E-01 0.17793461E+03</pdfrwt>
<totfact> 0.15785240E+05</totfact>
</mgrwt>
</event>
<event>
12    1  0.2769346E-001  0.2450351E+03  0.7546771E-02  0.1116663E+00
         21   -1    0    0  504  503  0.00000000000E+00  0.00000000000E+00  0.65251834010E+03  0.65251834010E+03  0.00000000000E+00 0. -1.
         21   -1    0    0  502  504 -0.00000000000E+00 -0.00000000000E+00 -0.94571577931E+02  0.94571577931E+02  0.00000000000E+00 0. -1.
          6    2    1    2  502    0 -0.78773051763E+02 -0.15371145734E+03  0.21215160438E+03  0.32327807172E+03  0.17224402053E+03 0.  0.
         24    2    3    3    0    0  0.22041539607E+02 -0.10418874495E+03  0.11676307960E+03  0.17584286040E+03  0.77110120948E+02 0.  0.
         -6    2    1    2    0  503  0.78773051763E+02  0.15371145734E+03  0.34579515778E+03  0.42381184631E+03  0.17380962036E+03 0.  0.
        -24    2    5    5    0    0  0.56543189675E+02  0.16747833028E+03  0.21184915511E+03  0.28725667361E+03  0.79938780348E+02 0.  0.
          2    1    4    4  501    0  0.10107130956E+02 -0.11454789066E+03  0.96315566274E+02  0.15000020553E+03  0.00000000000E+00 0. -1.
         -1    1    4    4    0  501  0.11934408651E+02  0.10359145709E+02  0.20447513327E+02  0.25842654874E+02  0.00000000000E+00 0.  1.
          5    1    3    3  502    0 -0.10081459137E+03 -0.49522712384E+02  0.95388524784E+02  0.14743521132E+03  0.47000000000E+01 0. -1.
         13    1    6    6    0    0  0.50972785372E+02  0.36938059955E+02  0.77584613967E+02  0.99910046774E+02  0.00000000000E+00 0. -1.
        -14    1    6    6    0    0  0.55704043028E+01  0.13054027032E+03  0.13426454114E+03  0.18734662684E+03  0.00000000000E+00 0.  1.
         -5    1    5    5    0  503  0.22229862088E+02 -0.13766872941E+02  0.13394600267E+03  0.13655517270E+03  0.47000000000E+01 0.  1.
<mgrwt>
<rscale>  2 0.24475760E+03</rscale>
<asrwt>0</asrwt>
<pdfrwt beam="1">  1       21 0.10038743E+00 0.24503508E+03</pdfrwt>
<pdfrwt beam="2">  1       21 0.14549474E-01 0.24503508E+03</pdfrwt>
<totfact> 0.32828269E+04</totfact>
</mgrwt>
</event>
<event>
12    1  0.2769346E-001  0.2496900E+03  0.7546771E-02  0.1113534E+00
         21   -1    0    0  504  503  0.00000000000E+00  0.00000000000E+00  0.12697279229E+03  0.12697279229E+03  0.00000000000E+00 0. -1.
         21   -1    0    0  502  504 -0.00000000000E+00 -0.00000000000E+00 -0.49437883679E+03  0.49437883679E+03  0.00000000000E+00 0. -1.
          6    2    1    2  502    0  0.37222726961E+02 -0.17555121530E+03 -0.21077268867E+03  0.32659904752E+03  0.17331488960E+03 0.  0.
         24    2    3    3    0    0  0.52883617431E+02 -0.31498420245E+02 -0.65102991916E+02  0.12107965231E+03  0.81443570512E+02 0.  0.
         -6    2    1    2    0  503 -0.37222726961E+02  0.17555121530E+03 -0.15663335584E+03  0.29475258156E+03  0.17361254442E+03 0.  0.
        -24    2    5    5    0    0 -0.45036627801E+01  0.10228163818E+03 -0.16931209731E+03  0.21337808570E+03  0.79886198270E+02 0.  0.
          4    1    4    4  501    0  0.56525293841E+02 -0.45480390722E+02 -0.74384551993E+02  0.10390686387E+03  0.00000000000E+00 0. -1.
         -3    1    4    4    0  501 -0.36416764106E+01  0.13981970476E+02  0.92815600778E+01  0.17172788444E+02  0.00000000000E+00 0.  1.
          5    1    3    3  502    0 -0.15660890470E+02 -0.14405279505E+03 -0.14566969675E+03  0.20551939520E+03  0.47000000000E+01 0. -1.
         13    1    6    6    0    0 -0.19543839838E+02  0.74068992725E+02 -0.54020774293E+02  0.93735913150E+02  0.00000000000E+00 0. -1.
        -14    1    6    6    0    0  0.15040177058E+02  0.28212645457E+02 -0.11529132301E+03  0.11964217255E+03  0.00000000000E+00 0.  1.
         -5    1    5    5    0  503 -0.32719064181E+02  0.73269577117E+02  0.12678741470E+02  0.81374495864E+02  0.47000000000E+01 0.  1.
<mgrwt>
<rscale>  2 0.24963823E+03</rscale>
<asrwt>0</asrwt>
<pdfrwt beam="1">  1       21 0.19534276E-01 0.24968996E+03</pdfrwt>
<pdfrwt beam="2">  1       21 0.76058283E-01 0.24968996E+03</pdfrwt>
<totfact> 0.36146795E+04</totfact>
</mgrwt>
</event>
<event>
12    1  0.2769346E-001  0.1776613E+03  0.7546771E-02  0.1170266E+00
         21   -1    0    0  504  503  0.00000000000E+00  0.00000000000E+00  0.58188756410E+02  0.58188756410E+02  0.00000000000E+00 0. -1.
         21   -1    0    0  502  504 -0.00000000000E+00 -0.00000000000E+00 -0.61546862356E+03  0.61546862356E+03  0.00000000000E+00 0. -1.
          6    2    1    2  502    0  0.80909779494E+01  0.40464067815E+02 -0.39592147475E+03  0.43365720074E+03  0.17205216906E+03 0.  0.
         24    2    3    3    0    0 -0.27168929402E+02 -0.36945342606E+02 -0.19769060037E+03  0.21789564845E+03  0.79333669238E+02 0.  0.
         -6    2    1    2    0  503 -0.80909779494E+01 -0.40464067815E+02 -0.16135839240E+03  0.24000017923E+03  0.17280263460E+03 0.  0.
        -24    2    5    5    0    0  0.58034488050E+01 -0.86341487978E+02 -0.14833402216E+03  0.19010511940E+03  0.81537977203E+02 0.  0.
          4    1    4    4  501    0  0.18441860648E+02 -0.48348519700E+01 -0.89058404433E+01  0.21042623689E+02  0.00000000000E+00 0. -1.
         -3    1    4    4    0  501 -0.45610790050E+02 -0.32110490636E+02 -0.18878475993E+03  0.19685302476E+03  0.00000000000E+00 0.  1.
          5    1    3    3  502    0  0.35259907352E+02  0.77409410421E+02 -0.19823087438E+03  0.21576155229E+03  0.47000000000E+01 0. -1.
         13    1    6    6    0    0  0.41675466822E+02 -0.63960638383E+02 -0.89142300845E+02  0.11736335713E+03  0.00000000000E+00 0. -1.
        -14    1    6    6    0    0 -0.35872018017E+02 -0.22380849595E+02 -0.59191721313E+02  0.72741762264E+02  0.00000000000E+00 0.  1.
         -5    1    5    5    0  503 -0.13894426754E+02  0.45877420162E+02 -0.13024370240E+02  0.49895059833E+02  0.47000000000E+01 0.  1.
<mgrwt>
<rscale>  2 0.17747860E+03</rscale>
<asrwt>0</asrwt>
<pdfrwt beam="1">  1       21 0.89521156E-02 0.17766135E+03</pdfrwt>
<pdfrwt beam="2">  1       21 0.94687489E-01 0.17766135E+03</pdfrwt>
<totfact> 0.92623858E+04</totfact>
</mgrwt>
</event>
<event>
12    1  0.2769346E-001  0.2409270E+03  0.7546771E-02  0.1119769E+00
         21   -1    0    0  504  503  0.00000000000E+00  0.00000000000E+00  0.40635612352E+02  0.40635612352E+02  0.00000000000E+00 0.  1.
         21   -1    0    0  502  504 -0.00000000000E+00 -0.00000000000E+00 -0.14677163446E+04  0.14677163446E+04  0.00000000000E+00 0. -1.
          6    2    1    2  502    0  0.14745573646E+03  0.67349402141E+02 -0.86122664457E+03  0.89334247729E+03  0.17340793591E+03 0.  0.
         24    2    3    3    0    0  0.71317196559E+02  0.20299822741E+02 -0.21639327782E+03  0.24231029602E+03  0.79937497730E+02 0.  0.
         -6    2    1    2    0  503 -0.14745573646E+03 -0.67349402141E+02 -0.56585408765E+03  0.61500947963E+03  0.17823208281E+03 0.  0.
        -24    2    5    5    0    0 -0.39828087583E+02 -0.62925388646E+02 -0.41741655761E+03  0.43154538772E+03  0.80305404505E+02 0.  0.
          4    1    4    4  501    0 -0.50994447764E+01 -0.21164138514E+02 -0.51177888541E+02  0.55615657612E+02  0.00000000000E+00 0. -1.
         -3    1    4    4    0  501  0.76416641336E+02  0.41463961255E+02 -0.16521538928E+03  0.18669463841E+03  0.00000000000E+00 0.  1.
          5    1    3    3  502    0  0.76138539902E+02  0.47049579399E+02 -0.64483336675E+03  0.65103218127E+03  0.47000000000E+01 0. -1.
         13    1    6    6    0    0  0.21938165069E+02 -0.31655726040E+02 -0.18827027930E+03  0.19216936839E+03  0.00000000000E+00 0. -1.
        -14    1    6    6    0    0 -0.61766252652E+02 -0.31269662606E+02 -0.22914627831E+03  0.23937601933E+03  0.00000000000E+00 0.  1.
         -5    1    5    5    0  503 -0.10762764888E+03 -0.44240134950E+01 -0.14843753004E+03  0.18346409191E+03  0.47000000000E+01 0.  1.
<mgrwt>
<rscale>  2 0.24003540E+03</rscale>
<asrwt>0</asrwt>
<pdfrwt beam="1">  1       21 0.62516330E-02 0.24092698E+03</pdfrwt>
<pdfrwt beam="2">  1       21 0.22580250E+00 0.24092698E+03</pdfrwt>
<totfact> 0.16417996E+04</totfact>
</mgrwt>
</event>
<event>
12    1  0.2769346E-001  0.1744377E+03  0.7546771E-02  0.1173498E+00
         21   -1    0    0  504  503  0.00000000000E+00  0.00000000000E+00  0.31530575211E+02  0.31530575211E+02  0.00000000000E+00 0.  1.
         21   -1    0    0  502  504 -0.00000000000E+00 -0.00000000000E+00 -0.99636439237E+03  0.99636439237E+03  0.00000000000E+00 0.  1.
          6    2    1    2  502    0  0.12226426416E+02 -0.26799754586E+02 -0.38405242834E+03  0.42148294008E+03  0.17112535964E+03 0.  0.
         24    2    3    3    0    0  0.36708183461E+02 -0.44611562665E+02 -0.37731826176E+03  0.39011327424E+03  0.80508470545E+02 0.  0.
         -6    2    1    2    0  503 -0.12226426416E+02  0.26799754586E+02 -0.58078138881E+03  0.60641202750E+03  0.17193258317E+03 0.  0.
        -24    2    5    5    0    0  0.16264211574E+02 -0.39460562959E+02 -0.43106763795E+03  0.44016388967E+03  0.78123496296E+02 0.  0.
          2    1    4    4  501    0 -0.16118317330E+02 -0.35507869648E+02 -0.93983090066E+02  0.10175180676E+03  0.00000000000E+00 0. -1.
         -1    1    4    4    0  501  0.52826500791E+02 -0.91036930167E+01 -0.28333517169E+03  0.28836146748E+03  0.00000000000E+00 0.  1.
          5    1    3    3  502    0 -0.24481757044E+02  0.17811808079E+02 -0.67341665856E+01  0.31369665836E+02  0.47000000000E+01 0. -1.
         13    1    6    6    0    0  0.20598376724E+02  0.19339108268E+02 -0.10127202195E+03  0.10513951047E+03  0.00000000000E+00 0. -1.
        -14    1    6    6    0    0 -0.43341651505E+01 -0.58799671227E+02 -0.32979561600E+03  0.33502437920E+03  0.00000000000E+00 0.  1.
         -5    1    5    5    0  503 -0.28490637990E+02  0.66260317545E+02 -0.14971375086E+03  0.16624813783E+03  0.47000000000E+01 0.  1.
<mgrwt>
<rscale>  2 0.17423851E+03</rscale>
<asrwt>0</asrwt>
<pdfrwt beam="1">  1       21 0.48508571E-02 0.17443774E+03</pdfrwt>
<pdfrwt beam="2">  1       21 0.15328685E+00 0.17443774E+03</pdfrwt>
<totfact> 0.80678703E+04</totfact>
</mgrwt>
</event>
<event>
12    1  0.2769346E-001  0.2407859E+03  0.7546771E-02  0.1119448E+00
         21   -1    0    0  504  503  0.00000000000E+00  0.00000000000E+00  0.12925415481E+03  0.12925415481E+03  0.00000000000E+00 0. -1.
         21   -1    0    0  502  504 -0.00000000000E+00 -0.00000000000E+00 -0.77925737678E+03  0.77925737678E+03  0.00000000000E+00 0.  1.
          6    2    1    2  502    0 -0.11095611751E+03 -0.12432465134E+03 -0.62222652640E+03  0.66719089420E+03  0.17381012686E+03 0.  0.
         24    2    3    3    0    0 -0.98198610979E+02 -0.13294067599E+03 -0.62442595926E+03  0.65094536070E+03  0.80659119074E+02 0.  0.
         -6    2    1    2    0  503  0.11095611751E+03  0.12432465134E+03 -0.27776695565E+02  0.24132063740E+03  0.17232593036E+03 0.  0.
        -24    2    5    5    0    0  0.12367139888E+03  0.40799583755E+02 -0.21737341061E+01  0.15291409391E+03  0.80117251962E+02 0.  0.
          2    1    4    4  501    0 -0.72647856549E+02 -0.61766845739E+02 -0.46255306680E+03  0.47227978349E+03  0.00000000000E+00 0. -1.
         -1    1    4    4    0  501 -0.25550754430E+02 -0.71173830251E+02 -0.16187289246E+03  0.17866557721E+03  0.00000000000E+00 0.  1.
          5    1    3    3  502    0 -0.12757506529E+02  0.86160246508E+01  0.21994328597E+01  0.16245533495E+02  0.47000000000E+01 0. -1.
         13    1    6    6    0    0  0.64053040229E+02  0.37789643015E+02  0.35414484270E+02  0.82371322546E+02  0.00000000000E+00 0. -1.
        -14    1    6    6    0    0  0.59618358652E+02  0.30099407392E+01 -0.37588218376E+02  0.70542771369E+02  0.00000000000E+00 0.  1.
         -5    1    5    5    0  503 -0.12715281373E+02  0.83525067585E+02 -0.25602961459E+02  0.88406543485E+02  0.47000000000E+01 0.  1.
<mgrwt>
<rscale>  2 0.24051814E+03</rscale>
<asrwt>0</asrwt>
<pdfrwt beam="1">  1       21 0.19885255E-01 0.24078588E+03</pdfrwt>
<pdfrwt beam="2">  1       21 0.11988575E+00 0.24078588E+03</pdfrwt>
<totfact> 0.11972480E+04</totfact>
</mgrwt>
</event>
<event>
12    1  0.2769346E-001  0.2273795E+03  0.7546771E-02  0.1128549E+00
         21   -1    0    0  504  503  0.00000000000E+00  0.00000000000E+00  0.36304746763E+03  0.36304746763E+03  0.00000000000E+00 0.  1.
         21   -1    0    0  502  504 -0.00000000000E+00 -0.00000000000E+00 -0.15094675563E+03  0.15094675563E+03  0.00000000000E+00 0. -1.
          6    2    1    2  502    0  0.76644895238E+02 -0.12573678453E+03  0.16774265517E+03  0.28232835253E+03  0.17288007787E+03 0.  0.
         24    2    3    3    0    0 -0.90917303870E+01 -0.84989380392E+02  0.14362028057E+03  0.18427174197E+03  0.77610795361E+02 0.  0.
         -6    2    1    2    0  503 -0.76644895238E+02  0.12573678453E+03  0.44358056825E+02  0.23166587072E+03  0.17325489749E+03 0.  0.
        -24    2    5    5    0    0 -0.39454800869E+02  0.14225118250E+03 -0.41012928898E+01  0.16821331337E+03  0.80540784452E+02 0.  0.
          2    1    4    4  501    0 -0.37436529376E+02 -0.41350411307E+02  0.41048940965E+02  0.69255799767E+02  0.00000000000E+00 0. -1.
         -1    1    4    4    0  501  0.28344798989E+02 -0.43638969085E+02  0.10257133960E+03  0.11501594220E+03  0.00000000000E+00 0.  1.
          5    1    3    3  502    0  0.85736625625E+02 -0.40747404139E+02  0.24122374606E+02  0.98056610559E+02  0.47000000000E+01 0. -1.
         11    1    6    6    0    0 -0.63313239568E+02  0.10000616243E+03  0.65393514186E+01  0.11854350234E+03  0.00000000000E+00 0. -1.
        -12    1    6    6    0    0  0.23858438699E+02  0.42245020061E+02 -0.10640644308E+02  0.49669811037E+02  0.00000000000E+00 0.  1.
         -5    1    5    5    0  503 -0.37190094369E+02 -0.16514397965E+02  0.48459349715E+02  0.63452557349E+02  0.47000000000E+01 0.  1.
<mgrwt>
<rscale>  2 0.22730810E+03</rscale>
<asrwt>0</asrwt>
<pdfrwt beam="1">  1       21 0.55853457E-01 0.22737950E+03</pdfrwt>
<pdfrwt beam="2">  1       21 0.23222578E-01 0.22737950E+03</pdfrwt>
<totfact> 0.51773519E+04</totfact>
</mgrwt>
</event>
<event>
12    1  0.2769346E-001  0.2025921E+03  0.7546771E-02  0.1147972E+00
         21   -1    0    0  504  503  0.00000000000E+00  0.00000000000E+00  0.11464666579E+04  0.11464666579E+04  0.00000000000E+00 0.  1.
         21   -1    0    0  502  504 -0.00000000000E+00 -0.00000000000E+00 -0.35475988390E+02  0.35475988390E+02  0.00000000000E+00 0.  1.
          6    2    1    2  502    0  0.35772630908E+02 -0.95312164645E+02  0.54590523717E+03  0.58228521926E+03  0.17515552729E+03 0.  0.
         24    2    3    3    0    0 -0.47765844179E+02 -0.51522192636E+02  0.35763295210E+03  0.37165572988E+03  0.72736104653E+02 0.  0.
         -6    2    1    2    0  503 -0.35772630908E+02  0.95312164645E+02  0.56508543230E+03  0.59965742699E+03  0.17292597868E+03 0.  0.
        -24    2    5    5    0    0 -0.72945380290E+02  0.91966405315E+02  0.30094669391E+03  0.33285343429E+03  0.80272336057E+02 0.  0.
          4    1    4    4  501    0 -0.70102266395E+01  0.17814626474E+02  0.46297062011E+02  0.50099123194E+02  0.00000000000E+00 0. -1.
         -3    1    4    4    0  501 -0.40755617539E+02 -0.69336819110E+02  0.31133589009E+03  0.32155660669E+03  0.00000000000E+00 0.  1.
          5    1    3    3  502    0  0.83538475087E+02 -0.43789972009E+02  0.18827228507E+03  0.21062948937E+03  0.47000000000E+01 0. -1.
         11    1    6    6    0    0  0.21363230825E+01  0.71740367970E+01  0.11421417566E+03  0.11445920060E+03  0.00000000000E+00 0. -1.
        -12    1    6    6    0    0 -0.75081703372E+02  0.84792368518E+02  0.18673251824E+03  0.21839423369E+03  0.00000000000E+00 0.  1.
         -5    1    5    5    0  503  0.37172749381E+02  0.33457593302E+01  0.26413873839E+03  0.26680399270E+03  0.47000000000E+01 0.  1.
<mgrwt>
<rscale>  2 0.20210923E+03</rscale>
<asrwt>0</asrwt>
<pdfrwt beam="1">  1       21 0.17637946E+00 0.20259207E+03</pdfrwt>
<pdfrwt beam="2">  1       21 0.54578452E-02 0.20259207E+03</pdfrwt>
<totfact> 0.44376763E+04</totfact>
</mgrwt>
</event>
<event>
12    1  0.2769346E-001  0.1775894E+03  0.7546771E-02  0.1170186E+00
         21   -1    0    0  504  503  0.00000000000E+00  0.00000000000E+00  0.15583289748E+04  0.15583289748E+04  0.00000000000E+00 0. -1.
         21   -1    0    0  502  504 -0.00000000000E+00 -0.00000000000E+00 -0.20591266053E+02  0.20591266053E+02  0.00000000000E+00 0. -1.
          6    2    1    2  502    0 -0.18959585807E+02 -0.32594865401E+02  0.66327000238E+03  0.68660204802E+03  0.17341679604E+03 0.  0.
         24    2    3    3    0    0 -0.24524026237E+02 -0.82381275702E+02  0.34092158580E+03  0.36035024140E+03  0.78972567195E+02 0.  0.
         -6    2    1    2    0  503  0.18959585807E+02  0.32594865401E+02  0.87446770638E+03  0.89231819285E+03  0.17353989925E+03 0.  0.
        -24    2    5    5    0    0 -0.31883796053E+02  0.28270692911E+02  0.26743335239E+03  0.28312483694E+03  0.82603067716E+02 0.  0.
          4    1    4    4  501    0 -0.45231719814E+02 -0.26814766611E+02  0.21233370871E+03  0.21874767208E+03  0.00000000000E+00 0. -1.
         -3    1    4    4    0  501  0.20707693577E+02 -0.55566509091E+02  0.12858787708E+03  0.14160256932E+03  0.00000000000E+00 0.  1.
          5    1    3    3  502    0  0.55644404301E+01  0.49786410301E+02  0.32234841659E+03  0.32625180662E+03  0.47000000000E+01 0. -1.
         13    1    6    6    0    0  0.11765850591E+02  0.44514782525E+02  0.12105755524E+03  0.12951807899E+03  0.00000000000E+00 0. -1.
        -14    1    6    6    0    0 -0.43649646644E+02 -0.16244089614E+02  0.14637579714E+03  0.15360675795E+03  0.00000000000E+00 0.  1.
         -5    1    5    5    0  503  0.50843381860E+02  0.43241724905E+01  0.60703435400E+03  0.60919335591E+03  0.47000000000E+01 0.  1.
<mgrwt>
<rscale>  2 0.17755930E+03</rscale>
<asrwt>0</asrwt>
<pdfrwt beam="1">  1       21 0.23974283E+00 0.17758938E+03</pdfrwt>
<pdfrwt beam="2">  1       21 0.31678883E-02 0.17758938E+03</pdfrwt>
<totfact> 0.44722240E+04</totfact>
</mgrwt>
</event>
<event>
12    1  0.2769346E-001  0.1853284E+03  0.7546771E-02  0.1163764E+00
         21   -1    0    0  504  503  0.00000000000E+00  0.00000000000E+00  0.44791221817E+03  0.44791221817E+03  0.00000000000E+00 0. -1.
         21   -1    0    0  502  504 -0.00000000000E+00 -0.00000000000E+00 -0.80123475572E+02  0.80123475572E+02  0.00000000000E+00 0.  1.
          6    2    1    2  502    0 -0.61052600174E+01 -0.64940852336E+02  0.11853014960E+03  0.21999093197E+03  0.17347053145E+03 0.  0.
         24    2    3    3    0    0 -0.49849580739E+02 -0.80952902807E+02  0.45060191773E+02  0.13287103723E+03  0.81153795230E+02 0.  0.
         -6    2    1    2    0  503  0.61052600174E+01  0.64940852336E+02  0.24925859300E+03  0.30804476177E+03  0.16884057738E+03 0.  0.
        -24    2    5    5    0    0 -0.42112984629E+02  0.87587384611E+02  0.17257815138E+03  0.21455762540E+03  0.82502744592E+02 0.  0.
          2    1    4    4  501    0 -0.70249364361E+02 -0.76974311383E+02  0.37819122227E+02  0.11086164265E+03  0.00000000000E+00 0. -1.
         -1    1    4    4    0  501  0.20399783623E+02 -0.39785914231E+01  0.72410695461E+01  0.22009394579E+02  0.00000000000E+00 0.  1.
          5    1    3    3  502    0  0.43744320721E+02  0.16012050471E+02  0.73469957831E+02  0.87119894739E+02  0.47000000000E+01 0. -1.
         13    1    6    6    0    0  0.68797496087E+01  0.56441467121E+02  0.13200554977E+03  0.14373042592E+03  0.00000000000E+00 0. -1.
        -14    1    6    6    0    0 -0.48992734238E+02  0.31145917491E+02  0.40572601613E+02  0.70827199480E+02  0.00000000000E+00 0.  1.
         -5    1    5    5    0  503  0.48218244647E+02 -0.22646532275E+02  0.76680441615E+02  0.93487136372E+02  0.47000000000E+01 0.  1.
<mgrwt>
<rscale>  2 0.18423720E+03</rscale>
<asrwt>0</asrwt>
<pdfrwt beam="1">  1       21 0.68909571E-01 0.18532839E+03</pdfrwt>
<pdfrwt beam="2">  1       21 0.12326689E-01 0.18532839E+03</pdfrwt>
<totfact> 0.10756692E+05</totfact>
</mgrwt>
</event>
<event>
12    1  0.2769346E-001  0.2190997E+03  0.7546771E-02  0.1134834E+00
         21   -1    0    0  504  503  0.00000000000E+00  0.00000000000E+00  0.20963969149E+04  0.20963969149E+04  0.00000000000E+00 0. -1.
         21   -1    0    0  502  504 -0.00000000000E+00 -0.00000000000E+00 -0.23082044482E+02  0.23082044482E+02  0.00000000000E+00 0. -1.
          6    2    1    2  502    0 -0.26621580444E+01 -0.13577002238E+03  0.90507767485E+03  0.93087355192E+03  0.17005700836E+03 0.  0.
         24    2    3    3    0    0  0.12331240263E+02 -0.64350599148E+02  0.77428697740E+03  0.78102752246E+03  0.78680419195E+02 0.  0.
         -6    2    1    2    0  503  0.26621580444E+01  0.13577002238E+03  0.11682371956E+04  0.11886054075E+04  0.17194209338E+03 0.  0.
        -24    2    5    5    0    0 -0.36301751306E+02  0.15243530816E+03  0.95814225442E+03  0.97422748817E+03  0.80797764101E+02 0.  0.
          4    1    4    4  501    0  0.29515583605E+02 -0.30522462708E+02  0.15899303582E+03  0.16456480743E+03  0.00000000000E+00 0. -1.
         -3    1    4    4    0  501 -0.17184343342E+02 -0.33828136440E+02  0.61529394159E+03  0.61646271503E+03  0.00000000000E+00 0.  1.
          5    1    3    3  502    0 -0.14993398308E+02 -0.71419423227E+02  0.13079069744E+03  0.14984602946E+03  0.47000000000E+01 0. -1.
         11    1    6    6    0    0  0.10422773699E+02  0.10550279626E+03  0.48344429652E+03  0.49493217926E+03  0.00000000000E+00 0. -1.
        -12    1    6    6    0    0 -0.46724525005E+02  0.46932511903E+02  0.47469795790E+03  0.47929530892E+03  0.00000000000E+00 0.  1.
         -5    1    5    5    0  503  0.38963909350E+02 -0.16665285787E+02  0.21009494114E+03  0.21437791928E+03  0.47000000000E+01 0.  1.
<mgrwt>
<rscale>  2 0.21872969E+03</rscale>
<asrwt>0</asrwt>
<pdfrwt beam="1">  1       21 0.32252245E+00 0.21909968E+03</pdfrwt>
<pdfrwt beam="2">  1       21 0.35510854E-02 0.21909968E+03</pdfrwt>
<totfact> 0.11767772E+04</totfact>
</mgrwt>
</event>
<event>
12    1  0.2769346E-001  0.2117617E+03  0.7546771E-02  0.1140380E+00
         21   -1    0    0  504  503  0.00000000000E+00  0.00000000000E+00  0.18847207169E+03  0.18847207169E+03  0.00000000000E+00 0.  1.
         21   -1    0    0  502  504 -0.00000000000E+00 -0.00000000000E+00 -0.84245032215E+03  0.84245032215E+03  0.00000000000E+00 0.  1.
          6    2    1    2  502    0 -0.45931680558E+02 -0.11125071270E+03 -0.76427405876E+03  0.79306863336E+03  0.17423139777E+03 0.  0.
         24    2    3    3    0    0 -0.86260836142E+02 -0.36719205007E+02 -0.36404543568E+03  0.38393976960E+03  0.78047649371E+02 0.  0.
         -6    2    1    2    0  503  0.45931680558E+02  0.11125071270E+03  0.11029580829E+03  0.23785376048E+03  0.17298209645E+03 0.  0.
        -24    2    5    5    0    0  0.79811297672E+02  0.54902518748E+02  0.22568087006E+02  0.12812140199E+03  0.80756704346E+02 0.  0.
          2    1    4    4  501    0 -0.91386195949E+02 -0.15104998588E+02 -0.22806593792E+03  0.24615781489E+03  0.00000000000E+00 0. -1.
         -1    1    4    4    0  501  0.51253598071E+01 -0.21614206419E+02 -0.13597949776E+03  0.13778195471E+03  0.00000000000E+00 0.  1.
          5    1    3    3  502    0  0.40329155584E+02 -0.74531507693E+02 -0.40022862308E+03  0.40912886376E+03  0.47000000000E+01 0. -1.
         11    1    6    6    0    0  0.43504114744E+02  0.29106896833E+01 -0.23696314138E+02  0.49624544510E+02  0.00000000000E+00 0. -1.
        -12    1    6    6    0    0  0.36307182928E+02  0.51991829065E+02  0.46264401144E+02  0.78496857484E+02  0.00000000000E+00 0.  1.
         -5    1    5    5    0  503 -0.33879617114E+02  0.56348193952E+02  0.87727721286E+02  0.10973235849E+03  0.47000000000E+01 0.  1.
<mgrwt>
<rscale>  2 0.21150457E+03</rscale>
<asrwt>0</asrwt>
<pdfrwt beam="1">  1       21 0.28995704E-01 0.21176171E+03</pdfrwt>
<pdfrwt beam="2">  1       21 0.12960774E+00 0.21176171E+03</pdfrwt>
<totfact> 0.48836587E+03</totfact>
</mgrwt>
</event>
<event>
12    1  0.2769346E-001  0.1855909E+03  0.7546771E-02  0.1162890E+00
         21   -1    0    0  504  503  0.00000000000E+00  0.00000000000E+00  0.25725111131E+03  0.25725111131E+03  0.00000000000E+00 0.  1.
         21   -1    0    0  502  504 -0.00000000000E+00 -0.00000000000E+00 -0.21888252016E+03  0.21888252016E+03  0.00000000000E+00 0.  1.
          6    2    1    2  502    0 -0.29352298266E+02  0.55358627961E+02 -0.13015592297E+03  0.22668160208E+03  0.17469358699E+03 0.  0.
         24    2    3    3    0    0 -0.43674790059E+02 -0.26220555061E+02 -0.43297992141E+02  0.10657045763E+03  0.82991213525E+02 0.  0.
         -6    2    1    2    0  503  0.29352298266E+02 -0.55358627961E+02  0.16852451411E+03  0.24945202939E+03  0.17291520467E+03 0.  0.
        -24    2    5    5    0    0 -0.76594676278E+01  0.33491437600E+02  0.73347004591E+02  0.11400811744E+03  0.80235428110E+02 0.  0.
          2    1    4    4  501    0 -0.35595283242E+02 -0.66340499451E+01 -0.66147728992E+02  0.75409262419E+02  0.00000000000E+00 0. -1.
         -1    1    4    4    0  501 -0.80795068166E+01 -0.19586505116E+02  0.22849736851E+02  0.31161195215E+02  0.00000000000E+00 0.  1.
          5    1    3    3  502    0  0.14322491792E+02  0.81579183023E+02 -0.86857930825E+02  0.12011114445E+03  0.47000000000E+01 0. -1.
         13    1    6    6    0    0 -0.24265559913E+02 -0.19577651902E+02  0.20639354615E+02  0.37390972317E+02  0.00000000000E+00 0. -1.
        -14    1    6    6    0    0  0.16606092285E+02  0.53069089501E+02  0.52707649976E+02  0.76617145128E+02  0.00000000000E+00 0.  1.
         -5    1    5    5    0  503  0.37011765894E+02 -0.88850065561E+02  0.95177509523E+02  0.13544391195E+03  0.47000000000E+01 0.  1.
<mgrwt>
<rscale>  2 0.18517124E+03</rscale>
<asrwt>0</asrwt>
<pdfrwt beam="1">  1       21 0.39577094E-01 0.18559091E+03</pdfrwt>
<pdfrwt beam="2">  1       21 0.33674234E-01 0.18559091E+03</pdfrwt>
<totfact> 0.52448473E+04</totfact>
</mgrwt>
</event>
<event>
12    1  0.2769346E-001  0.1997133E+03  0.7546771E-02  0.1150058E+00
         21   -1    0    0  504  503  0.00000000000E+00  0.00000000000E+00  0.11147821975E+03  0.11147821975E+03  0.00000000000E+00 0.  1.
         21   -1    0    0  502  504 -0.00000000000E+00 -0.00000000000E+00 -0.47404767143E+03  0.47404767143E+03  0.00000000000E+00 0.  1.
          6    2    1    2  502    0  0.63072209830E+02 -0.76269319224E+02 -0.35772200591E+02  0.20253520726E+03  0.17304839537E+03 0.  0.
         24    2    3    3    0    0  0.21257101136E+02 -0.28256460542E+02  0.47020401983E+02  0.97986448520E+02  0.78359007011E+02 0.  0.
         -6    2    1    2    0  503 -0.63072209830E+02  0.76269319224E+02 -0.32679725109E+03  0.38299068391E+03  0.17346558141E+03 0.  0.
        -24    2    5    5    0    0 -0.19243837585E+01 -0.14195442389E+01 -0.62360105368E+02  0.10063680988E+03  0.78951038014E+02 0.  0.
          4    1    4    4  501    0  0.43790661751E+02  0.29547449270E+01  0.38891342823E+02  0.58642042263E+02  0.00000000000E+00 0. -1.
         -3    1    4    4    0  501 -0.22533560615E+02 -0.31211205469E+02  0.81290591604E+01  0.39344406257E+02  0.00000000000E+00 0.  1.
          5    1    3    3  502    0  0.41815108694E+02 -0.48012858681E+02 -0.82792602575E+02  0.10454875874E+03  0.47000000000E+01 0. -1.
         11    1    6    6    0    0  0.28735369408E+02 -0.16960722768E+02 -0.56715165174E+02  0.65802716756E+02  0.00000000000E+00 0. -1.
        -12    1    6    6    0    0 -0.30659753166E+02  0.15541178529E+02 -0.56449401937E+01  0.34834093128E+02  0.00000000000E+00 0.  1.
         -5    1    5    5    0  503 -0.61147826072E+02  0.77688863463E+02 -0.26443714573E+03  0.28235387403E+03  0.47000000000E+01 0.  1.
<mgrwt>
<rscale>  2 0.19962272E+03</rscale>
<asrwt>0</asrwt>
<pdfrwt beam="1">  1       21 0.17150495E-01 0.19971335E+03</pdfrwt>
<pdfrwt beam="2">  1       21 0.72930411E-01 0.19971335E+03</pdfrwt>
<totfact> 0.51760378E+04</totfact>
</mgrwt>
</event>
<event>
12    1  0.2769346E-001  0.1757735E+03  0.7546771E-02  0.1172420E+00
         21   -1    0    0  504  503  0.00000000000E+00  0.00000000000E+00  0.30459219059E+02  0.30459219059E+02  0.00000000000E+00 0. -1.
         21   -1    0    0  502  504 -0.00000000000E+00 -0.00000000000E+00 -0.12342789914E+04  0.12342789914E+04  0.00000000000E+00 0. -1.
          6    2    1    2  502    0  0.24111102021E+02 -0.12410670602E+02 -0.87262147083E+03  0.88978668871E+03  0.17180439474E+03 0.  0.
         24    2    3    3    0    0  0.14728542746E+02  0.40795133608E+02 -0.36268630814E+03  0.37697595347E+03  0.93211257291E+02 0.  0.
         -6    2    1    2    0  503 -0.24111102021E+02  0.12410670602E+02 -0.33119830146E+03  0.37495152171E+03  0.17366910708E+03 0.  0.
        -24    2    5    5    0    0  0.20010295133E+02 -0.36636267284E+02 -0.10296013883E+03  0.13732355895E+03  0.80711471692E+02 0.  0.
          2    1    4    4  501    0 -0.21879542500E+02 -0.96249829314E+01 -0.29281989239E+02  0.37799332934E+02  0.00000000000E+00 0. -1.
         -1    1    4    4    0  501  0.36608085246E+02  0.50420116539E+02 -0.33340431890E+03  0.33917662054E+03  0.00000000000E+00 0.  1.
          5    1    3    3  502    0  0.93825592749E+01 -0.53205804210E+02 -0.50993516270E+03  0.51281073524E+03  0.47000000000E+01 0. -1.
         11    1    6    6    0    0 -0.16353100266E+02  0.60542948270E+01 -0.70294259270E+02  0.72424866314E+02  0.00000000000E+00 0. -1.
        -12    1    6    6    0    0  0.36363395399E+02 -0.42690562111E+02 -0.32665879556E+02  0.64898692633E+02  0.00000000000E+00 0.  1.
         -5    1    5    5    0  503 -0.44121397153E+02  0.49046937887E+02 -0.22823816264E+03  0.23762796276E+03  0.47000000000E+01 0.  1.
<mgrwt>
<rscale>  2 0.17531116E+03</rscale>
<asrwt>0</asrwt>
<pdfrwt beam="1">  1       21 0.46860339E-02 0.17577352E+03</pdfrwt>
<pdfrwt beam="2">  1       21 0.18988907E+00 0.17577352E+03</pdfrwt>
<totfact> 0.47417795E+04</totfact>
</mgrwt>
</event>
<event>
12    1  0.2769346E-001  0.2655398E+03  0.7546771E-02  0.1103889E+00
         21   -1    0    0  504  503  0.00000000000E+00  0.00000000000E+00  0.45104321150E+03  0.45104321150E+03  0.00000000000E+00 0. -1.
         21   -1    0    0  502  504 -0.00000000000E+00 -0.00000000000E+00 -0.18021250567E+03  0.18021250567E+03  0.00000000000E+00 0.  1.
          6    2    1    2  502    0  0.19946089853E+03 -0.27392702440E+02  0.20272620533E+02  0.26631249338E+03  0.17313680948E+03 0.  0.
         24    2    3    3    0    0  0.87900047028E+02 -0.54989758862E+02 -0.36659050869E+02  0.13797416582E+03  0.83322821462E+02 0.  0.
         -6    2    1    2    0  503 -0.19946089853E+03  0.27392702440E+02  0.25055808530E+03  0.36494322380E+03  0.17282705893E+03 0.  0.
        -24    2    5    5    0    0 -0.11207733413E+03  0.57333851620E+02  0.22247365260E+03  0.26828307120E+03  0.81441886160E+02 0.  0.
          4    1    4    4  501    0  0.17605085706E+02 -0.54873915458E+02  0.21666149694E+01  0.57669574828E+02  0.00000000000E+00 0. -1.
         -3    1    4    4    0  501  0.70294961322E+02 -0.11584340421E+00 -0.38825665838E+02  0.80304590994E+02  0.00000000000E+00 0.  1.
          5    1    3    3  502    0  0.11156085150E+03  0.27597056423E+02  0.56931671401E+02  0.12833832755E+03  0.47000000000E+01 0. -1.
         13    1    6    6    0    0 -0.18463931822E+02  0.53110145433E+02  0.83005166482E+02  0.10025697975E+03  0.00000000000E+00 0. -1.
        -14    1    6    6    0    0 -0.93613402308E+02  0.42237061869E+01  0.13946848612E+03  0.16802609144E+03  0.00000000000E+00 0.  1.
         -5    1    5    5    0  503 -0.87383564400E+02 -0.29941149181E+02  0.28084432698E+02  0.96660152604E+02  0.47000000000E+01 0.  1.
<mgrwt>
<rscale>  2 0.26548928E+03</rscale>
<asrwt>0</asrwt>
<pdfrwt beam="1">  1       21 0.69391263E-01 0.26553976E+03</pdfrwt>
<pdfrwt beam="2">  1       21 0.27725001E-01 0.26553976E+03</pdfrwt>
<totfact> 0.22587124E+04</totfact>
</mgrwt>
</event>
<event>
12    1  0.2769346E-001  0.1748009E+03  0.7546771E-02  0.1174046E+00
         21   -1    0    0  504  503  0.00000000000E+00  0.00000000000E+00  0.40619142281E+03  0.40619142281E+03  0.00000000000E+00 0. -1.
         21   -1    0    0  502  504 -0.00000000000E+00 -0.00000000000E+00 -0.91817246844E+02  0.91817246844E+02  0.00000000000E+00 0. -1.
          6    2    1    2  502    0 -0.19017536803E+02  0.10113367652E+02  0.47123779130E+02  0.18104149352E+03  0.17346880096E+03 0.  0.
         24    2    3    3    0    0  0.62223722490E+01  0.74154078541E+02  0.58211149474E+02  0.11116098521E+03  0.58572019171E+02 0.  0.
         -6    2    1    2    0  503  0.19017536803E+02 -0.10113367652E+02  0.26725039684E+03  0.31696717614E+03  0.16906054899E+03 0.  0.
        -24    2    5    5    0    0  0.42644686965E+02  0.32694346799E+02  0.24395133499E+03  0.26260102008E+03  0.80991062871E+02 0.  0.
          2    1    4    4  501    0 -0.16413412334E+02  0.65882546576E+02  0.30488352719E+02  0.74427479464E+02  0.00000000000E+00 0. -1.
         -1    1    4    4    0  501  0.22635784583E+02  0.82715319650E+01  0.27722796755E+02  0.36733505750E+02  0.00000000000E+00 0.  1.
          5    1    3    3  502    0 -0.25239909052E+02 -0.64040710889E+02 -0.11087370344E+02  0.69880508308E+02  0.47000000000E+01 0. -1.
         13    1    6    6    0    0  0.63120301498E+02  0.64187196399E+01  0.14777743856E+03  0.16082146552E+03  0.00000000000E+00 0. -1.
        -14    1    6    6    0    0 -0.20475614533E+02  0.26275627159E+02  0.96173896425E+02  0.10177955456E+03  0.00000000000E+00 0.  1.
         -5    1    5    5    0  503 -0.23627150162E+02 -0.42807714451E+02  0.23299061851E+02  0.54366156057E+02  0.47000000000E+01 0.  1.
<mgrwt>
<rscale>  2 0.17369709E+03</rscale>
<asrwt>0</asrwt>
<pdfrwt beam="1">  1       21 0.62490987E-01 0.17480095E+03</pdfrwt>
<pdfrwt beam="2">  1       21 0.14125731E-01 0.17480095E+03</pdfrwt>
<totfact> 0.10456258E+05</totfact>
</mgrwt>
</event>
<event>
12    1  0.2769346E-001  0.1797401E+03  0.7546771E-02  0.1168962E+00
         21   -1    0    0  504  503  0.00000000000E+00  0.00000000000E+00  0.78680557422E+02  0.78680557422E+02  0.00000000000E+00 0.  1.
         21   -1    0    0  502  504 -0.00000000000E+00 -0.00000000000E+00 -0.14363101059E+04  0.14363101059E+04  0.00000000000E+00 0.  1.
          6    2    1    2  502    0 -0.32780002683E+02  0.24635847126E+02 -0.13195761999E+04  0.13312665014E+04  0.17119490941E+03 0.  0.
         24    2    3    3    0    0 -0.12725107223E+02  0.18619469075E+02 -0.29282695346E+03  0.30429303505E+03  0.79611641879E+02 0.  0.
         -6    2    1    2    0  503  0.32780002683E+02 -0.24635847126E+02 -0.38053348604E+02  0.18372416190E+03  0.17500016224E+03 0.  0.
        -24    2    5    5    0    0  0.83363162521E+02 -0.19224579207E+02 -0.38584469319E+02  0.13263296922E+03  0.93721619389E+02 0.  0.
          4    1    4    4  501    0  0.43048893515E+01  0.71321635211E+01  0.21484361179E+01  0.86032323328E+01  0.00000000000E+00 0. -1.
         -3    1    4    4    0  501 -0.17029996574E+02  0.11487305554E+02 -0.29497538958E+03  0.29568980272E+03  0.00000000000E+00 0.  1.
          5    1    3    3  502    0 -0.20054895461E+02  0.60163780514E+01 -0.10267492464E+04  0.10269734664E+04  0.47000000000E+01 0. -1.
         11    1    6    6    0    0  0.10655068062E+02 -0.42340760311E+02 -0.35507568788E+02  0.56276619482E+02  0.00000000000E+00 0. -1.
        -12    1    6    6    0    0  0.72708094459E+02  0.23116181104E+02 -0.30769005309E+01  0.76356349739E+02  0.00000000000E+00 0.  1.
         -5    1    5    5    0  503 -0.50583159838E+02 -0.54112679193E+01  0.53112071426E+00  0.51091192674E+02  0.47000000000E+01 0.  1.
<mgrwt>
<rscale>  2 0.17880719E+03</rscale>
<asrwt>0</asrwt>
<pdfrwt beam="1">  1       21 0.12104702E-01 0.17974012E+03</pdfrwt>
<pdfrwt beam="2">  1       21 0.22097078E+00 0.17974012E+03</pdfrwt>
<totfact> 0.58059237E+03</totfact>
</mgrwt>
</event>
<event>
12    1  0.2769346E-001  0.3543879E+03  0.7546771E-02  0.1060949E+00
         21   -1    0    0  504  503  0.00000000000E+00  0.00000000000E+00  0.29389460410E+03  0.29389460410E+03  0.00000000000E+00 0. -1.
         21   -1    0    0  502  504 -0.00000000000E+00 -0.00000000000E+00 -0.42814718139E+03  0.42814718139E+03  0.00000000000E+00 0. -1.
          6    2    1    2  502    0  0.18936525831E+03 -0.24352263866E+03 -0.41083093238E+02  0.35676131780E+03  0.17443721145E+03 0.  0.
         24    2    3    3    0    0  0.72065810581E+02 -0.95931095106E+02  0.42375222587E+02  0.15053376231E+03  0.80426973349E+02 0.  0.
         -6    2    1    2    0  503 -0.18936525831E+03  0.24352263866E+03 -0.93169484056E+02  0.36528046769E+03  0.17200811236E+03 0.  0.
        -24    2    5    5    0    0 -0.12418917274E+03  0.15879020455E+03 -0.12932853848E+03  0.25233324666E+03  0.79428690156E+02 0.  0.
          2    1    4    4  501    0  0.47259652237E+02 -0.82301508366E+02 -0.53399543589E+01  0.95055395015E+02  0.00000000000E+00 0. -1.
         -1    1    4    4    0  501  0.24806158344E+02 -0.13629586740E+02  0.47715176945E+02  0.55478367292E+02  0.00000000000E+00 0.  1.
          5    1    3    3  502    0  0.11729944772E+03 -0.14759154356E+03 -0.83458315824E+02  0.20622755550E+03  0.47000000000E+01 0. -1.
         11    1    6    6    0    0 -0.11155447697E+03  0.12883919423E+03 -0.69112964419E+02  0.18390361919E+03  0.00000000000E+00 0. -1.
        -12    1    6    6    0    0 -0.12634695766E+02  0.29951010325E+02 -0.60215574057E+02  0.68429627469E+02  0.00000000000E+00 0.  1.
         -5    1    5    5    0  503 -0.65176085565E+02  0.84732434111E+02  0.36159054420E+02  0.11294722102E+03  0.47000000000E+01 0.  1.
<mgrwt>
<rscale>  2 0.35409024E+03</rscale>
<asrwt>0</asrwt>
<pdfrwt beam="1">  1       21 0.45214554E-01 0.35438795E+03</pdfrwt>
<pdfrwt beam="2">  1       21 0.65868797E-01 0.35438795E+03</pdfrwt>
<totfact> 0.91356148E+03</totfact>
</mgrwt>
</event>
<event>
12    1  0.2769346E-001  0.1855402E+03  0.7546771E-02  0.1163127E+00
         21   -1    0    0  504  503  0.00000000000E+00  0.00000000000E+00  0.98792142587E+02  0.98792142587E+02  0.00000000000E+00 0. -1.
         21   -1    0    0  502  504 -0.00000000000E+00 -0.00000000000E+00 -0.36709942241E+03  0.36709942241E+03  0.00000000000E+00 0. -1.
          6    2    1    2  502    0  0.66273987197E+02 -0.10352101071E+02 -0.19196981582E+03  0.26526109022E+03  0.17032800246E+03 0.  0.
         24    2    3    3    0    0  0.70195917998E+02  0.56156277607E+02 -0.10235789285E+03  0.15349735409E+03  0.70734044598E+02 0.  0.
         -6    2    1    2    0  503 -0.66273987197E+02  0.10352101071E+02 -0.76337464001E+02  0.20063047478E+03  0.17299066918E+03 0.  0.
        -24    2    5    5    0    0  0.11714295458E+02  0.50758839549E+02 -0.52313650703E+02  0.10944873126E+03  0.80799889935E+02 0.  0.
          2    1    4    4  501    0  0.80932471392E+02  0.55742095714E+02 -0.10346447243E+03  0.14269598178E+03  0.00000000000E+00 0. -1.
         -1    1    4    4    0  501 -0.10736553394E+02  0.41418189315E+00  0.11065795798E+01  0.10801372311E+02  0.00000000000E+00 0.  1.
          5    1    3    3  502    0 -0.39219308009E+01 -0.66508378678E+02 -0.89611922966E+02  0.11176373613E+03  0.47000000000E+01 0. -1.
         13    1    6    6    0    0 -0.29032135473E+02  0.87892770068E+00 -0.48630020101E+01  0.29449723132E+02  0.00000000000E+00 0. -1.
        -14    1    6    6    0    0  0.40746430931E+02  0.49879911849E+02 -0.47450648693E+02  0.79999008125E+02  0.00000000000E+00 0.  1.
         -5    1    5    5    0  503 -0.77988282655E+02 -0.40406738478E+02 -0.24023813298E+02  0.91181743520E+02  0.47000000000E+01 0.  1.
<mgrwt>
<rscale>  2 0.18491709E+03</rscale>
<asrwt>0</asrwt>
<pdfrwt beam="1">  1       21 0.15198791E-01 0.18554024E+03</pdfrwt>
<pdfrwt beam="2">  1       21 0.56476834E-01 0.18554024E+03</pdfrwt>
<totfact> 0.11322684E+05</totfact>
</mgrwt>
</event>
<event>
12    1  0.2769346E-001  0.2171235E+03  0.7546771E-02  0.1136533E+00
         21   -1    0    0  504  503  0.00000000000E+00  0.00000000000E+00  0.14211460309E+04  0.14211460309E+04  0.00000000000E+00 0.  1.
         21   -1    0    0  502  504 -0.00000000000E+00 -0.00000000000E+00 -0.11319952749E+03  0.11319952749E+03  0.00000000000E+00 0.  1.
          6    2    1    2  502    0 -0.29041931714E+02 -0.12548675310E+03  0.84863171994E+01  0.21728925634E+03  0.17479200308E+03 0.  0.
         24    2    3    3    0    0 -0.79881423234E+02 -0.11264312978E+03 -0.12201464129E+02  0.16072348176E+03  0.81324322296E+02 0.  0.
         -6    2    1    2    0  503  0.29041931714E+02  0.12548675310E+03  0.12994601862E+04  0.13170563020E+04  0.17161051309E+03 0.  0.
        -24    2    5    5    0    0 -0.18502482807E+02  0.27199337455E+02  0.32365667430E+03  0.33515229895E+03  0.80568448210E+02 0.  0.
          2    1    4    4  501    0  0.15378337490E+02 -0.30804621707E+02  0.10047303581E+01  0.34444556399E+02  0.00000000000E+00 0. -1.
         -1    1    4    4    0  501 -0.95259760724E+02 -0.81838508071E+02 -0.13206194487E+02  0.12627892536E+03  0.00000000000E+00 0.  1.
          5    1    3    3  502    0  0.50839491519E+02 -0.12843623319E+02  0.20687781328E+02  0.56565774583E+02  0.47000000000E+01 0. -1.
         13    1    6    6    0    0 -0.15516866857E+01 -0.25661216871E+02  0.16664501780E+03  0.16861633296E+03  0.00000000000E+00 0. -1.
        -14    1    6    6    0    0 -0.16950796122E+02  0.52860554327E+02  0.15701165649E+03  0.16653596599E+03  0.00000000000E+00 0.  1.
         -5    1    5    5    0  503  0.47544414522E+02  0.98287415641E+02  0.97580351191E+03  0.98190400308E+03  0.47000000000E+01 0.  1.
<mgrwt>
<rscale>  2 0.21648241E+03</rscale>
<asrwt>0</asrwt>
<pdfrwt beam="1">  1       21 0.21863784E+00 0.21712347E+03</pdfrwt>
<pdfrwt beam="2">  1       21 0.17415313E-01 0.21712347E+03</pdfrwt>
<totfact> 0.29873323E+03</totfact>
</mgrwt>
</event>
<event>
12    1  0.2769346E-001  0.2040783E+03  0.7546771E-02  0.1146446E+00
         21   -1    0    0  504  503  0.00000000000E+00  0.00000000000E+00  0.13815310443E+03  0.13815310443E+03  0.00000000000E+00 0. -1.
         21   -1    0    0  502  504 -0.00000000000E+00 -0.00000000000E+00 -0.31593416304E+03  0.31593416304E+03  0.00000000000E+00 0. -1.
          6    2    1    2  502    0 -0.82165765920E+02  0.69946933831E+02 -0.39178174973E+02  0.20780495208E+03  0.17321715294E+03 0.  0.
         24    2    3    3    0    0 -0.35791025212E+01  0.73820440234E+01  0.30526427754E+02  0.85448706867E+02  0.79387115863E+02 0.  0.
         -6    2    1    2    0  503  0.82165765920E+02 -0.69946933831E+02 -0.13860288364E+03  0.24628231539E+03  0.17262801882E+03 0.  0.
        -24    2    5    5    0    0  0.42073041314E+02  0.30622871257E+02 -0.64864794213E+02  0.11520558941E+03  0.79730704588E+02 0.  0.
          4    1    4    4  501    0  0.23707918544E+02 -0.26177744633E+01  0.46518886416E+02  0.52277384577E+02  0.00000000000E+00 0. -1.
         -3    1    4    4    0  501 -0.27287021065E+02  0.99998184867E+01 -0.15992458662E+02  0.33171322290E+02  0.00000000000E+00 0.  1.
          5    1    3    3  502    0 -0.78586663398E+02  0.62564889808E+02 -0.69704602727E+02  0.12235624521E+03  0.47000000000E+01 0. -1.
         11    1    6    6    0    0  0.23268397698E+02 -0.19618630796E+02 -0.51660169133E+02  0.59959003332E+02  0.00000000000E+00 0. -1.
        -12    1    6    6    0    0  0.18804643616E+02  0.50241502053E+02 -0.13204625080E+02  0.55246586080E+02  0.00000000000E+00 0.  1.
         -5    1    5    5    0  503  0.40092724605E+02 -0.10056980509E+03 -0.73738089424E+02  0.13107672598E+03  0.47000000000E+01 0.  1.
<mgrwt>
<rscale>  2 0.20395327E+03</rscale>
<asrwt>0</asrwt>
<pdfrwt beam="1">  1       21 0.21254324E-01 0.20407834E+03</pdfrwt>
<pdfrwt beam="2">  1       21 0.48605256E-01 0.20407834E+03</pdfrwt>
<totfact> 0.82837348E+04</totfact>
</mgrwt>
</event>
<event>
12    1  0.2769346E-001  0.1859560E+03  0.7546771E-02  0.1162679E+00
         21   -1    0    0  504  503  0.00000000000E+00  0.00000000000E+00  0.94874056013E+02  0.94874056013E+02  0.00000000000E+00 0. -1.
         21   -1    0    0  502  504 -0.00000000000E+00 -0.00000000000E+00 -0.61745187197E+03  0.61745187197E+03  0.00000000000E+00 0. -1.
          6    2    1    2  502    0  0.62985743412E+02 -0.23793321050E+02 -0.49029286491E+03  0.52358815958E+03  0.17095069896E+03 0.  0.
         24    2    3    3    0    0  0.43280119666E+02 -0.73097806236E+01 -0.11421263024E+03  0.14660214974E+03  0.80753103651E+02 0.  0.
         -6    2    1    2    0  503 -0.62985743412E+02  0.23793321050E+02 -0.32284951044E+02  0.18873776840E+03  0.17333868915E+03 0.  0.
        -24    2    5    5    0    0 -0.45397364436E+02  0.63711370802E+02  0.25560916937E+02  0.11613586612E+03  0.81939730649E+02 0.  0.
          2    1    4    4  501    0 -0.19293830503E+02 -0.19654088690E+02 -0.27116429954E+02  0.38650172977E+02  0.00000000000E+00 0. -1.
         -1    1    4    4    0  501  0.62573950169E+02  0.12344308067E+02 -0.87096200287E+02  0.10795197676E+03  0.00000000000E+00 0.  1.
          5    1    3    3  502    0  0.19705623746E+02 -0.16483540427E+02 -0.37608023467E+03  0.37698600985E+03  0.47000000000E+01 0. -1.
         13    1    6    6    0    0 -0.42151726686E+00 -0.18783168287E+02  0.85843129097E+01  0.20656125383E+02  0.00000000000E+00 0. -1.
        -14    1    6    6    0    0 -0.44975847169E+02  0.82494539088E+02  0.16976604027E+02  0.95479740742E+02  0.00000000000E+00 0.  1.
         -5    1    5    5    0  503 -0.17588378977E+02 -0.39918049751E+02 -0.57845867981E+02  0.72601902272E+02  0.47000000000E+01 0.  1.
<mgrwt>
<rscale>  2 0.18539749E+03</rscale>
<asrwt>0</asrwt>
<pdfrwt beam="1">  1       21 0.14596008E-01 0.18595598E+03</pdfrwt>
<pdfrwt beam="2">  1       21 0.94992600E-01 0.18595598E+03</pdfrwt>
<totfact> 0.38330887E+04</totfact>
</mgrwt>
</event>
<event>
12    1  0.2769346E-001  0.1773968E+03  0.7546771E-02  0.1170716E+00
         21   -1    0    0  504  503  0.00000000000E+00  0.00000000000E+00  0.26891877841E+03  0.26891877841E+03  0.00000000000E+00 0. -1.
         21   -1    0    0  502  504 -0.00000000000E+00 -0.00000000000E+00 -0.16911935424E+03  0.16911935424E+03  0.00000000000E+00 0. -1.
          6    2    1    2  502    0 -0.31889675305E+02 -0.15417848557E+02 -0.72945721444E+02  0.19042854710E+03  0.17230000531E+03 0.  0.
         24    2    3    3    0    0 -0.62964896621E+02 -0.18294884018E+02 -0.10388911224E+03  0.14622978980E+03  0.79315337696E+02 0.  0.
         -6    2    1    2    0  503  0.31889675305E+02  0.15417848557E+02  0.17274514561E+03  0.24760958556E+03  0.17382450944E+03 0.  0.
        -24    2    5    5    0    0  0.46938157807E+02  0.51565042942E+02  0.17242507143E+03  0.20817268742E+03  0.93505712220E+02 0.  0.
          4    1    4    4  501    0 -0.59824711480E+02 -0.40493539089E+02 -0.49980868038E+02  0.87845375413E+02  0.00000000000E+00 0. -1.
         -3    1    4    4    0  501 -0.31401851407E+01  0.22198655071E+02 -0.53908244206E+02  0.58384414385E+02  0.00000000000E+00 0.  1.
          5    1    3    3  502    0  0.31075221316E+02  0.28770354604E+01  0.30943390800E+02  0.44198757303E+02  0.47000000000E+01 0. -1.
         13    1    6    6    0    0  0.58989861942E+02 -0.10931794442E+00  0.61543744161E+02  0.85249329662E+02  0.00000000000E+00 0. -1.
        -14    1    6    6    0    0 -0.12051704135E+02  0.51674360886E+02  0.11088132726E+03  0.12292335775E+03  0.00000000000E+00 0.  1.
         -5    1    5    5    0  503 -0.15048482502E+02 -0.36147194385E+02  0.32007418822E+00  0.39436898141E+02  0.47000000000E+01 0.  1.
<mgrwt>
<rscale>  2 0.17702222E+03</rscale>
<asrwt>0</asrwt>
<pdfrwt beam="1">  1       21 0.41372120E-01 0.17739679E+03</pdfrwt>
<pdfrwt beam="2">  1       21 0.26018362E-01 0.17739679E+03</pdfrwt>
<totfact> 0.79440749E+04</totfact>
</mgrwt>
</event>
<event>
12    1  0.2769346E-001  0.1882206E+03  0.7546771E-02  0.1162561E+00
         21   -1    0    0  504  503  0.00000000000E+00  0.00000000000E+00  0.16197197356E+04  0.16197197356E+04  0.00000000000E+00 0. -1.
         21   -1    0    0  502  504 -0.00000000000E+00 -0.00000000000E+00 -0.74494517145E+02  0.74494517145E+02  0.00000000000E+00 0. -1.
          6    2    1    2  502    0  0.13245974895E+02 -0.40773578071E+02  0.46412580297E+02  0.18362949318E+03  0.17241729216E+03 0.  0.
         24    2    3    3    0    0  0.59720023362E+02 -0.68413683924E+02  0.13962965504E+02  0.12039279392E+03  0.77798117489E+02 0.  0.
         -6    2    1    2    0  503 -0.13245974895E+02  0.40773578071E+02  0.14988126381E+04  0.15105847595E+04  0.18327315954E+03 0.  0.
        -24    2    5    5    0    0 -0.65542872725E+02  0.65047946909E+02  0.79518221338E+03  0.80458045705E+03  0.80671282495E+02 0.  0.
          2    1    4    4  501    0  0.37364612766E+02 -0.78341887416E+02  0.29197822240E+02  0.91575534039E+02  0.00000000000E+00 0. -1.
         -1    1    4    4    0  501  0.22355410596E+02  0.99282034921E+01 -0.15234856736E+02  0.28817259885E+02  0.00000000000E+00 0.  1.
          5    1    3    3  502    0 -0.46474048467E+02  0.27640105853E+02  0.32449614793E+02  0.63236699255E+02  0.47000000000E+01 0. -1.
         11    1    6    6    0    0 -0.57312720912E+02  0.56537875684E+02  0.78454516673E+03  0.78866494661E+03  0.00000000000E+00 0. -1.
        -12    1    6    6    0    0 -0.82301518121E+01  0.85100712243E+01  0.10637046651E+02  0.15915510440E+02  0.00000000000E+00 0.  1.
         -5    1    5    5    0  503  0.52296897830E+02 -0.24274368838E+02  0.70363042473E+03  0.70600430248E+03  0.47000000000E+01 0.  1.
<mgrwt>
<rscale>  2 0.18552490E+03</rscale>
<asrwt>0</asrwt>
<pdfrwt beam="1">  1       21 0.24918763E+00 0.18822059E+03</pdfrwt>
<pdfrwt beam="2">  1       21 0.11460696E-01 0.18822059E+03</pdfrwt>
<totfact> 0.43031650E+03</totfact>
</mgrwt>
</event>
<event>
12    1  0.2769346E-001  0.2218649E+03  0.7546771E-02  0.1132546E+00
         21   -1    0    0  504  503  0.00000000000E+00  0.00000000000E+00  0.19011774984E+03  0.19011774984E+03  0.00000000000E+00 0.  1.
         21   -1    0    0  502  504 -0.00000000000E+00 -0.00000000000E+00 -0.26010035431E+03  0.26010035431E+03  0.00000000000E+00 0.  1.
          6    2    1    2  502    0 -0.87774774855E+02  0.10679848226E+03 -0.18007829296E+02  0.22234667165E+03  0.17321499231E+03 0.  0.
         24    2    3    3    0    0 -0.50326786926E+02  0.45910727244E+02 -0.78335177571E+02  0.12869225658E+03  0.76057323784E+02 0.  0.
         -6    2    1    2    0  503  0.87774774855E+02 -0.10679848226E+03 -0.51974775179E+02  0.22787143251E+03  0.17353295245E+03 0.  0.
        -24    2    5    5    0    0  0.67936255795E+02 -0.32621144052E+02  0.31085614061E+02  0.11465940752E+03  0.80628719695E+02 0.  0.
          2    1    4    4  501    0 -0.20776740722E+02 -0.20181147750E+02 -0.15617384458E+02  0.32906752755E+02  0.00000000000E+00 0. -1.
         -1    1    4    4    0  501 -0.29550046204E+02  0.66091874995E+02 -0.62717793113E+02  0.95785503830E+02  0.00000000000E+00 0.  1.
          5    1    3    3  502    0 -0.37447987928E+02  0.60887755015E+02  0.60327348275E+02  0.93654415061E+02  0.47000000000E+01 0. -1.
         11    1    6    6    0    0  0.39106422960E+02  0.24550602062E+02  0.16092756434E+02  0.48898069369E+02  0.00000000000E+00 0. -1.
        -12    1    6    6    0    0  0.28829832835E+02 -0.57171746115E+02  0.14992857628E+02  0.65761338147E+02  0.00000000000E+00 0.  1.
         -5    1    5    5    0  503  0.19838519060E+02 -0.74177338207E+02 -0.83060389240E+02  0.11321202499E+03  0.47000000000E+01 0.  1.
<mgrwt>
<rscale>  2 0.22180267E+03</rscale>
<asrwt>0</asrwt>
<pdfrwt beam="1">  1       21 0.29248885E-01 0.22186485E+03</pdfrwt>
<pdfrwt beam="2">  1       21 0.40015439E-01 0.22186485E+03</pdfrwt>
<totfact> 0.66525914E+04</totfact>
</mgrwt>
</event>
<event>
12    1  0.2769346E-001  0.1865641E+03  0.7546771E-02  0.1161924E+00
         21   -1    0    0  504  503  0.00000000000E+00  0.00000000000E+00  0.68814087741E+03  0.68814087741E+03  0.00000000000E+00 0. -1.
         21   -1    0    0  502  504 -0.00000000000E+00 -0.00000000000E+00 -0.55444049322E+02  0.55444049322E+02  0.00000000000E+00 0.  1.
          6    2    1    2  502    0 -0.57354321752E+01  0.67149021311E+02  0.20090702497E+03  0.27321420595E+03  0.17245429367E+03 0.  0.
         24    2    3    3    0    0  0.57851255340E+02  0.70349641191E+02  0.15748680708E+03  0.19600723659E+03  0.72944517485E+02 0.  0.
         -6    2    1    2    0  503  0.57354321752E+01 -0.67149021311E+02  0.43178980312E+03  0.47037072078E+03  0.17396636067E+03 0.  0.
        -24    2    5    5    0    0  0.33336228121E+02 -0.27891994874E+02  0.40560711487E+03  0.41550232163E+03  0.78966956147E+02 0.  0.
          2    1    4    4  501    0  0.51773003168E+02  0.35154875158E+02  0.14541034338E+03  0.15830501277E+03  0.00000000000E+00 0. -1.
         -1    1    4    4    0  501  0.60782521715E+01  0.35194766033E+02  0.12076463694E+02  0.37702223819E+02  0.00000000000E+00 0.  1.
          5    1    3    3  502    0 -0.63586687515E+02 -0.32006198796E+01  0.43420217893E+02  0.77206969366E+02  0.47000000000E+01 0. -1.
         11    1    6    6    0    0  0.41550920743E+02  0.55922611179E+01  0.10714795238E+03  0.11505840299E+03  0.00000000000E+00 0. -1.
        -12    1    6    6    0    0 -0.82146926221E+01 -0.33484255991E+02  0.29845916249E+03  0.30044391864E+03  0.00000000000E+00 0.  1.
         -5    1    5    5    0  503 -0.27600795946E+02 -0.39257026438E+02  0.26182688249E+02  0.54868399152E+02  0.47000000000E+01 0.  1.
<mgrwt>
<rscale>  2 0.18621085E+03</rscale>
<asrwt>0</asrwt>
<pdfrwt beam="1">  1       21 0.10586782E+00 0.18656415E+03</pdfrwt>
<pdfrwt beam="2">  1       21 0.85298542E-02 0.18656415E+03</pdfrwt>
<totfact> 0.77071221E+04</totfact>
</mgrwt>
</event>
<event>
12    1  0.2769346E-001  0.2672850E+03  0.7546771E-02  0.1102861E+00
         21   -1    0    0  504  503  0.00000000000E+00  0.00000000000E+00  0.52493153083E+03  0.52493153083E+03  0.00000000000E+00 0. -1.
         21   -1    0    0  502  504 -0.00000000000E+00 -0.00000000000E+00 -0.19233248052E+03  0.19233248052E+03  0.00000000000E+00 0.  1.
          6    2    1    2  502    0  0.45063194062E+02  0.19933913362E+03 -0.27753472148E+02  0.26860463652E+03  0.17207967310E+03 0.  0.
         24    2    3    3    0    0 -0.11089302487E+02  0.61387924299E+02  0.33418434921E+02  0.10752164165E+03  0.80948512966E+02 0.  0.
         -6    2    1    2    0  503 -0.45063194062E+02 -0.19933913362E+03  0.36035252246E+03  0.44865937483E+03  0.17226291687E+03 0.  0.
        -24    2    5    5    0    0 -0.34386468475E+02 -0.29989857630E+02  0.88250983819E+02  0.12794999381E+03  0.80629671926E+02 0.  0.
          2    1    4    4  501    0 -0.55220497838E+01  0.70823052622E+02  0.50549334025E+02  0.87187344190E+02  0.00000000000E+00 0. -1.
         -1    1    4    4    0  501 -0.55672527036E+01 -0.94351283231E+01 -0.17130899104E+02  0.20334297462E+02  0.00000000000E+00 0.  1.
          5    1    3    3  502    0  0.56152496549E+02  0.13795120932E+03 -0.61171907069E+02  0.16108299487E+03  0.47000000000E+01 0. -1.
         13    1    6    6    0    0  0.13175930990E+02 -0.12644804189E+02  0.72744996235E+02  0.75002204686E+02  0.00000000000E+00 0. -1.
        -14    1    6    6    0    0 -0.47562399465E+02 -0.17345053441E+02  0.15505987583E+02  0.52947789120E+02  0.00000000000E+00 0.  1.
         -5    1    5    5    0  503 -0.10676725586E+02 -0.16934927599E+03  0.27210153864E+03  0.32070938103E+03  0.47000000000E+01 0.  1.
<mgrwt>
<rscale>  2 0.26725552E+03</rscale>
<asrwt>0</asrwt>
<pdfrwt beam="1">  1       21 0.80758696E-01 0.26728504E+03</pdfrwt>
<pdfrwt beam="2">  1       21 0.29589613E-01 0.26728504E+03</pdfrwt>
<totfact> 0.14123510E+04</totfact>
</mgrwt>
</event>
<event>
12    1  0.2769346E-001  0.1942474E+03  0.7546771E-02  0.1156536E+00
         21   -1    0    0  504  503  0.00000000000E+00  0.00000000000E+00  0.22884836116E+03  0.22884836116E+03  0.00000000000E+00 0.  1.
         21   -1    0    0  502  504 -0.00000000000E+00 -0.00000000000E+00 -0.34315519648E+03  0.34315519648E+03  0.00000000000E+00 0.  1.
          6    2    1    2  502    0 -0.85233466633E+02  0.23701238091E+02 -0.26667235838E+03  0.32512846859E+03  0.16360892960E+03 0.  0.
         24    2    3    3    0    0 -0.93537302477E+02 -0.92416469795E+01 -0.26363480587E+03  0.29069731857E+03  0.78530154493E+02 0.  0.
         -6    2    1    2    0  503  0.85233466633E+02 -0.23701238091E+02  0.15236552306E+03  0.24687508904E+03  0.17293225394E+03 0.  0.
        -24    2    5    5    0    0 -0.68839359099E+01 -0.58833265870E+01  0.15351385824E+02  0.80748457756E+02  0.78756880829E+02 0.  0.
          2    1    4    4  501    0 -0.84499924359E+02 -0.34284522499E+02 -0.16488702295E+03  0.18842344874E+03  0.00000000000E+00 0. -1.
         -1    1    4    4    0  501 -0.90373781186E+01  0.25042875519E+02 -0.98747782923E+02  0.10227386983E+03  0.00000000000E+00 0.  1.
          5    1    3    3  502    0  0.83038358440E+01  0.32942885070E+02 -0.30375525091E+01  0.34431150020E+02  0.47000000000E+01 0. -1.
         11    1    6    6    0    0 -0.28073259609E+02  0.20592099291E+02  0.27874089094E+02  0.44599409201E+02  0.00000000000E+00 0. -1.
        -12    1    6    6    0    0  0.21189323699E+02 -0.26475425878E+02 -0.12522703270E+02  0.36149048555E+02  0.00000000000E+00 0.  1.
         -5    1    5    5    0  503  0.92117402543E+02 -0.17817911504E+02  0.13701413723E+03  0.16612663129E+03  0.47000000000E+01 0.  1.
<mgrwt>
<rscale>  2 0.19215076E+03</rscale>
<asrwt>0</asrwt>
<pdfrwt beam="1">  1       21 0.35207440E-01 0.19424741E+03</pdfrwt>
<pdfrwt beam="2">  1       21 0.52793107E-01 0.19424741E+03</pdfrwt>
<totfact> 0.26425572E+04</totfact>
</mgrwt>
</event>
<event>
12    1  0.2769346E-001  0.2951275E+03  0.7546771E-02  0.1087736E+00
         21   -1    0    0  504  503  0.00000000000E+00  0.00000000000E+00  0.32559507327E+03  0.32559507327E+03  0.00000000000E+00 0. -1.
         21   -1    0    0  502  504 -0.00000000000E+00 -0.00000000000E+00 -0.30799114470E+03  0.30799114470E+03  0.00000000000E+00 0.  1.
          6    2    1    2  502    0 -0.16586087145E+03 -0.17192628773E+03 -0.10638149004E+03  0.31371529095E+03  0.17329681262E+03 0.  0.
         24    2    3    3    0    0 -0.46638311789E+02 -0.97490309656E+02 -0.11075546515E+03  0.17301719139E+03  0.77386580569E+02 0.  0.
         -6    2    1    2    0  503  0.16586087145E+03  0.17192628773E+03  0.12398541861E+03  0.31987092702E+03  0.17284834057E+03 0.  0.
        -24    2    5    5    0    0  0.14046457345E+03  0.71393810844E+02  0.11836126005E+03  0.21592155464E+03  0.88234671501E+02 0.  0.
          4    1    4    4  501    0 -0.45808480986E+02 -0.24442609963E+02 -0.76190770652E+02  0.92200280068E+02  0.00000000000E+00 0. -1.
         -3    1    4    4    0  501 -0.82983080244E+00 -0.73047699693E+02 -0.34564694496E+02  0.80816911319E+02  0.00000000000E+00 0.  1.
          5    1    3    3  502    0 -0.11922255966E+03 -0.74435978072E+02  0.43739751096E+01  0.14069809956E+03  0.47000000000E+01 0. -1.
         13    1    6    6    0    0  0.12038000065E+03  0.91589613439E+02  0.91573534064E+02  0.17682113558E+03  0.00000000000E+00 0. -1.
        -14    1    6    6    0    0  0.20084572800E+02 -0.20195802595E+02  0.26787725986E+02  0.39100419058E+02  0.00000000000E+00 0.  1.
         -5    1    5    5    0  503  0.25396298000E+02  0.10053247688E+03  0.56241585556E+01  0.10394937239E+03  0.47000000000E+01 0.  1.
<mgrwt>
<rscale>  2 0.29506173E+03</rscale>
<asrwt>0</asrwt>
<pdfrwt beam="1">  1       21 0.50091550E-01 0.29512754E+03</pdfrwt>
<pdfrwt beam="2">  1       21 0.47383253E-01 0.29512754E+03</pdfrwt>
<totfact> 0.15327031E+04</totfact>
</mgrwt>
</event>
<event>
12    1  0.2769346E-001  0.2171922E+03  0.7546771E-02  0.1136519E+00
         21   -1    0    0  504  503  0.00000000000E+00  0.00000000000E+00  0.65785211017E+02  0.65785211017E+02  0.00000000000E+00 0.  1.
         21   -1    0    0  502  504 -0.00000000000E+00 -0.00000000000E+00 -0.88193496371E+03  0.88193496371E+03  0.00000000000E+00 0. -1.
          6    2    1    2  502    0  0.73644838856E+02  0.10838738847E+03 -0.19555162213E+03  0.29021391964E+03  0.16974184507E+03 0.  0.
         24    2    3    3    0    0  0.20991977257E+01 -0.48459568372E+01 -0.86440245704E+02  0.11739044983E+03  0.79250941350E+02 0.  0.
         -6    2    1    2    0  503 -0.73644838856E+02 -0.10838738847E+03 -0.62059813057E+03  0.65750625509E+03  0.17320810473E+03 0.  0.
        -24    2    5    5    0    0 -0.24423656256E+02  0.15178481852E+02 -0.27302122914E+03  0.28531941823E+03  0.77715362451E+02 0.  0.
          4    1    4    4  501    0 -0.18639649789E+02  0.15551768872E+02 -0.84854181242E+02  0.88258292152E+02  0.00000000000E+00 0. -1.
         -3    1    4    4    0  501  0.20738847515E+02 -0.20397725709E+02 -0.15860644612E+01  0.29132157676E+02  0.00000000000E+00 0.  1.
          5    1    3    3  502    0  0.71545641130E+02  0.11323334530E+03 -0.10911137642E+03  0.17282346981E+03  0.47000000000E+01 0. -1.
         11    1    6    6    0    0  0.26961216743E+02 -0.53217226099E+01 -0.85558938801E+02  0.89864119361E+02  0.00000000000E+00 0. -1.
        -12    1    6    6    0    0 -0.51384873000E+02  0.20500204462E+02 -0.18746229034E+03  0.19545529887E+03  0.00000000000E+00 0.  1.
         -5    1    5    5    0  503 -0.49221182600E+02 -0.12356587032E+03 -0.34757690143E+03  0.37218683686E+03  0.47000000000E+01 0.  1.
<mgrwt>
<rscale>  2 0.21650034E+03</rscale>
<asrwt>0</asrwt>
<pdfrwt beam="1">  1       21 0.10120802E-01 0.21719216E+03</pdfrwt>
<pdfrwt beam="2">  1       21 0.13568229E+00 0.21719216E+03</pdfrwt>
<totfact> 0.30365341E+04</totfact>
</mgrwt>
</event>
<event>
12    1  0.2769346E-001  0.1957315E+03  0.7546771E-02  0.1154119E+00
         21   -1    0    0  504  503  0.00000000000E+00  0.00000000000E+00  0.16416232159E+03  0.16416232159E+03  0.00000000000E+00 0. -1.
         21   -1    0    0  502  504 -0.00000000000E+00 -0.00000000000E+00 -0.23474730979E+03  0.23474730979E+03  0.00000000000E+00 0. -1.
          6    2    1    2  502    0  0.28220455685E+01 -0.92874041611E+02 -0.65622223229E+02  0.20643912397E+03  0.17227096151E+03 0.  0.
         24    2    3    3    0    0 -0.14445999908E+02  0.80611240186E+01 -0.61966540556E+02  0.10386453126E+03  0.81696511986E+02 0.  0.
         -6    2    1    2    0  503 -0.28220455685E+01  0.92874041611E+02 -0.49627649709E+01  0.19247050740E+03  0.16848357675E+03 0.  0.
        -24    2    5    5    0    0  0.13798738170E+02  0.97646134975E+02 -0.55637896992E+02  0.13872032291E+03  0.80140997974E+02 0.  0.
          2    1    4    4  501    0 -0.50453226084E+01 -0.36488803203E+02 -0.19862257109E+02  0.41849698886E+02  0.00000000000E+00 0. -1.
         -1    1    4    4    0  501 -0.94006773000E+01  0.44549927222E+02 -0.42104283447E+02  0.62014832369E+02  0.00000000000E+00 0.  1.
          5    1    3    3  502    0  0.17268045477E+02 -0.10093516563E+03 -0.36556826732E+01  0.10257459272E+03  0.47000000000E+01 0. -1.
         13    1    6    6    0    0  0.13445157780E+02  0.39716423191E+02  0.17485622142E+02  0.45430314994E+02  0.00000000000E+00 0. -1.
        -14    1    6    6    0    0  0.35358038915E+00  0.57929711784E+02 -0.73123519134E+02  0.93290007916E+02  0.00000000000E+00 0.  1.
         -5    1    5    5    0  503 -0.16620783738E+02 -0.47720933633E+01  0.50675132021E+02  0.53750184488E+02  0.47000000000E+01 0.  1.
<mgrwt>
<rscale>  2 0.19489494E+03</rscale>
<asrwt>0</asrwt>
<pdfrwt beam="1">  1       21 0.25255742E-01 0.19573154E+03</pdfrwt>
<pdfrwt beam="2">  1       21 0.36114971E-01 0.19573154E+03</pdfrwt>
<totfact> 0.10970523E+05</totfact>
</mgrwt>
</event>
<event>
12    1  0.2769346E-001  0.2367025E+03  0.7546771E-02  0.1122419E+00
         21   -1    0    0  504  503  0.00000000000E+00  0.00000000000E+00  0.17959134156E+03  0.17959134156E+03  0.00000000000E+00 0.  1.
         21   -1    0    0  502  504 -0.00000000000E+00 -0.00000000000E+00 -0.32293508877E+03  0.32293508877E+03  0.00000000000E+00 0.  1.
          6    2    1    2  502    0  0.40633248398E+02  0.15523774651E+03 -0.12456809484E+03  0.26747954445E+03  0.17400654479E+03 0.  0.
         24    2    3    3    0    0  0.89908371626E+02  0.72896272966E+02 -0.64285212833E+02  0.15405877079E+03  0.78766327624E+02 0.  0.
         -6    2    1    2    0  503 -0.40633248398E+02 -0.15523774651E+03 -0.18775652361E+02  0.23504688588E+03  0.17071817309E+03 0.  0.
        -24    2    5    5    0    0 -0.59956038773E+02 -0.96921037139E+02 -0.68792219429E+02  0.15568722484E+03  0.80732450096E+02 0.  0.
          4    1    4    4  501    0  0.30520656262E+02 -0.14740776265E+02 -0.19576738747E+02  0.39141405743E+02  0.00000000000E+00 0. -1.
         -3    1    4    4    0  501  0.59387715364E+02  0.87637049231E+02 -0.44708474087E+02  0.11491736505E+03  0.00000000000E+00 0.  1.
          5    1    3    3  502    0 -0.49275123228E+02  0.82341473543E+02 -0.60282882008E+02  0.11342077366E+03  0.47000000000E+01 0. -1.
         13    1    6    6    0    0 -0.26715777440E+02  0.89965395870E+01 -0.89647802885E+01  0.29581037412E+02  0.00000000000E+00 0. -1.
        -14    1    6    6    0    0 -0.33240261333E+02 -0.10591757673E+03 -0.59827439140E+02  0.12610618743E+03  0.00000000000E+00 0.  1.
         -5    1    5    5    0  503  0.19322790375E+02 -0.58316709370E+02  0.50016567068E+02  0.79359661043E+02  0.47000000000E+01 0.  1.
<mgrwt>
<rscale>  2 0.23609855E+03</rscale>
<asrwt>0</asrwt>
<pdfrwt beam="1">  1       21 0.27629437E-01 0.23670255E+03</pdfrwt>
<pdfrwt beam="2">  1       21 0.49682321E-01 0.23670255E+03</pdfrwt>
<totfact> 0.47295385E+04</totfact>
</mgrwt>
</event>
<event>
12    1  0.2769346E-001  0.2367270E+03  0.7546771E-02  0.1122211E+00
         21   -1    0    0  504  503  0.00000000000E+00  0.00000000000E+00  0.31735523458E+03  0.31735523458E+03  0.00000000000E+00 0.  1.
         21   -1    0    0  502  504 -0.00000000000E+00 -0.00000000000E+00 -0.31531921172E+03  0.31531921172E+03  0.00000000000E+00 0. -1.
          6    2    1    2  502    0 -0.11811762674E+03  0.11077514924E+03 -0.20953588293E+03  0.31518059336E+03  0.17091112532E+03 0.  0.
         24    2    3    3    0    0 -0.11541822438E+03  0.63520399658E+02 -0.22011654200E+03  0.26645340918E+03  0.72041095987E+02 0.  0.
         -6    2    1    2    0  503  0.11811762674E+03 -0.11077514924E+03  0.21157190579E+03  0.31749385294E+03  0.17267532511E+03 0.  0.
        -24    2    5    5    0    0  0.62221799763E+02 -0.57021364757E+02  0.31450438308E+02  0.12133155823E+03  0.81297161991E+02 0.  0.
          4    1    4    4  501    0 -0.79457768581E+02  0.50420199224E+02 -0.20450823300E+03  0.22512074725E+03  0.00000000000E+00 0. -1.
         -3    1    4    4    0  501 -0.35960455795E+02  0.13100200433E+02 -0.15608308999E+02  0.41332661929E+02  0.00000000000E+00 0.  1.
          5    1    3    3  502    0 -0.26994023601E+01  0.47254749584E+02  0.10580659069E+02  0.48727184176E+02  0.47000000000E+01 0. -1.
         11    1    6    6    0    0  0.10981158942E+02 -0.35194336621E+02 -0.22989977716E+02  0.43448432162E+02  0.00000000000E+00 0. -1.
        -12    1    6    6    0    0  0.51240640821E+02 -0.21827028136E+02  0.54440416024E+02  0.77883126067E+02  0.00000000000E+00 0.  1.
         -5    1    5    5    0  503  0.55895826973E+02 -0.53753784485E+02  0.18012146748E+03  0.19616229471E+03  0.47000000000E+01 0.  1.
<mgrwt>
<rscale>  2 0.23640541E+03</rscale>
<asrwt>0</asrwt>
<pdfrwt beam="1">  1       21 0.48823883E-01 0.23672701E+03</pdfrwt>
<pdfrwt beam="2">  1       21 0.48510648E-01 0.23672701E+03</pdfrwt>
<totfact> 0.15831514E+04</totfact>
</mgrwt>
</event>
<event>
12    1  0.2769346E-001  0.1984155E+03  0.7546771E-02  0.1151166E+00
         21   -1    0    0  504  503  0.00000000000E+00  0.00000000000E+00  0.30636493209E+03  0.30636493209E+03  0.00000000000E+00 0.  1.
         21   -1    0    0  502  504 -0.00000000000E+00 -0.00000000000E+00 -0.17280484824E+03  0.17280484824E+03  0.00000000000E+00 0.  1.
          6    2    1    2  502    0 -0.77387102799E+02  0.55668145530E+02 -0.54922242678E+02  0.20550154848E+03  0.17357052625E+03 0.  0.
         24    2    3    3    0    0 -0.61140735821E+02  0.24474782073E+02 -0.10246251396E+03  0.14617922758E+03  0.80824471996E+02 0.  0.
         -6    2    1    2    0  503  0.77387102799E+02 -0.55668145530E+02  0.18848232653E+03  0.27366823184E+03  0.17401438906E+03 0.  0.
        -24    2    5    5    0    0  0.20156059240E+02  0.12896932922E+02  0.26605972690E+02  0.88728765362E+02  0.81193093407E+02 0.  0.
          2    1    4    4  501    0 -0.52451307105E+02  0.95525068179E+01 -0.11369847222E+03  0.12557759589E+03  0.00000000000E+00 0. -1.
         -1    1    4    4    0  501 -0.86894287161E+01  0.14922275256E+02  0.11235958260E+02  0.20601631689E+02  0.00000000000E+00 0.  1.
          5    1    3    3  502    0 -0.16246366978E+02  0.31193363456E+02  0.47540271285E+02  0.59322320905E+02  0.47000000000E+01 0. -1.
         13    1    6    6    0    0  0.38179028658E+02  0.20858303960E+02  0.44413255288E+02  0.62171089090E+02  0.00000000000E+00 0. -1.
        -14    1    6    6    0    0 -0.18022969418E+02 -0.79613710378E+01 -0.17807282598E+02  0.26557676272E+02  0.00000000000E+00 0.  1.
         -5    1    5    5    0  503  0.57231043559E+02 -0.68565078452E+02  0.16187635384E+03  0.18493946648E+03  0.47000000000E+01 0.  1.
<mgrwt>
<rscale>  2 0.19831815E+03</rscale>
<asrwt>0</asrwt>
<pdfrwt beam="1">  1       21 0.47133066E-01 0.19841551E+03</pdfrwt>
<pdfrwt beam="2">  1       21 0.26585361E-01 0.19841551E+03</pdfrwt>
<totfact> 0.57838421E+04</totfact>
</mgrwt>
</event>
<event>
12    1  0.2769346E-001  0.1743349E+03  0.7546771E-02  0.1174215E+00
         21   -1    0    0  504  503  0.00000000000E+00  0.00000000000E+00  0.35603020578E+03  0.35603020578E+03  0.00000000000E+00 0.  1.
         21   -1    0    0  502  504 -0.00000000000E+00 -0.00000000000E+00 -0.11947550981E+03  0.11947550981E+03  0.00000000000E+00 0.  1.
          6    2    1    2  502    0 -0.16966903716E+02 -0.59599636916E+01  0.24894228423E+03  0.30391598574E+03  0.17340492646E+03 0.  0.
         24    2    3    3    0    0 -0.21943923932E+02 -0.44987933414E+02  0.60922652438E+02  0.11176649942E+03  0.79213198794E+02 0.  0.
         -6    2    1    2    0  503  0.16966903716E+02  0.59599636916E+01 -0.12387588267E+02  0.17158972985E+03  0.17019455355E+03 0.  0.
        -24    2    5    5    0    0  0.62522622448E+02  0.88520613728E+01  0.32474238142E+02  0.10741527070E+03  0.80597933778E+02 0.  0.
          2    1    4    4  501    0 -0.34932404028E+02 -0.60506644294E+02  0.32964098596E+02  0.77252564043E+02  0.00000000000E+00 0. -1.
         -1    1    4    4    0  501  0.12988480096E+02  0.15518710880E+02  0.27958553841E+02  0.34513935381E+02  0.00000000000E+00 0.  1.
          5    1    3    3  502    0  0.49770202160E+01  0.39027969722E+02  0.18801963180E+03  0.19214948632E+03  0.47000000000E+01 0. -1.
         11    1    6    6    0    0 -0.10862636314E+02  0.19278600023E+02  0.24265026561E+02  0.32839805124E+02  0.00000000000E+00 0. -1.
        -12    1    6    6    0    0  0.73385258762E+02 -0.10426538651E+02  0.82092115808E+01  0.74575465580E+02  0.00000000000E+00 0.  1.
         -5    1    5    5    0  503 -0.45555718732E+02 -0.28920976813E+01 -0.44861826408E+02  0.64174459147E+02  0.47000000000E+01 0.  1.
<mgrwt>
<rscale>  2 0.17353115E+03</rscale>
<asrwt>0</asrwt>
<pdfrwt beam="1">  1       21 0.54773878E-01 0.17433492E+03</pdfrwt>
<pdfrwt beam="2">  1       21 0.18380848E-01 0.17433492E+03</pdfrwt>
<totfact> 0.85616030E+04</totfact>
</mgrwt>
</event>
<event>
12    1  0.2769346E-001  0.2071387E+03  0.7546771E-02  0.1143971E+00
         21   -1    0    0  504  503  0.00000000000E+00  0.00000000000E+00  0.20387246220E+03  0.20387246220E+03  0.00000000000E+00 0. -1.
         21   -1    0    0  502  504 -0.00000000000E+00 -0.00000000000E+00 -0.34200963654E+03  0.34200963654E+03  0.00000000000E+00 0. -1.
          6    2    1    2  502    0 -0.35736742617E+02  0.10857517200E+03 -0.23879103644E+03  0.31611325348E+03  0.17274474577E+03 0.  0.
         24    2    3    3    0    0 -0.86779747305E+02  0.75322415705E+02 -0.14656412456E+03  0.20548311561E+03  0.86822101698E+02 0.  0.
         -6    2    1    2    0  503  0.35736742617E+02 -0.10857517200E+03  0.10065386210E+03  0.22976884526E+03  0.17203732022E+03 0.  0.
        -24    2    5    5    0    0  0.81996187723E+02 -0.58462780480E+02  0.97522365947E+02  0.16133578079E+03  0.79858317032E+02 0.  0.
          2    1    4    4  501    0 -0.10116033020E+03  0.79710256099E+02 -0.13436835026E+03  0.18612359035E+03  0.00000000000E+00 0. -1.
         -1    1    4    4    0  501  0.14380582891E+02 -0.43878403940E+01 -0.12195774295E+02  0.19359525259E+02  0.00000000000E+00 0.  1.
          5    1    3    3  502    0  0.51043004688E+02  0.33252756292E+02 -0.92226911886E+02  0.11063013787E+03  0.47000000000E+01 0. -1.
         11    1    6    6    0    0  0.44795089121E+02 -0.74255523741E+02  0.77174918609E+02  0.11608811687E+03  0.00000000000E+00 0. -1.
        -12    1    6    6    0    0  0.37201098602E+02  0.15792743261E+02  0.20347447338E+02  0.45247663918E+02  0.00000000000E+00 0.  1.
         -5    1    5    5    0  503 -0.46259445107E+02 -0.50112391517E+02  0.31314961541E+01  0.68433064474E+02  0.47000000000E+01 0.  1.
<mgrwt>
<rscale>  2 0.20699112E+03</rscale>
<asrwt>0</asrwt>
<pdfrwt beam="1">  1       21 0.31364994E-01 0.20713867E+03</pdfrwt>
<pdfrwt beam="2">  1       21 0.52616867E-01 0.20713867E+03</pdfrwt>
<totfact> 0.33194897E+04</totfact>
</mgrwt>
</event>
<event>
12    1  0.2769346E-001  0.2782300E+03  0.7546771E-02  0.1096686E+00
         21   -1    0    0  504  503  0.00000000000E+00  0.00000000000E+00  0.30108508685E+03  0.30108508685E+03  0.00000000000E+00 0.  1.
         21   -1    0    0  502  504 -0.00000000000E+00 -0.00000000000E+00 -0.71721258745E+03  0.71721258745E+03  0.00000000000E+00 0.  1.
          6    2    1    2  502    0 -0.12680910940E+03  0.17630639600E+03 -0.61591754968E+03  0.67576595298E+03  0.17361077067E+03 0.  0.
         24    2    3    3    0    0 -0.13505124485E+03  0.20072831974E+03 -0.57738343553E+03  0.62916840894E+03  0.62853465399E+02 0.  0.
         -6    2    1    2    0  503  0.12680910940E+03 -0.17630639600E+03  0.19979004908E+03  0.34253172133E+03  0.17391785677E+03 0.  0.
        -24    2    5    5    0    0  0.92777176171E+02 -0.42605204107E+02  0.51360905897E+02  0.13983124836E+03  0.80573119141E+02 0.  0.
          4    1    4    4  501    0 -0.61834526826E+02  0.13130463218E+03 -0.39366156116E+03  0.41956386865E+03  0.00000000000E+00 0. -1.
         -3    1    4    4    0  501 -0.73216718020E+02  0.69423687561E+02 -0.18372187437E+03  0.20960454030E+03  0.00000000000E+00 0.  1.
          5    1    3    3  502    0  0.82421354413E+01 -0.24421923741E+02 -0.38534114158E+02  0.46597544031E+02  0.47000000000E+01 0. -1.
         11    1    6    6    0    0 -0.52222542992E+01 -0.22761529173E+02 -0.65877870317E+01  0.24264337787E+02  0.00000000000E+00 0. -1.
        -12    1    6    6    0    0  0.97999430470E+02 -0.19843674935E+02  0.57948692929E+02  0.11556691057E+03  0.00000000000E+00 0.  1.
         -5    1    5    5    0  503  0.34031933233E+02 -0.13370119189E+03  0.14842914319E+03  0.20270047297E+03  0.47000000000E+01 0.  1.
<mgrwt>
<rscale>  2 0.27818199E+03</rscale>
<asrwt>0</asrwt>
<pdfrwt beam="1">  1       21 0.46320783E-01 0.27822997E+03</pdfrwt>
<pdfrwt beam="2">  1       21 0.11034040E+00 0.27822997E+03</pdfrwt>
<totfact> 0.27162065E+03</totfact>
</mgrwt>
</event>
<event>
12    1  0.2769346E-001  0.2830817E+03  0.7546771E-02  0.1094277E+00
         21   -1    0    0  504  503  0.00000000000E+00  0.00000000000E+00  0.13939765718E+03  0.13939765718E+03  0.00000000000E+00 0.  1.
         21   -1    0    0  502  504 -0.00000000000E+00 -0.00000000000E+00 -0.71477378115E+03  0.71477378115E+03  0.00000000000E+00 0.  1.
          6    2    1    2  502    0  0.12295074846E+03 -0.18681316853E+03 -0.96912687960E+02  0.29921112139E+03  0.17354878159E+03 0.  0.
         24    2    3    3    0    0  0.11509759357E+03 -0.20953790400E+03 -0.67326296756E+02  0.26079849080E+03  0.79557735698E+02 0.  0.
         -6    2    1    2    0  503 -0.12295074846E+03  0.18681316853E+03 -0.47846343602E+03  0.55496031694E+03  0.17040436407E+03 0.  0.
        -24    2    5    5    0    0 -0.94305134736E+01  0.93240917531E+02 -0.28308903068E+03  0.31034662524E+03  0.85981540000E+02 0.  0.
          4    1    4    4  501    0  0.41076592045E+02 -0.10848330514E+03  0.50845237250E+01  0.11611100848E+03  0.00000000000E+00 0. -1.
         -3    1    4    4    0  501  0.74021001529E+02 -0.10105459886E+03 -0.72410820481E+02  0.14468748232E+03  0.00000000000E+00 0.  1.
          5    1    3    3  502    0  0.78531548830E+01  0.22724735473E+02 -0.29586391203E+02  0.38412630584E+02  0.47000000000E+01 0. -1.
         13    1    6    6    0    0  0.23201565890E+01  0.17221417488E+02 -0.18441674493E+03  0.18523362588E+03  0.00000000000E+00 0. -1.
        -14    1    6    6    0    0 -0.11750670063E+02  0.76019500042E+02 -0.98672285755E+02  0.12511299936E+03  0.00000000000E+00 0.  1.
         -5    1    5    5    0  503 -0.11352023498E+03  0.93572251000E+02 -0.19537440533E+03  0.24461369170E+03  0.47000000000E+01 0.  1.
<mgrwt>
<rscale>  2 0.28260125E+03</rscale>
<asrwt>0</asrwt>
<pdfrwt beam="1">  1       21 0.21445793E-01 0.28308166E+03</pdfrwt>
<pdfrwt beam="2">  1       21 0.10996520E+00 0.28308166E+03</pdfrwt>
<totfact> 0.12561149E+04</totfact>
</mgrwt>
</event>
<event>
12    1  0.2769346E-001  0.2018317E+03  0.7546771E-02  0.1148705E+00
         21   -1    0    0  504  503  0.00000000000E+00  0.00000000000E+00  0.84105585741E+02  0.84105585741E+02  0.00000000000E+00 0.  1.
         21   -1    0    0  502  504 -0.00000000000E+00 -0.00000000000E+00 -0.68313624711E+03  0.68313624711E+03  0.00000000000E+00 0.  1.
          6    2    1    2  502    0  0.17343738191E+02  0.10346094485E+03 -0.50816280903E+03  0.54589823614E+03  0.16961860562E+03 0.  0.
         24    2    3    3    0    0  0.50446805764E+02  0.10481618719E+03 -0.47083338320E+03  0.49576615262E+03  0.10280413437E+03 0.  0.
         -6    2    1    2    0  503 -0.17343738191E+02 -0.10346094485E+03 -0.90867852337E+02  0.22134359671E+03  0.17242693772E+03 0.  0.
        -24    2    5    5    0    0  0.33929827079E+02 -0.14401679749E+02 -0.58701129991E+01  0.87899837439E+02  0.79581917858E+02 0.  0.
          4    1    4    4  501    0  0.43458129226E+02  0.13566161524E+02 -0.62622746047E+02  0.77422593968E+02  0.00000000000E+00 0. -1.
         -3    1    4    4    0  501  0.69886765381E+01  0.91250025668E+02 -0.40821063715E+03  0.41834355865E+03  0.00000000000E+00 0.  1.
          5    1    3    3  502    0 -0.33103067573E+02 -0.13552423392E+01 -0.37329425834E+02  0.50132083516E+02  0.47000000000E+01 0. -1.
         13    1    6    6    0    0 -0.68424939137E+01 -0.13048429160E+02 -0.34865224183E+02  0.37850562530E+02  0.00000000000E+00 0. -1.
        -14    1    6    6    0    0  0.40772320992E+02 -0.13532505890E+01  0.28995111184E+02  0.50049274908E+02  0.00000000000E+00 0.  1.
         -5    1    5    5    0  503 -0.51273565270E+02 -0.89059265104E+02 -0.84997739338E+02  0.13344375927E+03  0.47000000000E+01 0.  1.
<mgrwt>
<rscale>  2 0.20123052E+03</rscale>
<asrwt>0</asrwt>
<pdfrwt beam="1">  1       21 0.12939321E-01 0.20183167E+03</pdfrwt>
<pdfrwt beam="2">  1       21 0.10509789E+00 0.20183167E+03</pdfrwt>
<totfact> 0.37178999E+04</totfact>
</mgrwt>
</event>
<event>
12    1  0.2769346E-001  0.1747556E+03  0.7546771E-02  0.1173395E+00
         21   -1    0    0  504  503  0.00000000000E+00  0.00000000000E+00  0.45909194791E+02  0.45909194791E+02  0.00000000000E+00 0. -1.
         21   -1    0    0  502  504 -0.00000000000E+00 -0.00000000000E+00 -0.15038619305E+04  0.15038619305E+04  0.00000000000E+00 0. -1.
          6    2    1    2  502    0  0.15099340147E+01 -0.12475472566E+02 -0.13082762952E+04  0.13196786560E+04  0.17264696184E+03 0.  0.
         24    2    3    3    0    0 -0.66279528082E+02 -0.27490142257E+02 -0.69977692886E+03  0.70721280372E+03  0.72893866812E+02 0.  0.
         -6    2    1    2    0  503 -0.15099340147E+01  0.12475472566E+02 -0.14967644056E+03  0.23009246926E+03  0.17430315612E+03 0.  0.
        -24    2    5    5    0    0 -0.36473531500E+02  0.39790200015E+02 -0.38254119810E+02  0.11006925881E+03  0.87967525455E+02 0.  0.
          2    1    4    4  501    0 -0.14586687297E+02  0.12876847252E+02 -0.43337139110E+02  0.47504655221E+02  0.00000000000E+00 0. -1.
         -1    1    4    4    0  501 -0.51692840785E+02 -0.40366989509E+02 -0.65643978975E+03  0.65970814850E+03  0.00000000000E+00 0.  1.
          5    1    3    3  502    0  0.67789462097E+02  0.15014669691E+02 -0.60849936631E+03  0.61246585233E+03  0.47000000000E+01 0. -1.
         11    1    6    6    0    0 -0.27178588967E+02 -0.12883807222E+02  0.15842038348E+02  0.33994681434E+02  0.00000000000E+00 0. -1.
        -12    1    6    6    0    0 -0.92949425331E+01  0.52674007237E+02 -0.54096158158E+02  0.76074577374E+02  0.00000000000E+00 0.  1.
         -5    1    5    5    0  503  0.34963597485E+02 -0.27314727449E+02 -0.11142232075E+03  0.12002321045E+03  0.47000000000E+01 0.  1.
<mgrwt>
<rscale>  2 0.17434113E+03</rscale>
<asrwt>0</asrwt>
<pdfrwt beam="1">  1       21 0.70629525E-02 0.17475557E+03</pdfrwt>
<pdfrwt beam="2">  1       21 0.23136339E+00 0.17475557E+03</pdfrwt>
<totfact> 0.12991596E+04</totfact>
</mgrwt>
</event>
<event>
12    1  0.2769346E-001  0.3440822E+03  0.7546771E-02  0.1065126E+00
         21   -1    0    0  504  503  0.00000000000E+00  0.00000000000E+00  0.28659495961E+03  0.28659495961E+03  0.00000000000E+00 0.  1.
         21   -1    0    0  502  504 -0.00000000000E+00 -0.00000000000E+00 -0.46150241864E+03  0.46150241864E+03  0.00000000000E+00 0. -1.
          6    2    1    2  502    0 -0.12779589040E+03 -0.26894352695E+03 -0.20943442002E+03  0.40280927861E+03  0.17242426847E+03 0.  0.
         24    2    3    3    0    0 -0.15841609421E+03 -0.20070112252E+03 -0.15002500015E+03  0.30717355406E+03  0.80445585053E+02 0.  0.
         -6    2    1    2    0  503  0.12779589040E+03  0.26894352695E+03  0.34526960989E+02  0.34528809964E+03  0.17137488271E+03 0.  0.
        -24    2    5    5    0    0  0.75345264201E+02  0.16534149010E+03 -0.47064802429E+02  0.20328895849E+03  0.78080649531E+02 0.  0.
          4    1    4    4  501    0 -0.13384082034E+03 -0.12479587820E+03 -0.13128469471E+03  0.22521777787E+03  0.00000000000E+00 0. -1.
         -3    1    4    4    0  501 -0.24575273871E+02 -0.75905244327E+02 -0.18740305440E+02  0.81955776185E+02  0.00000000000E+00 0.  1.
          5    1    3    3  502    0  0.30620203808E+02 -0.68242404422E+02 -0.59409419862E+02  0.95635724554E+02  0.47000000000E+01 0. -1.
         11    1    6    6    0    0  0.84141368905E+02  0.10237091770E+03 -0.44024810437E+02  0.13963437502E+03  0.00000000000E+00 0. -1.
        -12    1    6    6    0    0 -0.87961047043E+01  0.62970572398E+02 -0.30399919920E+01  0.63654583475E+02  0.00000000000E+00 0.  1.
         -5    1    5    5    0  503  0.52450626202E+02  0.10360203685E+03  0.81591763418E+02  0.14199914114E+03  0.47000000000E+01 0.  1.
<mgrwt>
<rscale>  2 0.34395093E+03</rscale>
<asrwt>0</asrwt>
<pdfrwt beam="1">  1       21 0.44091533E-01 0.34408217E+03</pdfrwt>
<pdfrwt beam="2">  1       21 0.71000371E-01 0.34408217E+03</pdfrwt>
<totfact> 0.81769698E+03</totfact>
</mgrwt>
</event>
<event>
12    1  0.2769346E-001  0.2553896E+03  0.7546771E-02  0.1109975E+00
         21   -1    0    0  504  503  0.00000000000E+00  0.00000000000E+00  0.13860645075E+03  0.13860645075E+03  0.00000000000E+00 0. -1.
         21   -1    0    0  502  504 -0.00000000000E+00 -0.00000000000E+00 -0.49538600324E+03  0.49538600324E+03  0.00000000000E+00 0.  1.
          6    2    1    2  502    0  0.18635210976E+03  0.18683804465E+02 -0.10700106719E+03  0.27689907187E+03  0.17363085631E+03 0.  0.
         24    2    3    3    0    0  0.60900990385E+02  0.17920892852E+02 -0.11248949137E+03  0.15123770873E+03  0.78669370416E+02 0.  0.
         -6    2    1    2    0  503 -0.18635210976E+03 -0.18683804465E+02 -0.24977848531E+03  0.35709338212E+03  0.17334993070E+03 0.  0.
        -24    2    5    5    0    0 -0.19605332318E+03  0.62083748663E+01 -0.25298018280E+03  0.32977900861E+03  0.79245013575E+02 0.  0.
          4    1    4    4  501    0 -0.14401991086E+01 -0.97109223996E+01  0.80840543075E+01  0.12717237175E+02  0.00000000000E+00 0. -1.
         -3    1    4    4    0  501  0.62341189493E+02  0.27631815252E+02 -0.12057354568E+03  0.13852047155E+03  0.00000000000E+00 0.  1.
          5    1    3    3  502    0  0.12545111938E+03  0.76291161287E+00  0.54884241836E+01  0.12566136314E+03  0.47000000000E+01 0. -1.
         11    1    6    6    0    0 -0.23893727509E+02  0.29064876011E+02 -0.39005723749E+02  0.54195237032E+02  0.00000000000E+00 0. -1.
        -12    1    6    6    0    0 -0.17215959568E+03 -0.22856501145E+02 -0.21397445906E+03  0.27558377158E+03  0.00000000000E+00 0.  1.
         -5    1    5    5    0  503  0.97012134232E+01 -0.24892179331E+02  0.32016974968E+01  0.27314373517E+02  0.47000000000E+01 0.  1.
<mgrwt>
<rscale>  2 0.25534190E+03</rscale>
<asrwt>0</asrwt>
<pdfrwt beam="1">  1       21 0.21324069E-01 0.25538964E+03</pdfrwt>
<pdfrwt beam="2">  1       21 0.76213233E-01 0.25538964E+03</pdfrwt>
<totfact> 0.30429482E+04</totfact>
</mgrwt>
</event>
<event>
12    1  0.2769346E-001  0.2155371E+03  0.7546771E-02  0.1137470E+00
         21   -1    0    0  504  503  0.00000000000E+00  0.00000000000E+00  0.58410200116E+03  0.58410200116E+03  0.00000000000E+00 0.  1.
         21   -1    0    0  502  504 -0.00000000000E+00 -0.00000000000E+00 -0.22897921700E+03  0.22897921700E+03  0.00000000000E+00 0. -1.
          6    2    1    2  502    0  0.11442595137E+03  0.59414959421E+02 -0.15116507153E+03  0.26326243745E+03  0.17272173104E+03 0.  0.
         24    2    3    3    0    0  0.95577819412E+02  0.70939649435E+02 -0.38425030896E+02  0.14828210296E+03  0.79646378658E+02 0.  0.
         -6    2    1    2    0  503 -0.11442595137E+03 -0.59414959421E+02  0.50628785569E+03  0.54981878071E+03  0.17131801730E+03 0.  0.
        -24    2    5    5    0    0 -0.12561850651E+03 -0.29969705178E+02  0.25581124766E+03  0.29732537989E+03  0.79276697018E+02 0.  0.
          4    1    4    4  501    0  0.42911053166E+02  0.77707681397E+02 -0.14121475876E+02  0.89884694541E+02  0.00000000000E+00 0. -1.
         -3    1    4    4    0  501  0.52666766246E+02 -0.67680319612E+01 -0.24303555020E+02  0.58397408419E+02  0.00000000000E+00 0.  1.
          5    1    3    3  502    0  0.18848131959E+02 -0.11524690014E+02 -0.11274004063E+03  0.11498033449E+03  0.47000000000E+01 0. -1.
         11    1    6    6    0    0 -0.89540345765E+02 -0.44740928106E+02  0.22925714762E+03  0.25015607908E+03  0.00000000000E+00 0. -1.
        -12    1    6    6    0    0 -0.36078160745E+02  0.14771222929E+02  0.26554100043E+02  0.47169300807E+02  0.00000000000E+00 0.  1.
         -5    1    5    5    0  503  0.11192555139E+02 -0.29445254244E+02  0.25047660803E+03  0.25249340082E+03  0.47000000000E+01 0.  1.
<mgrwt>
<rscale>  2 0.21525572E+03</rscale>
<asrwt>0</asrwt>
<pdfrwt beam="1">  1       21 0.89861846E-01 0.21553708E+03</pdfrwt>
<pdfrwt beam="2">  1       21 0.35227572E-01 0.21553708E+03</pdfrwt>
<totfact> 0.80591257E+03</totfact>
</mgrwt>
</event>
<event>
12    1  0.2769346E-001  0.1777286E+03  0.7546771E-02  0.1170384E+00
         21   -1    0    0  504  503  0.00000000000E+00  0.00000000000E+00  0.87107008990E+02  0.87107008990E+02  0.00000000000E+00 0.  1.
         21   -1    0    0  502  504 -0.00000000000E+00 -0.00000000000E+00 -0.39714543993E+03  0.39714543993E+03  0.00000000000E+00 0.  1.
          6    2    1    2  502    0  0.13743623488E+02  0.35523019056E+02 -0.23002462689E+03  0.29068673653E+03  0.17359918707E+03 0.  0.
         24    2    3    3    0    0  0.46438222695E+02  0.48357516904E+02 -0.23171012924E+03  0.25521009533E+03  0.83352569250E+02 0.  0.
         -6    2    1    2    0  503 -0.13743623488E+02 -0.35523019056E+02 -0.80013804052E+02  0.19356571239E+03  0.17208923297E+03 0.  0.
        -24    2    5    5    0    0  0.55901848452E+02 -0.31091087980E+02 -0.38196603552E+02  0.11207398255E+03  0.83725292651E+02 0.  0.
          2    1    4    4  501    0  0.22373662258E+02  0.69630289043E+02 -0.13855196932E+03  0.15667037409E+03  0.00000000000E+00 0. -1.
         -1    1    4    4    0  501  0.24064560436E+02 -0.21272772139E+02 -0.93158159916E+02  0.98539721242E+02  0.00000000000E+00 0.  1.
          5    1    3    3  502    0 -0.32694599207E+02 -0.12834497848E+02  0.16855023512E+01  0.35476641195E+02  0.47000000000E+01 0. -1.
         13    1    6    6    0    0  0.15435630989E+02 -0.19142166358E+01 -0.56753694051E+02  0.58846450341E+02  0.00000000000E+00 0. -1.
        -14    1    6    6    0    0  0.40466217463E+02 -0.29176871344E+02  0.18557090499E+02  0.53227532208E+02  0.00000000000E+00 0.  1.
         -5    1    5    5    0  503 -0.69645471940E+02 -0.44319310758E+01 -0.41817200500E+02  0.81491729841E+02  0.47000000000E+01 0.  1.
<mgrwt>
<rscale>  2 0.17735879E+03</rscale>
<asrwt>0</asrwt>
<pdfrwt beam="1">  1       21 0.13401078E-01 0.17772858E+03</pdfrwt>
<pdfrwt beam="2">  1       21 0.61099300E-01 0.17772858E+03</pdfrwt>
<totfact> 0.12056435E+05</totfact>
</mgrwt>
</event>
<event>
12    1  0.2769346E-001  0.1760648E+03  0.7546771E-02  0.1172015E+00
         21   -1    0    0  504  503  0.00000000000E+00  0.00000000000E+00  0.18047018101E+03  0.18047018101E+03  0.00000000000E+00 0. -1.
         21   -1    0    0  502  504 -0.00000000000E+00 -0.00000000000E+00 -0.18330065333E+03  0.18330065333E+03  0.00000000000E+00 0. -1.
          6    2    1    2  502    0 -0.97547481209E+01 -0.23281474349E+02 -0.49639148817E+02  0.18158996817E+03  0.17284006852E+03 0.  0.
         24    2    3    3    0    0  0.26029289397E+02  0.41284855545E+02 -0.52234501609E+02  0.10757554962E+03  0.80387141470E+02 0.  0.
         -6    2    1    2    0  503  0.97547481209E+01  0.23281474349E+02  0.46808676497E+02  0.18218086616E+03  0.17424589993E+03 0.  0.
        -24    2    5    5    0    0  0.87870495645E+01  0.83554831141E+02  0.15997552962E+02  0.11431902628E+03  0.75857076276E+02 0.  0.
          4    1    4    4  501    0 -0.24215792730E+02  0.90668709554E+00 -0.31747641834E+02  0.39939197051E+02  0.00000000000E+00 0. -1.
         -3    1    4    4    0  501  0.50245082128E+02  0.40378168449E+02 -0.20486859775E+02  0.67636352569E+02  0.00000000000E+00 0.  1.
          5    1    3    3  502    0 -0.35784037518E+02 -0.64566329894E+02  0.25953527923E+01  0.74014418549E+02  0.47000000000E+01 0. -1.
         13    1    6    6    0    0  0.36810006536E+02  0.38148014545E+02  0.27522704085E+02  0.59730618907E+02  0.00000000000E+00 0. -1.
        -14    1    6    6    0    0 -0.28022956972E+02  0.45406816596E+02 -0.11525151122E+02  0.54588407370E+02  0.00000000000E+00 0.  1.
         -5    1    5    5    0  503  0.96769855638E+00 -0.60273356792E+02  0.30811123535E+02  0.67861839887E+02  0.47000000000E+01 0.  1.
<mgrwt>
<rscale>  2 0.17571597E+03</rscale>
<asrwt>0</asrwt>
<pdfrwt beam="1">  1       21 0.27764643E-01 0.17606481E+03</pdfrwt>
<pdfrwt beam="2">  1       21 0.28200100E-01 0.17606481E+03</pdfrwt>
<totfact> 0.14961517E+05</totfact>
</mgrwt>
</event>
<event>
12    1  0.2769346E-001  0.2273121E+03  0.7546771E-02  0.1128886E+00
         21   -1    0    0  504  503  0.00000000000E+00  0.00000000000E+00  0.17865754780E+04  0.17865754780E+04  0.00000000000E+00 0.  1.
         21   -1    0    0  502  504 -0.00000000000E+00 -0.00000000000E+00 -0.41437127239E+02  0.41437127239E+02  0.00000000000E+00 0. -1.
          6    2    1    2  502    0  0.60198669034E+02 -0.13234763611E+03  0.36797817551E+03  0.43252597733E+03  0.17473124185E+03 0.  0.
         24    2    3    3    0    0 -0.96698233983E+01 -0.13452802687E+03  0.26551444299E+03  0.30839996547E+03  0.80133162727E+02 0.  0.
         -6    2    1    2    0  503 -0.60198669034E+02  0.13234763611E+03  0.13771601752E+04  0.13954866279E+04  0.17225853776E+03 0.  0.
        -24    2    5    5    0    0 -0.23078607699E+02  0.70662951964E+02  0.38178705069E+03  0.39750233630E+03  0.81980975657E+02 0.  0.
          2    1    4    4  501    0 -0.44045560562E+02 -0.56684769510E+02  0.12242259561E+03  0.14191711107E+03  0.00000000000E+00 0. -1.
         -1    1    4    4    0  501  0.34375737163E+02 -0.77843257357E+02  0.14309184738E+03  0.16648285440E+03  0.00000000000E+00 0.  1.
          5    1    3    3  502    0  0.69868492432E+02  0.21803907574E+01  0.10246373252E+03  0.12412601186E+03  0.47000000000E+01 0. -1.
         11    1    6    6    0    0 -0.19675568187E+02  0.73781563221E+02  0.38459315678E+03  0.39210042502E+03  0.00000000000E+00 0. -1.
        -12    1    6    6    0    0 -0.34030395120E+01 -0.31186112572E+01 -0.28061060878E+01  0.54019112794E+01  0.00000000000E+00 0.  1.
         -5    1    5    5    0  503 -0.37120061335E+02  0.61684684145E+02  0.99537312454E+03  0.99798429159E+03  0.47000000000E+01 0.  1.
<mgrwt>
<rscale>  2 0.22683680E+03</rscale>
<asrwt>0</asrwt>
<pdfrwt beam="1">  1       21 0.27485771E+00 0.22731208E+03</pdfrwt>
<pdfrwt beam="2">  1       21 0.63749440E-02 0.22731208E+03</pdfrwt>
<totfact> 0.81865506E+03</totfact>
</mgrwt>
</event>
<event>
12    1  0.2769346E-001  0.2192600E+03  0.7546771E-02  0.1135290E+00
         21   -1    0    0  504  503  0.00000000000E+00  0.00000000000E+00  0.53079407219E+02  0.53079407219E+02  0.00000000000E+00 0. -1.
         21   -1    0    0  502  504 -0.00000000000E+00 -0.00000000000E+00 -0.90378208153E+03  0.90378208153E+03  0.00000000000E+00 0.  1.
          6    2    1    2  502    0  0.92263921021E+01 -0.11840014721E+03 -0.48584795887E+03  0.53119268715E+03  0.17892375633E+03 0.  0.
         24    2    3    3    0    0  0.20651932773E+02  0.46944670791E+01 -0.27555798389E+03  0.28721155955E+03  0.78164807362E+02 0.  0.
         -6    2    1    2    0  503 -0.92263921021E+01  0.11840014721E+03 -0.36485471545E+03  0.42566880160E+03  0.18431289726E+03 0.  0.
        -24    2    5    5    0    0  0.66722770080E+02  0.89152337475E+02 -0.24224745331E+03  0.27843313901E+03  0.80256569421E+02 0.  0.
          2    1    4    4  501    0  0.41573208865E+02 -0.18294940445E+02 -0.11447088643E+03  0.12315283343E+03  0.00000000000E+00 0. -1.
         -1    1    4    4    0  501 -0.20921276091E+02  0.22989407524E+02 -0.16108709745E+03  0.16405872613E+03  0.00000000000E+00 0.  1.
          5    1    3    3  502    0 -0.11425540671E+02 -0.12309461429E+03 -0.21028997498E+03  0.24398112760E+03  0.47000000000E+01 0. -1.
         13    1    6    6    0    0  0.16956547784E+02  0.44461264961E+02 -0.30859955904E+02  0.56715654568E+02  0.00000000000E+00 0. -1.
        -14    1    6    6    0    0  0.49766222296E+02  0.44691072514E+02 -0.21138749741E+03  0.22171748444E+03  0.00000000000E+00 0.  1.
         -5    1    5    5    0  503 -0.75949162182E+02  0.29247809740E+02 -0.12260726213E+03  0.14723566259E+03  0.47000000000E+01 0.  1.
<mgrwt>
<rscale>  2 0.21812365E+03</rscale>
<asrwt>0</asrwt>
<pdfrwt beam="1">  1       21 0.81660636E-02 0.21926004E+03</pdfrwt>
<pdfrwt beam="2">  1       21 0.13904338E+00 0.21926004E+03</pdfrwt>
<totfact> 0.41548660E+04</totfact>
</mgrwt>
</event>
<event>
12    1  0.2769346E-001  0.3507551E+03  0.7546771E-02  0.1062344E+00
         21   -1    0    0  504  503  0.00000000000E+00  0.00000000000E+00  0.23869337774E+03  0.23869337774E+03  0.00000000000E+00 0.  1.
         21   -1    0    0  502  504 -0.00000000000E+00 -0.00000000000E+00 -0.55534913502E+03  0.55534913502E+03  0.00000000000E+00 0. -1.
          6    2    1    2  502    0  0.26072550126E+03  0.15837888746E+03 -0.51226639545E+02  0.35447612261E+03  0.17311121830E+03 0.  0.
         24    2    3    3    0    0  0.11545420470E+03  0.44643351086E+02  0.34229300777E+02  0.15109389729E+03  0.79592830003E+02 0.  0.
         -6    2    1    2    0  503 -0.26072550126E+03 -0.15837888746E+03 -0.26542911774E+03  0.43956639015E+03  0.17234945840E+03 0.  0.
        -24    2    5    5    0    0 -0.52512799271E+02 -0.17901594323E+02 -0.46002191428E+02  0.10601479722E+03  0.77748790650E+02 0.  0.
          4    1    4    4  501    0  0.23569723294E+02  0.70869530008E+01  0.44956206792E+02  0.51252485678E+02  0.00000000000E+00 0. -1.
         -3    1    4    4    0  501  0.91884481404E+02  0.37556398085E+02 -0.10726906015E+02  0.99841411612E+02  0.00000000000E+00 0.  1.
          5    1    3    3  502    0  0.14527129656E+03  0.11373553637E+03 -0.85455940322E+02  0.20338222532E+03  0.47000000000E+01 0. -1.
         11    1    6    6    0    0 -0.53438071999E+02 -0.14763483308E+02 -0.65746589077E+02  0.86001174141E+02  0.00000000000E+00 0. -1.
        -12    1    6    6    0    0  0.92527272779E+00 -0.31381110142E+01  0.19744397649E+02  0.20013623083E+02  0.00000000000E+00 0.  1.
         -5    1    5    5    0  503 -0.20821270199E+03 -0.14047729314E+03 -0.21942692631E+03  0.33355159293E+03  0.47000000000E+01 0.  1.
<mgrwt>
<rscale>  2 0.35066125E+03</rscale>
<asrwt>0</asrwt>
<pdfrwt beam="1">  1       21 0.36722058E-01 0.35075512E+03</pdfrwt>
<pdfrwt beam="2">  1       21 0.85438328E-01 0.35075512E+03</pdfrwt>
<totfact> 0.77741910E+03</totfact>
</mgrwt>
</event>
<event>
12    1  0.2769346E-001  0.1942509E+03  0.7546771E-02  0.1154775E+00
         21   -1    0    0  504  503  0.00000000000E+00  0.00000000000E+00  0.17195564575E+03  0.17195564575E+03  0.00000000000E+00 0. -1.
         21   -1    0    0  502  504 -0.00000000000E+00 -0.00000000000E+00 -0.32827333035E+03  0.32827333035E+03  0.00000000000E+00 0.  1.
          6    2    1    2  502    0  0.24967768797E+02 -0.82469542611E+02 -0.22254754209E+03  0.29539940700E+03  0.17409418781E+03 0.  0.
         24    2    3    3    0    0  0.48765603087E+02  0.12940638238E+02 -0.11863594247E+03  0.15225909100E+03  0.81011109031E+02 0.  0.
         -6    2    1    2    0  503 -0.24967768797E+02  0.82469542611E+02  0.66229857486E+02  0.20482956910E+03  0.17362068833E+03 0.  0.
        -24    2    5    5    0    0  0.33172390497E+02  0.99021677080E+02  0.35064434573E+02  0.13665607818E+03  0.80868220634E+02 0.  0.
          2    1    4    4  501    0  0.70290168308E+02  0.18138135978E+02 -0.82621223266E+02  0.10998166334E+03  0.00000000000E+00 0. -1.
         -1    1    4    4    0  501 -0.21524565221E+02 -0.51974977400E+01 -0.36014719199E+02  0.42277427662E+02  0.00000000000E+00 0.  1.
          5    1    3    3  502    0 -0.23797834290E+02 -0.95410180848E+02 -0.10391159962E+03  0.14314031599E+03  0.47000000000E+01 0. -1.
         13    1    6    6    0    0  0.53701961983E+01  0.68752134602E+00  0.34034066342E+02  0.34461998848E+02  0.00000000000E+00 0. -1.
        -14    1    6    6    0    0  0.27802194299E+02  0.98334155734E+02  0.10303682302E+01  0.10219407933E+03  0.00000000000E+00 0.  1.
         -5    1    5    5    0  503 -0.58140159295E+02 -0.16552134470E+02  0.31165422914E+02  0.68173490916E+02  0.47000000000E+01 0.  1.
<mgrwt>
<rscale>  2 0.19414472E+03</rscale>
<asrwt>0</asrwt>
<pdfrwt beam="1">  1       21 0.26454715E-01 0.19425087E+03</pdfrwt>
<pdfrwt beam="2">  1       21 0.50503589E-01 0.19425087E+03</pdfrwt>
<totfact> 0.50683377E+04</totfact>
</mgrwt>
</event>
<event>
12    1  0.2769346E-001  0.2051472E+03  0.7546771E-02  0.1147116E+00
         21   -1    0    0  504  503  0.00000000000E+00  0.00000000000E+00  0.84862118512E+02  0.84862118512E+02  0.00000000000E+00 0. -1.
         21   -1    0    0  502  504 -0.00000000000E+00 -0.00000000000E+00 -0.48210025730E+03  0.48210025730E+03  0.00000000000E+00 0. -1.
          6    2    1    2  502    0  0.99069011421E+02  0.48304082378E+02 -0.22393452204E+03  0.29841157739E+03  0.16356908620E+03 0.  0.
         24    2    3    3    0    0  0.27737336657E+02  0.47406315261E+02 -0.20618114355E+03  0.22474824691E+03  0.70600226355E+02 0.  0.
         -6    2    1    2    0  503 -0.99069011421E+02 -0.48304082378E+02 -0.17330361674E+03  0.26855079841E+03  0.17302437503E+03 0.  0.
        -24    2    5    5    0    0 -0.13623081129E+03 -0.25133634654E+02 -0.14476425126E+03  0.21606790216E+03  0.80858619617E+02 0.  0.
          4    1    4    4  501    0 -0.12576705967E+02 -0.80195401273E+01 -0.77813415516E+02  0.79230134363E+02  0.00000000000E+00 0. -1.
         -3    1    4    4    0  501  0.40314042624E+02  0.55425855388E+02 -0.12836772803E+03  0.14551811254E+03  0.00000000000E+00 0.  1.
          5    1    3    3  502    0  0.71331674764E+02  0.89776711711E+00 -0.17753378495E+02  0.73663330487E+02  0.47000000000E+01 0. -1.
         13    1    6    6    0    0 -0.94845149692E+02 -0.37458557712E+02 -0.13916097376E+03  0.17252397684E+03  0.00000000000E+00 0. -1.
        -14    1    6    6    0    0 -0.41385661596E+02  0.12324923058E+02 -0.56032775046E+01  0.43543925327E+02  0.00000000000E+00 0.  1.
         -5    1    5    5    0  503  0.37161799866E+02 -0.23170447724E+02 -0.28539365479E+02  0.52482896252E+02  0.47000000000E+01 0.  1.
<mgrwt>
<rscale>  2 0.20314066E+03</rscale>
<asrwt>0</asrwt>
<pdfrwt beam="1">  1       21 0.13055710E-01 0.20514723E+03</pdfrwt>
<pdfrwt beam="2">  1       21 0.74169273E-01 0.20514723E+03</pdfrwt>
<totfact> 0.81765886E+04</totfact>
</mgrwt>
</event>
<event>
12    1  0.2769346E-001  0.1748757E+03  0.7546771E-02  0.1172886E+00
         21   -1    0    0  504  503  0.00000000000E+00  0.00000000000E+00  0.47842248699E+03  0.47842248699E+03  0.00000000000E+00 0.  1.
         21   -1    0    0  502  504 -0.00000000000E+00 -0.00000000000E+00 -0.10704938996E+03  0.10704938996E+03  0.00000000000E+00 0.  1.
          6    2    1    2  502    0  0.64626634437E+01 -0.23970415490E+02 -0.17588247543E+00  0.17487577355E+03  0.17310447251E+03 0.  0.
         24    2    3    3    0    0  0.53336476122E+02 -0.61947137341E+02 -0.61516416545E+01  0.11407128839E+03  0.79323317070E+02 0.  0.
         -6    2    1    2    0  503 -0.64626634437E+01  0.23970415490E+02  0.37154897951E+03  0.41059610339E+03  0.17298603732E+03 0.  0.
        -24    2    5    5    0    0  0.11089943224E+02  0.55010371971E+02  0.11433286138E+03  0.15087742034E+03  0.80887977555E+02 0.  0.
          2    1    4    4  501    0  0.13244235233E+02 -0.50529727661E+02  0.28819039554E+02  0.59659032721E+02  0.00000000000E+00 0. -1.
         -1    1    4    4    0  501  0.40092240889E+02 -0.11417409680E+02 -0.34970681208E+02  0.54412255673E+02  0.00000000000E+00 0.  1.
          5    1    3    3  502    0 -0.46873812678E+02  0.37976721851E+02  0.59757591791E+01  0.60804485158E+02  0.47000000000E+01 0. -1.
         11    1    6    6    0    0 -0.33147595445E+02  0.27076722277E+02  0.71185324238E+02  0.83061798439E+02  0.00000000000E+00 0. -1.
        -12    1    6    6    0    0  0.44237538669E+02  0.27933649693E+02  0.43147537139E+02  0.67815621901E+02  0.00000000000E+00 0.  1.
         -5    1    5    5    0  503 -0.17552606668E+02 -0.31039956480E+02  0.25721611813E+03  0.25971868305E+03  0.47000000000E+01 0.  1.
<mgrwt>
<rscale>  2 0.17484637E+03</rscale>
<asrwt>0</asrwt>
<pdfrwt beam="1">  1       21 0.73603459E-01 0.17487569E+03</pdfrwt>
<pdfrwt beam="2">  1       21 0.16469137E-01 0.17487569E+03</pdfrwt>
<totfact> 0.55289622E+04</totfact>
</mgrwt>
</event>
<event>
12    1  0.2769346E-001  0.3402055E+03  0.7546771E-02  0.1066731E+00
         21   -1    0    0  504  503  0.00000000000E+00  0.00000000000E+00  0.18645081062E+03  0.18645081062E+03  0.00000000000E+00 0. -1.
         21   -1    0    0  502  504 -0.00000000000E+00 -0.00000000000E+00 -0.11680845975E+04  0.11680845975E+04  0.00000000000E+00 0. -1.
          6    2    1    2  502    0  0.21743611859E+03  0.19566962780E+03 -0.95450525922E+03  0.10132499418E+04  0.17329190908E+03 0.  0.
         24    2    3    3    0    0  0.18895090672E+03  0.22117820772E+03 -0.82947326151E+03  0.88241727999E+03  0.77537859972E+02 0.  0.
         -6    2    1    2    0  503 -0.21743611859E+03 -0.19566962780E+03 -0.27128527660E+02  0.34128546632E+03  0.17370878965E+03 0.  0.
        -24    2    5    5    0    0 -0.23864667143E+03 -0.18202925155E+03 -0.40391448025E+02  0.31240740419E+03  0.76681385704E+02 0.  0.
          4    1    4    4  501    0  0.17044153950E+03  0.15521577335E+03 -0.67943201058E+03  0.71747481606E+03  0.00000000000E+00 0. -1.
         -3    1    4    4    0  501  0.18509367217E+02  0.65962434369E+02 -0.15004125094E+03  0.16494246392E+03  0.00000000000E+00 0.  1.
          5    1    3    3  502    0  0.28485211866E+02 -0.25508579924E+02 -0.12503199771E+03  0.13083266180E+03  0.47000000000E+01 0. -1.
         13    1    6    6    0    0 -0.22553244810E+03 -0.14644716020E+03 -0.20767920369E+02  0.26970903284E+03  0.00000000000E+00 0. -1.
        -14    1    6    6    0    0 -0.13114223329E+02 -0.35582091353E+02 -0.19623527656E+02  0.42698371354E+02  0.00000000000E+00 0.  1.
         -5    1    5    5    0  503  0.21210552842E+02 -0.13640376245E+02  0.13262920365E+02  0.28878062133E+02  0.47000000000E+01 0.  1.
<mgrwt>
<rscale>  2 0.34015236E+03</rscale>
<asrwt>0</asrwt>
<pdfrwt beam="1">  1       21 0.28684740E-01 0.34020554E+03</pdfrwt>
<pdfrwt beam="2">  1       21 0.17970532E+00 0.34020554E+03</pdfrwt>
<totfact> 0.19018322E+03</totfact>
</mgrwt>
</event>
<event>
12    1  0.2769346E-001  0.1925695E+03  0.7546771E-02  0.1156367E+00
         21   -1    0    0  504  503  0.00000000000E+00  0.00000000000E+00  0.28342282659E+03  0.28342282659E+03  0.00000000000E+00 0. -1.
         21   -1    0    0  502  504 -0.00000000000E+00 -0.00000000000E+00 -0.22552608576E+03  0.22552608576E+03  0.00000000000E+00 0.  1.
          6    2    1    2  502    0  0.81008001934E+02 -0.91848134657E+01 -0.13651737531E+03  0.23530709577E+03  0.17345252487E+03 0.  0.
         24    2    3    3    0    0  0.49601479381E+02  0.33936494706E+02 -0.15054121672E+03  0.17994849206E+03  0.78146077527E+02 0.  0.
         -6    2    1    2    0  503 -0.81008001934E+02  0.91848134657E+01  0.19441411614E+03  0.27364181658E+03  0.17446013312E+03 0.  0.
        -24    2    5    5    0    0 -0.10797976728E+03 -0.14851346081E+02  0.19491383699E+03  0.23720621842E+03  0.79969954251E+02 0.  0.
          4    1    4    4  501    0  0.69672265776E+02  0.21050769853E+02 -0.96433910316E+02  0.12081745978E+03  0.00000000000E+00 0. -1.
         -3    1    4    4    0  501 -0.20070786396E+02  0.12885724853E+02 -0.54107306404E+02  0.59131032275E+02  0.00000000000E+00 0.  1.
          5    1    3    3  502    0  0.31406522554E+02 -0.43121308172E+02  0.14023841409E+02  0.55358603715E+02  0.47000000000E+01 0. -1.
         11    1    6    6    0    0 -0.41933552510E+02 -0.28926462918E+02  0.14367221490E+03  0.15243644058E+03  0.00000000000E+00 0. -1.
        -12    1    6    6    0    0 -0.66046214775E+02  0.14075116837E+02  0.51241622092E+02  0.84769777838E+02  0.00000000000E+00 0.  1.
         -5    1    5    5    0  503  0.26971765350E+02  0.24036159547E+02 -0.49972085027E+00  0.36435598154E+02  0.47000000000E+01 0.  1.
<mgrwt>
<rscale>  2 0.19234095E+03</rscale>
<asrwt>0</asrwt>
<pdfrwt beam="1">  1       21 0.43603512E-01 0.19256946E+03</pdfrwt>
<pdfrwt beam="2">  1       21 0.34696321E-01 0.19256946E+03</pdfrwt>
<totfact> 0.40476570E+04</totfact>
</mgrwt>
</event>
<event>
12    1  0.2769346E-001  0.1749786E+03  0.7546771E-02  0.1173226E+00
         21   -1    0    0  504  503  0.00000000000E+00  0.00000000000E+00  0.43337354211E+03  0.43337354211E+03  0.00000000000E+00 0. -1.
         21   -1    0    0  502  504 -0.00000000000E+00 -0.00000000000E+00 -0.34374950058E+03  0.34374950058E+03  0.00000000000E+00 0. -1.
          6    2    1    2  502    0 -0.57980405964E+01 -0.27167488868E+01 -0.30205113371E+03  0.34813943244E+03  0.17298895643E+03 0.  0.
         24    2    3    3    0    0 -0.33328219809E+02 -0.28265071556E+02 -0.29603809371E+03  0.30981353769E+03  0.80225873014E+02 0.  0.
         -6    2    1    2    0  503  0.57980405964E+01  0.27167488868E+01  0.39167517523E+03  0.42898361025E+03  0.17486136501E+03 0.  0.
        -24    2    5    5    0    0 -0.24099389850E+02 -0.43446311212E+02  0.12461914014E+03  0.15628249118E+03  0.80161863818E+02 0.  0.
          2    1    4    4  501    0 -0.35665316728E+02 -0.30654218677E+02 -0.30054522850E+03  0.30420244955E+03  0.00000000000E+00 0. -1.
         -1    1    4    4    0  501  0.23370969184E+01  0.23891471205E+01  0.45071347930E+01  0.56110881308E+01  0.00000000000E+00 0.  1.
          5    1    3    3  502    0  0.27530179213E+02  0.25548322669E+02 -0.60130399969E+01  0.38325894754E+02  0.47000000000E+01 0. -1.
         11    1    6    6    0    0  0.14881762911E+02 -0.38183443613E+02  0.10418813954E+03  0.11195807543E+03  0.00000000000E+00 0. -1.
        -12    1    6    6    0    0 -0.38981152761E+02 -0.52628675987E+01  0.20431000603E+02  0.44324415750E+02  0.00000000000E+00 0.  1.
         -5    1    5    5    0  503  0.29897430446E+02  0.46163060099E+02  0.26705603509E+03  0.27270111907E+03  0.47000000000E+01 0.  1.
<mgrwt>
<rscale>  2 0.17450888E+03</rscale>
<asrwt>0</asrwt>
<pdfrwt beam="1">  1       21 0.66672853E-01 0.17497856E+03</pdfrwt>
<pdfrwt beam="2">  1       21 0.52884538E-01 0.17497856E+03</pdfrwt>
<totfact> 0.70798484E+03</totfact>
</mgrwt>
</event>
<event>
12    1  0.2769346E-001  0.2176100E+03  0.7546771E-02  0.1135901E+00
         21   -1    0    0  504  503  0.00000000000E+00  0.00000000000E+00  0.11340177036E+04  0.11340177036E+04  0.00000000000E+00 0.  1.
         21   -1    0    0  502  504 -0.00000000000E+00 -0.00000000000E+00 -0.42993554584E+02  0.42993554584E+02  0.00000000000E+00 0.  1.
          6    2    1    2  502    0  0.13035618717E+03  0.22564861146E+02  0.43557053893E+03  0.48637853619E+03  0.17129062320E+03 0.  0.
         24    2    3    3    0    0  0.14188948468E+03  0.14724147886E+02  0.23786590754E+03  0.28812691575E+03  0.78022453281E+02 0.  0.
         -6    2    1    2    0  503 -0.13035618717E+03 -0.22564861146E+02  0.65545361014E+03  0.69063272204E+03  0.17277793035E+03 0.  0.
        -24    2    5    5    0    0 -0.57152367957E+02  0.50559942563E+02  0.39582612225E+03  0.41110712656E+03  0.80672482871E+02 0.  0.
          2    1    4    4  501    0  0.73268508101E+02 -0.25416973107E+02  0.15485011012E+03  0.17318444909E+03  0.00000000000E+00 0. -1.
         -1    1    4    4    0  501  0.68620976581E+02  0.40141120993E+02  0.83015797419E+02  0.11494246666E+03  0.00000000000E+00 0.  1.
          5    1    3    3  502    0 -0.11533297514E+02  0.78407132593E+01  0.19770463138E+03  0.19825162044E+03  0.47000000000E+01 0. -1.
         11    1    6    6    0    0 -0.52781555244E+01 -0.19862955493E+02  0.11993403158E+03  0.12168224134E+03  0.00000000000E+00 0. -1.
        -12    1    6    6    0    0 -0.51874212433E+02  0.70422898056E+02  0.27589209067E+03  0.28942488521E+03  0.00000000000E+00 0.  1.
         -5    1    5    5    0  503 -0.73203819212E+02 -0.73124803709E+02  0.25962748788E+03  0.27952559548E+03  0.47000000000E+01 0.  1.
<mgrwt>
<rscale>  2 0.21731467E+03</rscale>
<asrwt>0</asrwt>
<pdfrwt beam="1">  1       21 0.17446424E+00 0.21761002E+03</pdfrwt>
<pdfrwt beam="2">  1       21 0.66143939E-02 0.21761002E+03</pdfrwt>
<totfact> 0.32603716E+04</totfact>
</mgrwt>
</event>
<event>
12    1  0.2769346E-001  0.1908523E+03  0.7546771E-02  0.1157812E+00
         21   -1    0    0  504  503  0.00000000000E+00  0.00000000000E+00  0.61792556853E+03  0.61792556853E+03  0.00000000000E+00 0. -1.
         21   -1    0    0  502  504 -0.00000000000E+00 -0.00000000000E+00 -0.82389013245E+02  0.82389013245E+02  0.00000000000E+00 0.  1.
          6    2    1    2  502    0 -0.67556983388E+02 -0.34532826090E+02  0.45492726874E+03  0.49313727014E+03  0.17455396094E+03 0.  0.
         24    2    3    3    0    0  0.23108412957E+02  0.10911562061E+01  0.13378426440E+03  0.15751217954E+03  0.79854041415E+02 0.  0.
         -6    2    1    2    0  503  0.67556983388E+02  0.34532826090E+02  0.80609286548E+02  0.20717731163E+03  0.17512315465E+03 0.  0.
        -24    2    5    5    0    0  0.67997806019E+02  0.80482734532E+02  0.25240721918E+02  0.13507074910E+03  0.80658793940E+02 0.  0.
          2    1    4    4  501    0  0.18640396704E+02 -0.33049182172E+02  0.30631743784E+02  0.48764911143E+02  0.00000000000E+00 0. -1.
         -1    1    4    4    0  501  0.44680162532E+01  0.34140338378E+02  0.10315252062E+03  0.10874726840E+03  0.00000000000E+00 0.  1.
          5    1    3    3  502    0 -0.90665396346E+02 -0.35623982296E+02  0.32114300434E+03  0.33562509060E+03  0.47000000000E+01 0. -1.
         11    1    6    6    0    0 -0.55983614904E+01  0.53274619114E+02  0.16867058824E+02  0.56160701264E+02  0.00000000000E+00 0. -1.
        -12    1    6    6    0    0  0.73596167509E+02  0.27208115418E+02  0.83736630938E+01  0.78910047841E+02  0.00000000000E+00 0.  1.
         -5    1    5    5    0  503 -0.44082263023E+00 -0.45949908442E+02  0.55368564630E+02  0.72106562528E+02  0.47000000000E+01 0.  1.
<mgrwt>
<rscale>  2 0.19072158E+03</rscale>
<asrwt>0</asrwt>
<pdfrwt beam="1">  1       21 0.95065469E-01 0.19085225E+03</pdfrwt>
<pdfrwt beam="2">  1       21 0.12675233E-01 0.19085225E+03</pdfrwt>
<totfact> 0.49244639E+04</totfact>
</mgrwt>
</event>
<event>
12    1  0.2769346E-001  0.1853962E+03  0.7546771E-02  0.1162857E+00
         21   -1    0    0  504  503  0.00000000000E+00  0.00000000000E+00  0.81770384905E+03  0.81770384905E+03  0.00000000000E+00 0.  1.
         21   -1    0    0  502  504 -0.00000000000E+00 -0.00000000000E+00 -0.77121376994E+02  0.77121376994E+02  0.00000000000E+00 0.  1.
          6    2    1    2  502    0  0.56883927920E+02  0.34353181885E+02  0.67363903748E+02  0.19654520474E+03  0.17226781364E+03 0.  0.
         24    2    3    3    0    0  0.40469209274E+02  0.71003882148E+02 -0.36158906508E+01  0.11485715157E+03  0.80621228110E+02 0.  0.
         -6    2    1    2    0  503 -0.56883927920E+02 -0.34353181885E+02  0.67321856831E+03  0.69828002131E+03  0.17307751176E+03 0.  0.
        -24    2    5    5    0    0 -0.82910383614E+02 -0.67306147130E+02  0.58912096716E+03  0.60416429024E+03  0.80911844039E+02 0.  0.
          4    1    4    4  501    0  0.40756212727E+02  0.16210851309E+02 -0.30893099841E+02  0.53649270207E+02  0.00000000000E+00 0. -1.
         -3    1    4    4    0  501 -0.28700345322E+00  0.54793030839E+02  0.27277209190E+02  0.61207881361E+02  0.00000000000E+00 0.  1.
          5    1    3    3  502    0  0.16414718646E+02 -0.36650700263E+02  0.70979794399E+02  0.81688053171E+02  0.47000000000E+01 0. -1.
         13    1    6    6    0    0 -0.35040263007E+01 -0.89882627927E+01  0.34205741795E+01  0.10235594563E+02  0.00000000000E+00 0. -1.
        -14    1    6    6    0    0 -0.79406357314E+02 -0.58317884337E+02  0.58570039298E+03  0.59392869568E+03  0.00000000000E+00 0.  1.
         -5    1    5    5    0  503  0.26026455694E+02  0.32952965244E+02  0.84097601155E+02  0.94115731068E+02  0.47000000000E+01 0.  1.
<mgrwt>
<rscale>  2 0.18520698E+03</rscale>
<asrwt>0</asrwt>
<pdfrwt beam="1">  1       21 0.12580059E+00 0.18539619E+03</pdfrwt>
<pdfrwt beam="2">  1       21 0.11864828E-01 0.18539619E+03</pdfrwt>
<totfact> 0.28234238E+04</totfact>
</mgrwt>
</event>
<event>
12    1  0.2769346E-001  0.2119110E+03  0.7546771E-02  0.1140064E+00
         21   -1    0    0  504  503  0.00000000000E+00  0.00000000000E+00  0.74149573214E+02  0.74149573214E+02  0.00000000000E+00 0. -1.
         21   -1    0    0  502  504 -0.00000000000E+00 -0.00000000000E+00 -0.82208625201E+03  0.82208625201E+03  0.00000000000E+00 0.  1.
          6    2    1    2  502    0  0.11090738966E+03 -0.49662317792E+02 -0.60394187895E+03  0.64004065812E+03  0.17360718882E+03 0.  0.
         24    2    3    3    0    0  0.12504565150E+03 -0.85390559468E+02 -0.52673241261E+03  0.55367058579E+03  0.78588297334E+02 0.  0.
         -6    2    1    2    0  503 -0.11090738966E+03  0.49662317792E+02 -0.14399479985E+03  0.25619516711E+03  0.17359339381E+03 0.  0.
        -24    2    5    5    0    0 -0.19786411295E+02 -0.21456890020E+02 -0.10232207102E+03  0.13323305609E+03  0.80183170399E+02 0.  0.
          4    1    4    4  501    0  0.12570386654E+03 -0.95683039095E+02 -0.46550785093E+03  0.49158342660E+03  0.00000000000E+00 0. -1.
         -3    1    4    4    0  501 -0.65821503996E+00  0.10292479627E+02 -0.61224561676E+02  0.62087159190E+02  0.00000000000E+00 0.  1.
          5    1    3    3  502    0 -0.14138261837E+02  0.35728241676E+02 -0.77209466339E+02  0.86370072325E+02  0.47000000000E+01 0. -1.
         13    1    6    6    0    0  0.13292024938E+01  0.19798381390E+02  0.11292207580E+01  0.19875055332E+02  0.00000000000E+00 0. -1.
        -14    1    6    6    0    0 -0.21115613789E+02 -0.41255271410E+02 -0.10345129178E+03  0.11335800075E+03  0.00000000000E+00 0.  1.
         -5    1    5    5    0  503 -0.91120978365E+02  0.71119207812E+02 -0.41672728832E+02  0.12296211102E+03  0.47000000000E+01 0.  1.
<mgrwt>
<rscale>  2 0.21190813E+03</rscale>
<asrwt>0</asrwt>
<pdfrwt beam="1">  1       21 0.11407627E-01 0.21191095E+03</pdfrwt>
<pdfrwt beam="2">  1       21 0.12647480E+00 0.21191095E+03</pdfrwt>
<totfact> 0.29417162E+04</totfact>
</mgrwt>
</event>
<event>
12    1  0.2769346E-001  0.2452540E+03  0.7546771E-02  0.1117409E+00
         21   -1    0    0  504  503  0.00000000000E+00  0.00000000000E+00  0.55445026746E+03  0.55445026746E+03  0.00000000000E+00 0. -1.
         21   -1    0    0  502  504 -0.00000000000E+00 -0.00000000000E+00 -0.11858924603E+03  0.11858924603E+03  0.00000000000E+00 0. -1.
          6    2    1    2  502    0 -0.13624832450E+03 -0.10913850606E+03  0.33176837996E+03  0.41257700722E+03  0.17226348861E+03 0.  0.
         24    2    3    3    0    0 -0.13920238161E+03 -0.48363538599E+02  0.16846364657E+03  0.23824155737E+03  0.81625391482E+02 0.  0.
         -6    2    1    2    0  503  0.13624832450E+03  0.10913850606E+03  0.10409264147E+03  0.26046250627E+03  0.16288222656E+03 0.  0.
        -24    2    5    5    0    0  0.10303694283E+03  0.80598775319E+01  0.70987938701E+02  0.14893718913E+03  0.80382993534E+02 0.  0.
          4    1    4    4  501    0 -0.14577879029E+03 -0.41343286809E+02  0.17081540327E+03  0.22833883826E+03  0.00000000000E+00 0. -1.
         -3    1    4    4    0  501  0.65764086812E+01 -0.70202517907E+01 -0.23517567024E+01  0.99027191182E+01  0.00000000000E+00 0.  1.
          5    1    3    3  502    0  0.29540571086E+01 -0.60774967465E+02  0.16330473340E+03  0.17433544985E+03  0.47000000000E+01 0. -1.
         11    1    6    6    0    0  0.41596585124E+02 -0.22660639384E+02 -0.36390336013E+01  0.47508136533E+02  0.00000000000E+00 0. -1.
        -12    1    6    6    0    0  0.61440357708E+02  0.30720516916E+02  0.74626972302E+02  0.10142905259E+03  0.00000000000E+00 0.  1.
         -5    1    5    5    0  503  0.33211381665E+02  0.10107862853E+03  0.33104702766E+02  0.11152531714E+03  0.47000000000E+01 0.  1.
<mgrwt>
<rscale>  2 0.24361365E+03</rscale>
<asrwt>0</asrwt>
<pdfrwt beam="1">  1       21 0.85300039E-01 0.24525401E+03</pdfrwt>
<pdfrwt beam="2">  1       21 0.18244500E-01 0.24525401E+03</pdfrwt>
<totfact> 0.31685247E+04</totfact>
</mgrwt>
</event>
<event>
12    1  0.2769346E-001  0.2892927E+03  0.7546771E-02  0.1090732E+00
         21   -1    0    0  504  503  0.00000000000E+00  0.00000000000E+00  0.30525269299E+03  0.30525269299E+03  0.00000000000E+00 0. -1.
         21   -1    0    0  502  504 -0.00000000000E+00 -0.00000000000E+00 -0.31121589050E+03  0.31121589050E+03  0.00000000000E+00 0.  1.
          6    2    1    2  502    0 -0.20939266939E+03 -0.99391362468E+02  0.10350069574E+03  0.30715868874E+03  0.17294546286E+03 0.  0.
         24    2    3    3    0    0 -0.16535653605E+03  0.35517794773E+01  0.60553048289E+02  0.18714593136E+03  0.63257638383E+02 0.  0.
         -6    2    1    2    0  503  0.20939266939E+03  0.99391362468E+02 -0.10946389325E+03  0.30930989475E+03  0.17310786851E+03 0.  0.
        -24    2    5    5    0    0  0.10160518955E+03  0.10313365134E+03 -0.11095252556E+03  0.20134484689E+03  0.85259133564E+02 0.  0.
          2    1    4    4  501    0 -0.61930444752E+02  0.26727824662E+02  0.54098080218E+01  0.67668475830E+02  0.00000000000E+00 0. -1.
         -1    1    4    4    0  501 -0.10342609130E+03 -0.23176045185E+02  0.55143240267E+02  0.11947745553E+03  0.00000000000E+00 0.  1.
          5    1    3    3  502    0 -0.44036133334E+02 -0.10294314195E+03  0.42947647449E+02  0.12001275738E+03  0.47000000000E+01 0. -1.
         11    1    6    6    0    0  0.23188663946E+02  0.25739918365E+02  0.11611925325E+02  0.36538942825E+02  0.00000000000E+00 0. -1.
        -12    1    6    6    0    0  0.78416525606E+02  0.77393732979E+02 -0.12256445088E+03  0.16480590406E+03  0.00000000000E+00 0.  1.
         -5    1    5    5    0  503  0.10778747983E+03 -0.37422888752E+01  0.14886323090E+01  0.10796504787E+03  0.47000000000E+01 0.  1.
<mgrwt>
<rscale>  2 0.28926841E+03</rscale>
<asrwt>0</asrwt>
<pdfrwt beam="1">  1       21 0.46961953E-01 0.28929270E+03</pdfrwt>
<pdfrwt beam="2">  1       21 0.47879368E-01 0.28929270E+03</pdfrwt>
<totfact> 0.17211746E+04</totfact>
</mgrwt>
</event>
<event>
12    1  0.2769346E-001  0.1961288E+03  0.7546771E-02  0.1153348E+00
         21   -1    0    0  504  503  0.00000000000E+00  0.00000000000E+00  0.52440093630E+02  0.52440093630E+02  0.00000000000E+00 0. -1.
         21   -1    0    0  502  504 -0.00000000000E+00 -0.00000000000E+00 -0.82232625701E+03  0.82232625701E+03  0.00000000000E+00 0.  1.
          6    2    1    2  502    0  0.69571532302E+02 -0.58859693677E+02 -0.23587505498E+03  0.30587762194E+03  0.17210292385E+03 0.  0.
         24    2    3    3    0    0 -0.99205293240E+01 -0.78172989139E+01 -0.17976000816E+03  0.19589897672E+03  0.76832424682E+02 0.  0.
         -6    2    1    2    0  503 -0.69571532302E+02  0.58859693677E+02 -0.53401110840E+03  0.56888872870E+03  0.17367170206E+03 0.  0.
        -24    2    5    5    0    0 -0.56607581854E+02  0.68578923734E+02 -0.19033486525E+03  0.22479865685E+03  0.79997425486E+02 0.  0.
          4    1    4    4  501    0 -0.26912702597E+02  0.21581542282E+02 -0.43751824907E+02  0.55716054339E+02  0.00000000000E+00 0. -1.
         -3    1    4    4    0  501  0.16992173273E+02 -0.29398841196E+02 -0.13600818325E+03  0.14018292238E+03  0.00000000000E+00 0.  1.
          5    1    3    3  502    0  0.79492061626E+02 -0.51042394763E+02 -0.56115046818E+02  0.10997864522E+03  0.47000000000E+01 0. -1.
         13    1    6    6    0    0 -0.35863252672E+02  0.34652231134E+02 -0.27033690437E+02  0.56725394961E+02  0.00000000000E+00 0. -1.
        -14    1    6    6    0    0 -0.20744329182E+02  0.33926692600E+02 -0.16330117482E+03  0.16807326188E+03  0.00000000000E+00 0.  1.
         -5    1    5    5    0  503 -0.12963950448E+02 -0.97192300565E+01 -0.34367624315E+03  0.34409007185E+03  0.47000000000E+01 0.  1.
<mgrwt>
<rscale>  2 0.19578097E+03</rscale>
<asrwt>0</asrwt>
<pdfrwt beam="1">  1       21 0.80677064E-02 0.19612884E+03</pdfrwt>
<pdfrwt beam="2">  1       21 0.12651174E+00 0.19612884E+03</pdfrwt>
<totfact> 0.54636733E+04</totfact>
</mgrwt>
</event>
<event>
12    1  0.2769346E-001  0.1939461E+03  0.7546771E-02  0.1156264E+00
         21   -1    0    0  504  503  0.00000000000E+00  0.00000000000E+00  0.55979402768E+02  0.55979402768E+02  0.00000000000E+00 0. -1.
         21   -1    0    0  502  504 -0.00000000000E+00 -0.00000000000E+00 -0.13013882656E+04  0.13013882656E+04  0.00000000000E+00 0. -1.
          6    2    1    2  502    0 -0.90462438803E+02  0.22827897865E+01 -0.10974004016E+04  0.11133972012E+04  0.16485454925E+03 0.  0.
         24    2    3    3    0    0 -0.88620929911E+02 -0.46894702626E+02 -0.82490390560E+03  0.83645271722E+03  0.95571503693E+02 0.  0.
         -6    2    1    2    0  503  0.90462438803E+02 -0.22827897865E+01 -0.14800846128E+03  0.24397046714E+03  0.17154130775E+03 0.  0.
        -24    2    5    5    0    0  0.95450119603E+02 -0.18421824134E+02 -0.39368804555E+02  0.13392497472E+03  0.83282093782E+02 0.  0.
          4    1    4    4  501    0 -0.86629395145E+02 -0.67835084342E+02 -0.76689415999E+03  0.77474699315E+03  0.00000000000E+00 0. -1.
         -3    1    4    4    0  501 -0.19915347662E+01  0.20940381715E+02 -0.58009745618E+02  0.61705724076E+02  0.00000000000E+00 0.  1.
          5    1    3    3  502    0 -0.18415088915E+01  0.49177492413E+02 -0.27249649595E+03  0.27694448400E+03  0.47000000000E+01 0. -1.
         11    1    6    6    0    0  0.28650661987E+02 -0.21249538515E+02 -0.54725778011E+02  0.65324682153E+02  0.00000000000E+00 0. -1.
        -12    1    6    6    0    0  0.66799457616E+02  0.28277143808E+01  0.15356973457E+02  0.68600292566E+02  0.00000000000E+00 0.  1.
         -5    1    5    5    0  503 -0.49876808004E+01  0.16139034348E+02 -0.10863965672E+03  0.11004549242E+03  0.47000000000E+01 0.  1.
<mgrwt>
<rscale>  2 0.19245692E+03</rscale>
<asrwt>0</asrwt>
<pdfrwt beam="1">  1       21 0.86122161E-02 0.19394609E+03</pdfrwt>
<pdfrwt beam="2">  1       21 0.20021357E+00 0.19394609E+03</pdfrwt>
<totfact> 0.14108444E+04</totfact>
</mgrwt>
</event>
<event>
12    1  0.2769346E-001  0.1760754E+03  0.7546771E-02  0.1171976E+00
         21   -1    0    0  504  503  0.00000000000E+00  0.00000000000E+00  0.33578631960E+02  0.33578631960E+02  0.00000000000E+00 0. -1.
         21   -1    0    0  502  504 -0.00000000000E+00 -0.00000000000E+00 -0.10741474044E+04  0.10741474044E+04  0.00000000000E+00 0. -1.
          6    2    1    2  502    0 -0.27462792210E+02  0.14405296512E+02 -0.73402017890E+03  0.75484313603E+03  0.17332287629E+03 0.  0.
         24    2    3    3    0    0  0.26286483536E+02  0.30187674214E+02 -0.21649051348E+03  0.23426930584E+03  0.80073031278E+02 0.  0.
         -6    2    1    2    0  503  0.27462792210E+02 -0.14405296512E+02 -0.30654859349E+03  0.35288290029E+03  0.17202495058E+03 0.  0.
        -24    2    5    5    0    0  0.60057165527E+02  0.12877459928E+02 -0.10111043584E+03  0.14304089164E+03  0.80403260767E+02 0.  0.
          2    1    4    4  501    0  0.53307081959E+02  0.21035199421E+02 -0.17310641196E+03  0.18234570043E+03  0.00000000000E+00 0. -1.
         -1    1    4    4    0  501 -0.27020598424E+02  0.91524747929E+01 -0.43384101519E+02  0.51923605409E+02  0.00000000000E+00 0.  1.
          5    1    3    3  502    0 -0.53749275746E+02 -0.15782377702E+02 -0.51752966542E+03  0.52057383019E+03  0.47000000000E+01 0. -1.
         13    1    6    6    0    0 -0.16706560585E+02  0.12378211132E+02 -0.77904437066E+01  0.22204060227E+02  0.00000000000E+00 0. -1.
        -14    1    6    6    0    0  0.76763726112E+02  0.49924879538E+00 -0.93319992130E+02  0.12083683142E+03  0.00000000000E+00 0.  1.
         -5    1    5    5    0  503 -0.32594373317E+02 -0.27282756440E+02 -0.20543815766E+03  0.20984200864E+03  0.47000000000E+01 0.  1.
<mgrwt>
<rscale>  2 0.17575513E+03</rscale>
<asrwt>0</asrwt>
<pdfrwt beam="1">  1       21 0.51659436E-02 0.17607537E+03</pdfrwt>
<pdfrwt beam="2">  1       21 0.16525344E+00 0.17607537E+03</pdfrwt>
<totfact> 0.59241743E+04</totfact>
</mgrwt>
</event>
<event>
12    1  0.2769346E-001  0.2549928E+03  0.7546771E-02  0.1110240E+00
         21   -1    0    0  504  503  0.00000000000E+00  0.00000000000E+00  0.50498476466E+03  0.50498476466E+03  0.00000000000E+00 0.  1.
         21   -1    0    0  502  504 -0.00000000000E+00 -0.00000000000E+00 -0.12863788314E+03  0.12863788314E+03  0.00000000000E+00 0.  1.
          6    2    1    2  502    0 -0.91442195969E+02  0.16378796080E+03  0.18238616096E+03  0.31350605661E+03  0.17272279675E+03 0.  0.
         24    2    3    3    0    0  0.13803554316E+02  0.41012732004E+02  0.48459827923E+02  0.10348515899E+03  0.80549617692E+02 0.  0.
         -6    2    1    2    0  503  0.91442195969E+02 -0.16378796080E+03  0.19396072056E+03  0.32011659119E+03  0.17223733488E+03 0.  0.
        -24    2    5    5    0    0  0.95516892309E+02 -0.18553125550E+03  0.19632836923E+03  0.29737742290E+03  0.79644080782E+02 0.  0.
          2    1    4    4  501    0  0.42763199399E+02  0.19508912075E+01  0.22214060293E+02  0.48228224869E+02  0.00000000000E+00 0. -1.
         -1    1    4    4    0  501 -0.28959645083E+02  0.39061840797E+02  0.26245767630E+02  0.55256934120E+02  0.00000000000E+00 0.  1.
          5    1    3    3  502    0 -0.10524575029E+03  0.12277522880E+03  0.13392633303E+03  0.21002089762E+03  0.47000000000E+01 0. -1.
         11    1    6    6    0    0  0.18244696277E+02  0.36950163276E+01  0.12044865545E+02  0.22172074190E+02  0.00000000000E+00 0. -1.
        -12    1    6    6    0    0  0.77272196032E+02 -0.18922627182E+03  0.18428350368E+03  0.27520534871E+03  0.00000000000E+00 0.  1.
         -5    1    5    5    0  503 -0.40746963397E+01  0.21743294693E+02 -0.23676486659E+01  0.22739168291E+02  0.47000000000E+01 0.  1.
<mgrwt>
<rscale>  2 0.25491063E+03</rscale>
<asrwt>0</asrwt>
<pdfrwt beam="1">  1       21 0.77689963E-01 0.25499282E+03</pdfrwt>
<pdfrwt beam="2">  1       21 0.19790444E-01 0.25499282E+03</pdfrwt>
<totfact> 0.33545369E+04</totfact>
</mgrwt>
</event>
<event>
12    1  0.2769346E-001  0.2334779E+03  0.7546771E-02  0.1124217E+00
         21   -1    0    0  504  503  0.00000000000E+00  0.00000000000E+00  0.13961889716E+03  0.13961889716E+03  0.00000000000E+00 0. -1.
         21   -1    0    0  502  504 -0.00000000000E+00 -0.00000000000E+00 -0.39431865328E+03  0.39431865328E+03  0.00000000000E+00 0.  1.
          6    2    1    2  502    0  0.12589114577E+03 -0.93841337265E+02 -0.10078742320E+03  0.25429321272E+03  0.17277776535E+03 0.  0.
         24    2    3    3    0    0  0.10857154248E+03 -0.10351370269E+03 -0.15257156400E+02  0.16636688077E+03  0.70301434657E+02 0.  0.
         -6    2    1    2    0  503 -0.12589114577E+03  0.93841337265E+02 -0.15391233292E+03  0.27964433773E+03  0.17279228060E+03 0.  0.
        -24    2    5    5    0    0 -0.72146231587E+02  0.67621442118E+02 -0.16109291425E+02  0.12935206598E+03  0.81821204688E+02 0.  0.
          4    1    4    4  501    0  0.12658570703E+02  0.71895959378E+01  0.10094929484E+02  0.17715453798E+02  0.00000000000E+00 0. -1.
         -3    1    4    4    0  501  0.95912971776E+02 -0.11070329863E+03 -0.25352085884E+02  0.14865142697E+03  0.00000000000E+00 0.  1.
          5    1    3    3  502    0  0.17319603288E+02  0.96723654288E+01 -0.85530266801E+02  0.87926331949E+02  0.47000000000E+01 0. -1.
         11    1    6    6    0    0 -0.69930702250E+02  0.64338527228E+02 -0.41472965547E+02  0.10368103045E+03  0.00000000000E+00 0. -1.
        -12    1    6    6    0    0 -0.22155293372E+01  0.32829148900E+01  0.25363674122E+02  0.25671035534E+02  0.00000000000E+00 0.  1.
         -5    1    5    5    0  503 -0.53744914179E+02  0.26219895147E+02 -0.13780304149E+03  0.15029227175E+03  0.47000000000E+01 0.  1.
<mgrwt>
<rscale>  2 0.23347526E+03</rscale>
<asrwt>0</asrwt>
<pdfrwt beam="1">  1       21 0.21479830E-01 0.23347794E+03</pdfrwt>
<pdfrwt beam="2">  1       21 0.60664408E-01 0.23347794E+03</pdfrwt>
<totfact> 0.50141071E+04</totfact>
</mgrwt>
</event>
<event>
12    1  0.2769346E-001  0.2093941E+03  0.7546771E-02  0.1142185E+00
         21   -1    0    0  504  503  0.00000000000E+00  0.00000000000E+00  0.15562191333E+03  0.15562191333E+03  0.00000000000E+00 0. -1.
         21   -1    0    0  502  504 -0.00000000000E+00 -0.00000000000E+00 -0.31624880529E+03  0.31624880529E+03  0.00000000000E+00 0. -1.
          6    2    1    2  502    0 -0.59971253260E+02  0.99677166492E+02 -0.12186219718E+01  0.20870369175E+03  0.17327335967E+03 0.  0.
         24    2    3    3    0    0 -0.38980482420E+02 -0.15451293803E+02  0.95556842881E+01  0.91088426980E+02  0.80296761688E+02 0.  0.
         -6    2    1    2    0  503  0.59971253260E+02 -0.99677166492E+02 -0.15940826998E+03  0.26316702687E+03  0.17410858324E+03 0.  0.
        -24    2    5    5    0    0  0.10266573839E+03 -0.86053397776E+02 -0.79008823110E+02  0.17100094205E+03  0.71087881841E+02 0.  0.
          4    1    4    4  501    0 -0.10022468324E+02 -0.18653060294E+02 -0.33183220717E+02  0.39363849746E+02  0.00000000000E+00 0. -1.
         -3    1    4    4    0  501 -0.28958014095E+02  0.32017664908E+01  0.42738905005E+02  0.51724577234E+02  0.00000000000E+00 0.  1.
          5    1    3    3  502    0 -0.20990770840E+02  0.11512846030E+03 -0.10774306260E+02  0.11761526477E+03  0.47000000000E+01 0. -1.
         11    1    6    6    0    0  0.31494315067E+02 -0.42579105686E+02 -0.69031921433E+02  0.87007346237E+02  0.00000000000E+00 0. -1.
        -12    1    6    6    0    0  0.71171423321E+02 -0.43474292090E+02 -0.99769016779E+01  0.83993595811E+02  0.00000000000E+00 0.  1.
         -5    1    5    5    0  503 -0.42694485128E+02 -0.13623768716E+02 -0.80399446874E+02  0.92166084826E+02  0.47000000000E+01 0.  1.
<mgrwt>
<rscale>  2 0.20922039E+03</rscale>
<asrwt>0</asrwt>
<pdfrwt beam="1">  1       21 0.23941833E-01 0.20939410E+03</pdfrwt>
<pdfrwt beam="2">  1       21 0.48653662E-01 0.20939410E+03</pdfrwt>
<totfact> 0.65835086E+04</totfact>
</mgrwt>
</event>
<event>
12    1  0.2769346E-001  0.1942626E+03  0.7546771E-02  0.1154927E+00
         21   -1    0    0  504  503  0.00000000000E+00  0.00000000000E+00  0.32111372355E+02  0.32111372355E+02  0.00000000000E+00 0.  1.
         21   -1    0    0  502  504 -0.00000000000E+00 -0.00000000000E+00 -0.11772115985E+04  0.11772115985E+04  0.00000000000E+00 0.  1.
          6    2    1    2  502    0  0.84879174381E+02  0.18300535691E+02 -0.62370217400E+03  0.65291134594E+03  0.17248025962E+03 0.  0.
         24    2    3    3    0    0  0.89309514749E+02 -0.84846393178E+01 -0.24411854534E+03  0.27232903597E+03  0.80753087404E+02 0.  0.
         -6    2    1    2    0  503 -0.84879174381E+02 -0.18300535691E+02 -0.52139805215E+03  0.55641162492E+03  0.17377739700E+03 0.  0.
        -24    2    5    5    0    0  0.42449446484E+01 -0.73572231432E+01 -0.11605255994E+03  0.14121297037E+03  0.80004737640E+02 0.  0.
          4    1    4    4  501    0  0.95476332909E+02 -0.99208884167E+01 -0.24727585107E+03  0.26525365350E+03  0.00000000000E+00 0. -1.
         -3    1    4    4    0  501 -0.61668181594E+01  0.14362490988E+01  0.31573057283E+01  0.70753824736E+01  0.00000000000E+00 0.  1.
          5    1    3    3  502    0 -0.44303403684E+01  0.26785175009E+02 -0.37958362866E+03  0.38058230997E+03  0.47000000000E+01 0. -1.
         11    1    6    6    0    0  0.23693167036E+02  0.84837957785E+01 -0.11320497938E+03  0.11596856605E+03  0.00000000000E+00 0. -1.
        -12    1    6    6    0    0 -0.19448222388E+02 -0.15841018922E+02 -0.28475805604E+01  0.25244404322E+02  0.00000000000E+00 0.  1.
         -5    1    5    5    0  503 -0.89124119030E+02 -0.10943312548E+02 -0.40534549221E+03  0.41519865454E+03  0.47000000000E+01 0.  1.
<mgrwt>
<rscale>  2 0.19397210E+03</rscale>
<asrwt>0</asrwt>
<pdfrwt beam="1">  1       21 0.49402113E-02 0.19426263E+03</pdfrwt>
<pdfrwt beam="2">  1       21 0.18110947E+00 0.19426263E+03</pdfrwt>
<totfact> 0.49046325E+04</totfact>
</mgrwt>
</event>
<event>
12    1  0.2769346E-001  0.2164237E+03  0.7546771E-02  0.1136898E+00
         21   -1    0    0  504  503  0.00000000000E+00  0.00000000000E+00  0.14365991443E+03  0.14365991443E+03  0.00000000000E+00 0.  1.
         21   -1    0    0  502  504 -0.00000000000E+00 -0.00000000000E+00 -0.32785776778E+03  0.32785776778E+03  0.00000000000E+00 0.  1.
          6    2    1    2  502    0 -0.89278869614E+02 -0.91335610819E+02 -0.64628199145E+02  0.22426052712E+03  0.17263565546E+03 0.  0.
         24    2    3    3    0    0 -0.12283632430E+03 -0.84390473511E+02 -0.80151160291E+02  0.18634760030E+03  0.78042969283E+02 0.  0.
         -6    2    1    2    0  503  0.89278869614E+02  0.91335610819E+02 -0.11956965420E+03  0.24725715509E+03  0.17471773857E+03 0.  0.
        -24    2    5    5    0    0  0.64197019518E+02  0.33231618449E+01 -0.44200417544E+01  0.10009461357E+03  0.76596959320E+02 0.  0.
          4    1    4    4  501    0 -0.61759206039E+02 -0.84346429830E+02 -0.66071075769E+02  0.12366853605E+03  0.00000000000E+00 0. -1.
         -3    1    4    4    0  501 -0.61077118261E+02 -0.44043680504E-01 -0.14080084521E+02  0.62679064248E+02  0.00000000000E+00 0.  1.
          5    1    3    3  502    0  0.33557454686E+02 -0.69451373086E+01  0.15522961145E+02  0.37912926818E+02  0.47000000000E+01 0. -1.
         13    1    6    6    0    0  0.15586520616E+01 -0.25664595231E+02  0.13140359516E+02  0.28875073901E+02  0.00000000000E+00 0. -1.
        -14    1    6    6    0    0  0.62638367456E+02  0.28987757076E+02 -0.17560401270E+02  0.71219539669E+02  0.00000000000E+00 0.  1.
         -5    1    5    5    0  503  0.25081850096E+02  0.88012448974E+02 -0.11514961245E+03  0.14716254152E+03  0.47000000000E+01 0.  1.
<mgrwt>
<rscale>  2 0.21600310E+03</rscale>
<asrwt>0</asrwt>
<pdfrwt beam="1">  1       21 0.22101525E-01 0.21642366E+03</pdfrwt>
<pdfrwt beam="2">  1       21 0.50439656E-01 0.21642366E+03</pdfrwt>
<totfact> 0.70856986E+04</totfact>
</mgrwt>
</event>
<event>
12    1  0.2769346E-001  0.2695331E+03  0.7546771E-02  0.1101640E+00
         21   -1    0    0  504  503  0.00000000000E+00  0.00000000000E+00  0.21216556750E+03  0.21216556750E+03  0.00000000000E+00 0.  1.
         21   -1    0    0  502  504 -0.00000000000E+00 -0.00000000000E+00 -0.63722278947E+03  0.63722278947E+03  0.00000000000E+00 0.  1.
          6    2    1    2  502    0 -0.14005559050E+02 -0.20670681807E+03 -0.50166443639E+03  0.56917990537E+03  0.17139047122E+03 0.  0.
         24    2    3    3    0    0  0.51901615433E+02 -0.42251280419E+02 -0.22477101255E+03  0.24042249074E+03  0.52934087213E+02 0.  0.
         -6    2    1    2    0  503  0.14005559050E+02  0.20670681807E+03  0.76607214415E+02  0.28020845160E+03  0.17240721193E+03 0.  0.
        -24    2    5    5    0    0 -0.52417423907E+02  0.94980508360E+02  0.63563623839E+02  0.14949117576E+03  0.80860336743E+02 0.  0.
          4    1    4    4  501    0  0.48862597436E+00  0.11037051604E+02 -0.23639282870E+02  0.26093504135E+02  0.00000000000E+00 0. -1.
         -3    1    4    4    0  501  0.51412989459E+02 -0.53288332023E+02 -0.20113172969E+03  0.21432898661E+03  0.00000000000E+00 0.  1.
          5    1    3    3  502    0 -0.65907174484E+02 -0.16445553765E+03 -0.27689342383E+03  0.32875741463E+03  0.47000000000E+01 0. -1.
         13    1    6    6    0    0  0.17815862193E+02  0.16256461603E+02 -0.36603939231E+01  0.24394179084E+02  0.00000000000E+00 0. -1.
        -14    1    6    6    0    0 -0.70233286099E+02  0.78724046757E+02  0.67224017762E+02  0.12509699668E+03  0.00000000000E+00 0.  1.
         -5    1    5    5    0  503  0.66422982957E+02  0.11172630971E+03  0.13043590576E+02  0.13071727583E+03  0.47000000000E+01 0.  1.
<mgrwt>
<rscale>  2 0.26937068E+03</rscale>
<asrwt>0</asrwt>
<pdfrwt beam="1">  1       21 0.32640857E-01 0.26953314E+03</pdfrwt>
<pdfrwt beam="2">  1       21 0.98034274E-01 0.26953314E+03</pdfrwt>
<totfact> 0.73976968E+03</totfact>
</mgrwt>
</event>
<event>
12    1  0.2769346E-001  0.2475619E+03  0.7546771E-02  0.1115008E+00
         21   -1    0    0  504  503  0.00000000000E+00  0.00000000000E+00  0.40181527659E+03  0.40181527659E+03  0.00000000000E+00 0.  1.
         21   -1    0    0  502  504 -0.00000000000E+00 -0.00000000000E+00 -0.17163081032E+03  0.17163081032E+03  0.00000000000E+00 0. -1.
          6    2    1    2  502    0  0.14359624014E+03 -0.10202181813E+03  0.18167062308E+02  0.24822758692E+03  0.17394988129E+03 0.  0.
         24    2    3    3    0    0  0.11866710982E+03 -0.14068430178E+03  0.18807400698E+02  0.20198097392E+03  0.81047145443E+02 0.  0.
         -6    2    1    2    0  503 -0.14359624014E+03  0.10202181813E+03  0.21201740397E+03  0.32521849999E+03  0.17259015498E+03 0.  0.
        -24    2    5    5    0    0 -0.10478950318E+03  0.25598223032E+02  0.53672210629E+02  0.14510237363E+03  0.80857180514E+02 0.  0.
          4    1    4    4  501    0  0.59363823706E+02 -0.40908615009E+02  0.42258303362E+02  0.83566396057E+02  0.00000000000E+00 0. -1.
         -3    1    4    4    0  501  0.59303286110E+02 -0.99775686776E+02 -0.23450902664E+02  0.11841457786E+03  0.00000000000E+00 0.  1.
          5    1    3    3  502    0  0.24929130319E+02  0.38662483654E+02 -0.64033838972E+00  0.46246613000E+02  0.47000000000E+01 0. -1.
         13    1    6    6    0    0 -0.37804052118E+02 -0.27061799948E+02  0.44596666088E+01  0.46705203128E+02  0.00000000000E+00 0. -1.
        -14    1    6    6    0    0 -0.66985451060E+02  0.52660022980E+02  0.49212544021E+02  0.98397170503E+02  0.00000000000E+00 0.  1.
         -5    1    5    5    0  503 -0.38806736957E+02  0.76423595098E+02  0.15834519334E+03  0.18011612636E+03  0.47000000000E+01 0.  1.
<mgrwt>
<rscale>  2 0.24732317E+03</rscale>
<asrwt>0</asrwt>
<pdfrwt beam="1">  1       21 0.61817734E-01 0.24756190E+03</pdfrwt>
<pdfrwt beam="2">  1       21 0.26404740E-01 0.24756190E+03</pdfrwt>
<totfact> 0.32255294E+04</totfact>
</mgrwt>
</event>
<event>
12    1  0.2769346E-001  0.1850304E+03  0.7546771E-02  0.1163400E+00
         21   -1    0    0  504  503  0.00000000000E+00  0.00000000000E+00  0.21723359380E+03  0.21723359380E+03  0.00000000000E+00 0. -1.
         21   -1    0    0  502  504 -0.00000000000E+00 -0.00000000000E+00 -0.18320864973E+03  0.18320864973E+03  0.00000000000E+00 0. -1.
          6    2    1    2  502    0 -0.27171882689E+02  0.55555766621E+02 -0.59885377540E+02  0.19294426853E+03  0.17267448538E+03 0.  0.
         24    2    3    3    0    0 -0.10425562557E+02 -0.17189252170E+02  0.23903496932E+02  0.80628007539E+02  0.74332601793E+02 0.  0.
         -6    2    1    2    0  503  0.27171882689E+02 -0.55555766621E+02  0.93910321610E+02  0.20749797501E+03  0.17438895238E+03 0.  0.
        -24    2    5    5    0    0  0.37523355098E+02 -0.61653373268E+02 -0.91538282439E+01  0.10362958341E+03  0.73798085158E+02 0.  0.
          2    1    4    4  501    0  0.38420152454E+01  0.29440846984E+01  0.46749746373E+02  0.46999654274E+02  0.00000000000E+00 0. -1.
         -1    1    4    4    0  501 -0.14267577802E+02 -0.20133336869E+02 -0.22846249441E+02  0.33628353265E+02  0.00000000000E+00 0.  1.
          5    1    3    3  502    0 -0.16746320132E+02  0.72745018792E+02 -0.83788874472E+02  0.11231626099E+03  0.47000000000E+01 0. -1.
         13    1    6    6    0    0  0.47690662657E+02 -0.83816747334E+01 -0.97479305721E+01  0.49393055448E+02  0.00000000000E+00 0. -1.
        -14    1    6    6    0    0 -0.10167307559E+02 -0.53271698535E+02  0.59410232827E+00  0.54236527962E+02  0.00000000000E+00 0.  1.
         -5    1    5    5    0  503 -0.10351472409E+02  0.60976066467E+01  0.10306414985E+03  0.10386839160E+03  0.47000000000E+01 0.  1.
<mgrwt>
<rscale>  2 0.18462536E+03</rscale>
<asrwt>0</asrwt>
<pdfrwt beam="1">  1       21 0.33420553E-01 0.18503043E+03</pdfrwt>
<pdfrwt beam="2">  1       21 0.28185946E-01 0.18503043E+03</pdfrwt>
<totfact> 0.10400772E+05</totfact>
</mgrwt>
</event>
<event>
12    1  0.2769346E-001  0.1739933E+03  0.7546771E-02  0.1175007E+00
         21   -1    0    0  504  503  0.00000000000E+00  0.00000000000E+00  0.22642795701E+04  0.22642795701E+04  0.00000000000E+00 0. -1.
         21   -1    0    0  502  504 -0.00000000000E+00 -0.00000000000E+00 -0.16270452146E+02  0.16270452146E+02  0.00000000000E+00 0. -1.
          6    2    1    2  502    0 -0.17171835433E+02  0.45024710110E+01  0.59963919644E+03  0.62302263038E+03  0.16815138384E+03 0.  0.
         24    2    3    3    0    0 -0.53551788315E+02 -0.42504586980E+02  0.44303707283E+03  0.45545330266E+03  0.80507323035E+02 0.  0.
         -6    2    1    2    0  503  0.17171835433E+02 -0.45024710110E+01  0.16483699215E+04  0.16575273918E+04  0.17308527506E+03 0.  0.
        -24    2    5    5    0    0  0.70604837710E+02 -0.32192225362E+02  0.11848724399E+04  0.11901155674E+04  0.80193405832E+02 0.  0.
          4    1    4    4  501    0  0.39004618897E+01 -0.33451011737E+02  0.67456130643E+02  0.75395711751E+02  0.00000000000E+00 0. -1.
         -3    1    4    4    0  501 -0.57452250205E+02 -0.90535752423E+01  0.37558094218E+03  0.38005759091E+03  0.00000000000E+00 0.  1.
          5    1    3    3  502    0  0.36379952882E+02  0.47007057991E+02  0.15660212361E+03  0.16756932772E+03  0.47000000000E+01 0. -1.
         13    1    6    6    0    0 -0.27962599747E+01  0.18745190805E+02  0.34110836581E+03  0.34163448081E+03  0.00000000000E+00 0. -1.
        -14    1    6    6    0    0  0.73401097685E+02 -0.50937416168E+02  0.84376407409E+03  0.84848108655E+03  0.00000000000E+00 0.  1.
         -5    1    5    5    0  503 -0.53433002277E+02  0.27689754351E+02  0.46349748158E+03  0.46741182448E+03  0.47000000000E+01 0.  1.
<mgrwt>
<rscale>  2 0.17275322E+03</rscale>
<asrwt>0</asrwt>
<pdfrwt beam="1">  1       21 0.34835045E+00 0.17399327E+03</pdfrwt>
<pdfrwt beam="2">  1       21 0.25031483E-02 0.17399327E+03</pdfrwt>
<totfact> 0.15595641E+04</totfact>
</mgrwt>
</event>
<event>
12    1  0.2769346E-001  0.1833315E+03  0.7546771E-02  0.1166512E+00
         21   -1    0    0  504  503  0.00000000000E+00  0.00000000000E+00  0.43524130364E+03  0.43524130364E+03  0.00000000000E+00 0.  1.
         21   -1    0    0  502  504 -0.00000000000E+00 -0.00000000000E+00 -0.78150063794E+02  0.78150063794E+02  0.00000000000E+00 0.  1.
          6    2    1    2  502    0  0.38133736377E+02  0.59223184502E+01  0.12279167912E+03  0.22065414518E+03  0.17922388127E+03 0.  0.
         24    2    3    3    0    0  0.30156826502E+02  0.69047174545E+02  0.11104409121E+03  0.15578138996E+03  0.79120823859E+02 0.  0.
         -6    2    1    2    0  503 -0.38133736377E+02 -0.59223184502E+01  0.23429956073E+03  0.29273722225E+03  0.17120029623E+03 0.  0.
        -24    2    5    5    0    0  0.32406618482E+02 -0.16993130041E+02  0.59910870916E+02  0.10423785974E+03  0.77053640793E+02 0.  0.
          2    1    4    4  501    0  0.37110241229E+02  0.19319815047E+02  0.93772791443E+02  0.10268282073E+03  0.00000000000E+00 0. -1.
         -1    1    4    4    0  501 -0.69534147275E+01  0.49727359498E+02  0.17271299767E+02  0.53098569234E+02  0.00000000000E+00 0.  1.
          5    1    3    3  502    0  0.79769098758E+01 -0.63124856095E+02  0.11747587908E+02  0.64872755220E+02  0.47000000000E+01 0. -1.
         13    1    6    6    0    0 -0.22078397646E+02 -0.12066868211E+02  0.30706598913E+01  0.25347463447E+02  0.00000000000E+00 0. -1.
        -14    1    6    6    0    0  0.54485016128E+02 -0.49262618302E+01  0.56840211025E+02  0.78890396294E+02  0.00000000000E+00 0.  1.
         -5    1    5    5    0  503 -0.70540354860E+02  0.11070811591E+02  0.17438868981E+03  0.18849936251E+03  0.47000000000E+01 0.  1.
<mgrwt>
<rscale>  2 0.18134042E+03</rscale>
<asrwt>0</asrwt>
<pdfrwt beam="1">  1       21 0.66960199E-01 0.18333154E+03</pdfrwt>
<pdfrwt beam="2">  1       21 0.12023087E-01 0.18333154E+03</pdfrwt>
<totfact> 0.11986005E+05</totfact>
</mgrwt>
</event>
<event>
12    1  0.2769346E-001  0.2118318E+03  0.7546771E-02  0.1140307E+00
         21   -1    0    0  504  503  0.00000000000E+00  0.00000000000E+00  0.15310597488E+03  0.15310597488E+03  0.00000000000E+00 0. -1.
         21   -1    0    0  502  504 -0.00000000000E+00 -0.00000000000E+00 -0.56966473237E+03  0.56966473237E+03  0.00000000000E+00 0. -1.
          6    2    1    2  502    0 -0.11689747080E+03 -0.32845916058E+02 -0.46044047273E+03  0.50644155246E+03  0.17243475358E+03 0.  0.
         24    2    3    3    0    0 -0.55757610778E+01 -0.72369153801E+01 -0.29496910738E+03  0.30531669889E+03  0.78281864158E+02 0.  0.
         -6    2    1    2    0  503  0.11689747080E+03  0.32845916058E+02  0.43881715247E+02  0.21632915480E+03  0.17357656928E+03 0.  0.
        -24    2    5    5    0    0  0.14022584779E+03  0.28064843684E+01  0.57180528642E+02  0.17576403349E+03  0.89175208831E+02 0.  0.
          4    1    4    4  501    0 -0.19103015855E+02 -0.38238155842E+02 -0.12775956463E+03  0.13472040726E+03  0.00000000000E+00 0. -1.
         -3    1    4    4    0  501  0.13527254777E+02  0.31001240462E+02 -0.16720954275E+03  0.17059629164E+03  0.00000000000E+00 0.  1.
          5    1    3    3  502    0 -0.11132170972E+03 -0.25609000677E+02 -0.16547136535E+03  0.20112485356E+03  0.47000000000E+01 0. -1.
         11    1    6    6    0    0  0.89933743273E+02 -0.40794497654E+02  0.43001276725E+02  0.10770969788E+03  0.00000000000E+00 0. -1.
        -12    1    6    6    0    0  0.50292104515E+02  0.43600982022E+02  0.14179251916E+02  0.68054335606E+02  0.00000000000E+00 0.  1.
         -5    1    5    5    0  503 -0.23328376991E+02  0.30039431689E+02 -0.13298813395E+02  0.40565121311E+02  0.47000000000E+01 0. -1.
<mgrwt>
<rscale>  2 0.21159773E+03</rscale>
<asrwt>0</asrwt>
<pdfrwt beam="1">  1       21 0.23554765E-01 0.21183177E+03</pdfrwt>
<pdfrwt beam="2">  1       21 0.87640728E-01 0.21183177E+03</pdfrwt>
<totfact> 0.18728479E+04</totfact>
</mgrwt>
</event>
<event>
12    1  0.2769346E-001  0.2068645E+03  0.7546771E-02  0.1144273E+00
         21   -1    0    0  504  503  0.00000000000E+00  0.00000000000E+00  0.68217559769E+03  0.68217559769E+03  0.00000000000E+00 0. -1.
         21   -1    0    0  502  504 -0.00000000000E+00 -0.00000000000E+00 -0.69246812966E+02  0.69246812966E+02  0.00000000000E+00 0. -1.
          6    2    1    2  502    0 -0.70330966204E+02 -0.87619875751E+02  0.18792666798E+03  0.27874947216E+03  0.17251419726E+03 0.  0.
         24    2    3    3    0    0  0.18853175138E+01 -0.24385906684E+01  0.12018537298E+03  0.14805128544E+03  0.86401146382E+02 0.  0.
         -6    2    1    2    0  503  0.70330966204E+02  0.87619875751E+02  0.42500211675E+03  0.47267293850E+03  0.17369289023E+03 0.  0.
        -24    2    5    5    0    0  0.74649205194E+02  0.73246738616E+02  0.16603649864E+03  0.21323023650E+03  0.83435162398E+02 0.  0.
          4    1    4    4  501    0  0.23844943113E+02 -0.59963668507E+01 -0.12267730140E+01  0.24617934509E+02  0.00000000000E+00 0. -1.
         -3    1    4    4    0  501 -0.21959625599E+02  0.35577761823E+01  0.12141214599E+03  0.12343335093E+03  0.00000000000E+00 0.  1.
          5    1    3    3  502    0 -0.72216283718E+02 -0.85181285083E+02  0.67741295001E+02  0.13069818672E+03  0.47000000000E+01 0. -1.
         13    1    6    6    0    0  0.17816481883E+02  0.69397938347E+02  0.62587823275E+02  0.95135358810E+02  0.00000000000E+00 0. -1.
        -14    1    6    6    0    0  0.56832723311E+02  0.38488002682E+01  0.10344867537E+03  0.11809487769E+03  0.00000000000E+00 0.  1.
         -5    1    5    5    0  503 -0.43182389900E+01  0.14373137136E+02  0.25896561810E+03  0.25944270200E+03  0.47000000000E+01 0.  1.
<mgrwt>
<rscale>  2 0.20661685E+03</rscale>
<asrwt>0</asrwt>
<pdfrwt beam="1">  1       21 0.10495009E+00 0.20686447E+03</pdfrwt>
<pdfrwt beam="2">  1       21 0.10653356E-01 0.20686447E+03</pdfrwt>
<totfact> 0.52679497E+04</totfact>
</mgrwt>
</event>
<event>
12    1  0.2769346E-001  0.2055175E+03  0.7546771E-02  0.1145221E+00
         21   -1    0    0  504  503  0.00000000000E+00  0.00000000000E+00  0.49645407818E+02  0.49645407818E+02  0.00000000000E+00 0. -1.
         21   -1    0    0  502  504 -0.00000000000E+00 -0.00000000000E+00 -0.11591281303E+04  0.11591281303E+04  0.00000000000E+00 0. -1.
          6    2    1    2  502    0 -0.10072674155E+03  0.45422162841E+02 -0.24218938602E+03  0.31746261740E+03  0.17296752703E+03 0.  0.
         24    2    3    3    0    0 -0.61307291123E+01 -0.21293668882E+02 -0.63627107303E+02  0.10461059098E+03  0.80024751091E+02 0.  0.
         -6    2    1    2    0  503  0.10072674155E+03 -0.45422162841E+02 -0.86729333644E+03  0.89131092069E+03  0.17328697752E+03 0.  0.
        -24    2    5    5    0    0  0.39306162260E+02 -0.91704207428E+02 -0.54802781902E+03  0.56287968615E+03  0.80897556266E+02 0.  0.
          2    1    4    4  501    0  0.25449114149E+02 -0.27346576890E+01  0.56809040707E+01  0.26218475064E+02  0.00000000000E+00 0. -1.
         -1    1    4    4    0  501 -0.31579843261E+02 -0.18559011193E+02 -0.69308011373E+02  0.78392115914E+02  0.00000000000E+00 0.  1.
          5    1    3    3  502    0 -0.94596012437E+02  0.66715831723E+02 -0.17856227872E+03  0.21285202643E+03  0.47000000000E+01 0. -1.
         13    1    6    6    0    0  0.52910878008E+01 -0.56729692146E+02 -0.12901199263E+03  0.14103314442E+03  0.00000000000E+00 0. -1.
        -14    1    6    6    0    0  0.34015074459E+02 -0.34974515282E+02 -0.41901582639E+03  0.42184654173E+03  0.00000000000E+00 0.  1.
         -5    1    5    5    0  503  0.61420579290E+02  0.46282044587E+02 -0.31926551742E+03  0.32843123454E+03  0.47000000000E+01 0.  1.
<mgrwt>
<rscale>  2 0.20545011E+03</rscale>
<asrwt>0</asrwt>
<pdfrwt beam="1">  1       21 0.76377547E-02 0.20551746E+03</pdfrwt>
<pdfrwt beam="2">  1       21 0.17832741E+00 0.20551746E+03</pdfrwt>
<totfact> 0.24081848E+04</totfact>
</mgrwt>
</event>
<event>
12    1  0.2769346E-001  0.2825660E+03  0.7546771E-02  0.1094338E+00
         21   -1    0    0  504  503  0.00000000000E+00  0.00000000000E+00  0.10640728150E+04  0.10640728150E+04  0.00000000000E+00 0. -1.
         21   -1    0    0  502  504 -0.00000000000E+00 -0.00000000000E+00 -0.12987286646E+03  0.12987286646E+03  0.00000000000E+00 0.  1.
          6    2    1    2  502    0 -0.65851108217E+02  0.21253410832E+03  0.79044363504E+02  0.29341358424E+03  0.17417348926E+03 0.  0.
         24    2    3    3    0    0  0.14498850395E+02  0.16864730034E+03  0.73754640661E+02  0.20158636098E+03  0.80902319735E+02 0.  0.
         -6    2    1    2    0  503  0.65851108217E+02 -0.21253410832E+03  0.85515558502E+03  0.90053209722E+03  0.17366596636E+03 0.  0.
        -24    2    5    5    0    0  0.46797959536E+02 -0.21197628654E+03  0.57041298169E+03  0.61511350324E+03  0.76613687469E+02 0.  0.
          4    1    4    4  501    0  0.12307094896E+02 -0.16549509669E+01 -0.56818393111E+01  0.13656014991E+02  0.00000000000E+00 0. -1.
         -3    1    4    4    0  501  0.21917554998E+01  0.17030225131E+03  0.79436479972E+02  0.18793034599E+03  0.00000000000E+00 0.  1.
          5    1    3    3  502    0 -0.80349958612E+02  0.43886807978E+02  0.52897228436E+01  0.91827223258E+02  0.47000000000E+01 0. -1.
         13    1    6    6    0    0  0.63956733577E+02 -0.18738933177E+03  0.52048145835E+03  0.55687177511E+03  0.00000000000E+00 0. -1.
        -14    1    6    6    0    0 -0.17158774041E+02 -0.24586954772E+02  0.49931523348E+02  0.58241728128E+02  0.00000000000E+00 0.  1.
         -5    1    5    5    0  503  0.19053148681E+02 -0.55782178360E+00  0.28474260333E+03  0.28541859398E+03  0.47000000000E+01 0.  1.
<mgrwt>
<rscale>  2 0.28248779E+03</rscale>
<asrwt>0</asrwt>
<pdfrwt beam="1">  1       21 0.16370350E+00 0.28256596E+03</pdfrwt>
<pdfrwt beam="2">  1       21 0.19980442E-01 0.28256596E+03</pdfrwt>
<totfact> 0.51273130E+03</totfact>
</mgrwt>
</event>
<event>
12    1  0.2769346E-001  0.1886423E+03  0.7546771E-02  0.1160423E+00
         21   -1    0    0  504  503  0.00000000000E+00  0.00000000000E+00  0.14816004137E+04  0.14816004137E+04  0.00000000000E+00 0.  1.
         21   -1    0    0  502  504 -0.00000000000E+00 -0.00000000000E+00 -0.40849718470E+02  0.40849718470E+02  0.00000000000E+00 0.  1.
          6    2    1    2  502    0 -0.16951310339E+02  0.68518969342E+02  0.22238708718E+03  0.28956903878E+03  0.17149931659E+03 0.  0.
         24    2    3    3    0    0 -0.70536879144E+02  0.13037402633E+02  0.13291047870E+03  0.17134141555E+03  0.80915141649E+02 0.  0.
         -6    2    1    2    0  503  0.16951310339E+02 -0.68518969342E+02  0.12183636080E+04  0.12328810934E+04  0.17493916927E+03 0.  0.
        -24    2    5    5    0    0 -0.24896057960E+02 -0.43813355549E+02  0.11091774674E+04  0.11132764409E+04  0.81057731686E+02 0.  0.
          2    1    4    4  501    0 -0.17810484700E+02 -0.33227009746E+02  0.40614829437E+02  0.55414906948E+02  0.00000000000E+00 0. -1.
         -1    1    4    4    0  501 -0.52726394444E+02  0.46264412380E+02  0.92295649262E+02  0.11592650860E+03  0.00000000000E+00 0.  1.
          5    1    3    3  502    0  0.53585568805E+02  0.55481566709E+02  0.89476608482E+02  0.11822762323E+03  0.47000000000E+01 0. -1.
         13    1    6    6    0    0  0.15993445338E+02 -0.40541423510E+02  0.31019380356E+03  0.31324047165E+03  0.00000000000E+00 0. -1.
        -14    1    6    6    0    0 -0.40889503299E+02 -0.32719320385E+01  0.79898366380E+03  0.80003596922E+03  0.00000000000E+00 0.  1.
         -5    1    5    5    0  503  0.41847368300E+02 -0.24705613793E+02  0.10918614067E+03  0.11960465250E+03  0.47000000000E+01 0.  1.
<mgrwt>
<rscale>  2 0.18784081E+03</rscale>
<asrwt>0</asrwt>
<pdfrwt beam="1">  1       21 0.22793848E+00 0.18864228E+03</pdfrwt>
<pdfrwt beam="2">  1       21 0.62845732E-02 0.18864228E+03</pdfrwt>
<totfact> 0.16446873E+04</totfact>
</mgrwt>
</event>
<event>
12    1  0.2769346E-001  0.2108612E+03  0.7546771E-02  0.1141039E+00
         21   -1    0    0  504  503  0.00000000000E+00  0.00000000000E+00  0.54315965350E+03  0.54315965350E+03  0.00000000000E+00 0. -1.
         21   -1    0    0  502  504 -0.00000000000E+00 -0.00000000000E+00 -0.99517473957E+02  0.99517473957E+02  0.00000000000E+00 0. -1.
          6    2    1    2  502    0  0.11867164439E+03 -0.18142051795E+02  0.84977765806E+02  0.22662109868E+03  0.17240594090E+03 0.  0.
         24    2    3    3    0    0  0.43158749868E+02 -0.60888554115E+02  0.91287417263E+02  0.13949267392E+03  0.74529992711E+02 0.  0.
         -6    2    1    2    0  503 -0.11867164439E+03  0.18142051795E+02  0.35866441373E+03  0.41605602878E+03  0.17335040864E+03 0.  0.
        -24    2    5    5    0    0 -0.14664675305E+03  0.31219514637E+02  0.33886435301E+03  0.37907280091E+03  0.79920024839E+02 0.  0.
          4    1    4    4  501    0  0.59454282348E+02 -0.27728386588E+02  0.73395557820E+02  0.98440758937E+02  0.00000000000E+00 0. -1.
         -3    1    4    4    0  501 -0.16295532480E+02 -0.33160167527E+02  0.17891859443E+02  0.41051914980E+02  0.00000000000E+00 0.  1.
          5    1    3    3  502    0  0.75512894522E+02  0.42746502320E+02 -0.63096514570E+01  0.87128424760E+02  0.47000000000E+01 0. -1.
         13    1    6    6    0    0 -0.11772188980E+03  0.56282828663E+02  0.24231006384E+03  0.27520967857E+03  0.00000000000E+00 0. -1.
        -14    1    6    6    0    0 -0.28924863254E+02 -0.25063314026E+02  0.96554289175E+02  0.10386312234E+03  0.00000000000E+00 0.  1.
         -5    1    5    5    0  503  0.27975108663E+02 -0.13077462842E+02  0.19800060722E+02  0.36983227870E+02  0.47000000000E+01 0.  1.
<mgrwt>
<rscale>  2 0.21066702E+03</rscale>
<asrwt>0</asrwt>
<pdfrwt beam="1">  1       21 0.83563022E-01 0.21086123E+03</pdfrwt>
<pdfrwt beam="2">  1       21 0.15310381E-01 0.21086123E+03</pdfrwt>
<totfact> 0.46651327E+04</totfact>
</mgrwt>
</event>
<event>
12    1  0.2769346E-001  0.2321605E+03  0.7546771E-02  0.1125604E+00
         21   -1    0    0  504  503  0.00000000000E+00  0.00000000000E+00  0.76368219900E+02  0.76368219900E+02  0.00000000000E+00 0.  1.
         21   -1    0    0  502  504 -0.00000000000E+00 -0.00000000000E+00 -0.10857232261E+04  0.10857232261E+04  0.00000000000E+00 0. -1.
          6    2    1    2  502    0 -0.83432850442E+02  0.12565020246E+03 -0.85401475108E+03  0.88500830073E+03  0.17649216241E+03 0.  0.
         24    2    3    3    0    0 -0.53445469987E+02 -0.11095809415E+01 -0.27847663817E+03  0.29489518015E+03  0.80970857945E+02 0.  0.
         -6    2    1    2    0  503  0.83432850442E+02 -0.12565020246E+03 -0.15534025517E+03  0.27708314531E+03  0.17290303823E+03 0.  0.
        -24    2    5    5    0    0  0.11956920189E+03 -0.66353889716E+02 -0.12007032797E+03  0.19905785220E+03  0.80669152346E+02 0.  0.
          2    1    4    4  501    0 -0.59936262488E+02  0.27906301985E+02 -0.16957934655E+03  0.18201173597E+03  0.00000000000E+00 0. -1.
         -1    1    4    4    0  501  0.64907925009E+01 -0.29015882927E+02 -0.10889729162E+03  0.11288344418E+03  0.00000000000E+00 0.  1.
          5    1    3    3  502    0 -0.29987380455E+02  0.12675978340E+03 -0.57553811291E+03  0.59011312058E+03  0.47000000000E+01 0. -1.
         13    1    6    6    0    0  0.52787207997E+02 -0.17364317225E+02 -0.99105364053E+02  0.11362166178E+03  0.00000000000E+00 0. -1.
        -14    1    6    6    0    0  0.66781993896E+02 -0.48989572491E+02 -0.20964963922E+02  0.85436190422E+02  0.00000000000E+00 0.  1.
         -5    1    5    5    0  503 -0.36136351451E+02 -0.59296312745E+02 -0.35269927192E+02  0.78025293114E+02  0.47000000000E+01 0.  1.
<mgrwt>
<rscale>  2 0.23147833E+03</rscale>
<asrwt>0</asrwt>
<pdfrwt beam="1">  1       21 0.11748957E-01 0.23216050E+03</pdfrwt>
<pdfrwt beam="2">  1       21 0.16703434E+00 0.23216050E+03</pdfrwt>
<totfact> 0.13271738E+04</totfact>
</mgrwt>
</event>
<event>
12    1  0.2769346E-001  0.1906325E+03  0.7546771E-02  0.1158023E+00
         21   -1    0    0  504  503  0.00000000000E+00  0.00000000000E+00  0.30433350960E+03  0.30433350960E+03  0.00000000000E+00 0.  1.
         21   -1    0    0  502  504 -0.00000000000E+00 -0.00000000000E+00 -0.12361806381E+03  0.12361806381E+03  0.00000000000E+00 0.  1.
          6    2    1    2  502    0 -0.80225777513E+02  0.78400516570E+01  0.13163726459E+03  0.23166594073E+03  0.17275154667E+03 0.  0.
         24    2    3    3    0    0  0.20249508317E+02  0.27799768200E+02  0.58814247458E+02  0.10589251280E+03  0.81063178230E+02 0.  0.
         -6    2    1    2    0  503  0.80225777513E+02 -0.78400516570E+01  0.49078181197E+02  0.19628563269E+03  0.17210967417E+03 0.  0.
        -24    2    5    5    0    0  0.11110802378E+03  0.52838411768E+01  0.76924293231E+02  0.15242852775E+03  0.70314986009E+02 0.  0.
          4    1    4    4  501    0  0.17795944989E+02 -0.25157547294E+02  0.66646287147E+01  0.31528005326E+02  0.00000000000E+00 0. -1.
         -3    1    4    4    0  501  0.24535633284E+01  0.52957315494E+02  0.52149618743E+02  0.74364507477E+02  0.00000000000E+00 0.  1.
          5    1    3    3  502    0 -0.10047528583E+03 -0.19959716543E+02  0.72823017133E+02  0.12577342792E+03  0.47000000000E+01 0. -1.
         11    1    6    6    0    0  0.16283959086E+02  0.71193267107E+01  0.51146044162E+02  0.54145821351E+02  0.00000000000E+00 0. -1.
        -12    1    6    6    0    0  0.94824064696E+02 -0.18354855339E+01  0.25778249069E+02  0.98282706402E+02  0.00000000000E+00 0.  1.
         -5    1    5    5    0  503 -0.30882246269E+02 -0.13123892834E+02 -0.27846112034E+02  0.43857104934E+02  0.47000000000E+01 0.  1.
<mgrwt>
<rscale>  2 0.19048694E+03</rscale>
<asrwt>0</asrwt>
<pdfrwt beam="1">  1       21 0.46820540E-01 0.19063247E+03</pdfrwt>
<pdfrwt beam="2">  1       21 0.19018164E-01 0.19063247E+03</pdfrwt>
<totfact> 0.11080289E+05</totfact>
</mgrwt>
</event>
<event>
12    1  0.2769346E-001  0.2190166E+03  0.7546771E-02  0.1135913E+00
         21   -1    0    0  504  503  0.00000000000E+00  0.00000000000E+00  0.11480829274E+03  0.11480829274E+03  0.00000000000E+00 0. -1.
         21   -1    0    0  502  504 -0.00000000000E+00 -0.00000000000E+00 -0.88115764378E+03  0.88115764378E+03  0.00000000000E+00 0.  1.
          6    2    1    2  502    0  0.13259621602E+03  0.40336400416E+01 -0.75200993751E+03  0.78325424723E+03  0.17427060261E+03 0.  0.
         24    2    3    3    0    0  0.12140611062E+03  0.34340346897E+02 -0.72771687687E+03  0.74256078664E+03  0.76850282124E+02 0.  0.
         -6    2    1    2    0  503 -0.13259621602E+03 -0.40336400416E+01 -0.14339413523E+02  0.21271168929E+03  0.16565813360E+03 0.  0.
        -24    2    5    5    0    0 -0.10317137326E+03 -0.62871361664E+01  0.48422318240E+02  0.14319892363E+03  0.86471674454E+02 0.  0.
          2    1    4    4  501    0  0.69488718555E+02  0.31929407138E+02 -0.59719860726E+03  0.60207503317E+03  0.00000000000E+00 0. -1.
         -1    1    4    4    0  501  0.51917392065E+02  0.24109397589E+01 -0.13051826960E+03  0.14048575348E+03  0.00000000000E+00 0.  1.
          5    1    3    3  502    0  0.11190105396E+02 -0.30306706855E+02 -0.24293060648E+02  0.40693460590E+02  0.47000000000E+01 0. -1.
         13    1    6    6    0    0 -0.97264248070E+02  0.25960404425E+02  0.27684479728E+02  0.10440645080E+03  0.00000000000E+00 0. -1.
        -14    1    6    6    0    0 -0.59071251930E+01 -0.32247540591E+02  0.20737838512E+02  0.38792472831E+02  0.00000000000E+00 0.  1.
         -5    1    5    5    0  503 -0.29424842753E+02  0.22534961248E+01 -0.62761731763E+02  0.69512765660E+02  0.47000000000E+01 0.  1.
<mgrwt>
<rscale>  2 0.21729931E+03</rscale>
<asrwt>0</asrwt>
<pdfrwt beam="1">  1       21 0.17662814E-01 0.21901660E+03</pdfrwt>
<pdfrwt beam="2">  1       21 0.13556272E+00 0.21901660E+03</pdfrwt>
<totfact> 0.11093434E+04</totfact>
</mgrwt>
</event>
<event>
12    1  0.2769346E-001  0.2117888E+03  0.7546771E-02  0.1140181E+00
         21   -1    0    0  504  503  0.00000000000E+00  0.00000000000E+00  0.28903283242E+03  0.28903283242E+03  0.00000000000E+00 0.  1.
         21   -1    0    0  502  504 -0.00000000000E+00 -0.00000000000E+00 -0.18030196951E+03  0.18030196951E+03  0.00000000000E+00 0.  1.
          6    2    1    2  502    0 -0.81715421564E+02 -0.90388052052E+02 -0.33384192585E+02  0.21428342694E+03  0.17307649370E+03 0.  0.
         24    2    3    3    0    0  0.21897768187E+02 -0.58498316159E+02 -0.28141811824E+02  0.10564539998E+03  0.80420294203E+02 0.  0.
         -6    2    1    2    0  503  0.81715421564E+02  0.90388052052E+02  0.14211505550E+03  0.25505137498E+03  0.17322558936E+03 0.  0.
        -24    2    5    5    0    0  0.91079539316E+02  0.63080185279E+01  0.10743878530E+03  0.16349990065E+03  0.82787990341E+02 0.  0.
          4    1    4    4  501    0  0.10255620389E+02 -0.53475634149E+02  0.18347315316E+02  0.57458203735E+02  0.00000000000E+00 0. -1.
         -3    1    4    4    0  501  0.11642147798E+02 -0.50226820099E+01 -0.46489127140E+02  0.48187196247E+02  0.00000000000E+00 0.  1.
          5    1    3    3  502    0 -0.10361318975E+03 -0.31889735893E+02 -0.52423807614E+01  0.10863802696E+03  0.47000000000E+01 0. -1.
         11    1    6    6    0    0 -0.14082476565E+02 -0.63895952747E+01  0.24476615289E+02  0.28952508872E+02  0.00000000000E+00 0. -1.
        -12    1    6    6    0    0  0.10516201588E+03  0.12697613803E+02  0.82962170013E+02  0.13454739178E+03  0.00000000000E+00 0.  1.
         -5    1    5    5    0  503 -0.93641177516E+01  0.84080033524E+02  0.34676270193E+02  0.91551474337E+02  0.47000000000E+01 0.  1.
<mgrwt>
<rscale>  2 0.21175836E+03</rscale>
<asrwt>0</asrwt>
<pdfrwt beam="1">  1       21 0.44466590E-01 0.21178885E+03</pdfrwt>
<pdfrwt beam="2">  1       21 0.27738764E-01 0.21178885E+03</pdfrwt>
<totfact> 0.59716907E+04</totfact>
</mgrwt>
</event>
<event>
12    1  0.2769346E-001  0.2401372E+03  0.7546771E-02  0.1119960E+00
         21   -1    0    0  504  503  0.00000000000E+00  0.00000000000E+00  0.44515253778E+03  0.44515253778E+03  0.00000000000E+00 0.  1.
         21   -1    0    0  502  504 -0.00000000000E+00 -0.00000000000E+00 -0.21589689103E+03  0.21589689103E+03  0.00000000000E+00 0.  1.
          6    2    1    2  502    0  0.15750394535E+03  0.47877205491E+02 -0.95638810069E+02  0.25704164388E+03  0.17269599038E+03 0.  0.
         24    2    3    3    0    0  0.78736948610E+02  0.79347481147E+02 -0.12351177163E+02  0.13807300171E+03  0.80100389411E+02 0.  0.
         -6    2    1    2    0  503 -0.15750394535E+03 -0.47877205491E+02  0.32489445681E+03  0.40400778493E+03  0.17483181235E+03 0.  0.
        -24    2    5    5    0    0 -0.15699948162E+03  0.42686691881E+01  0.22490253175E+03  0.29113652284E+03  0.97530853437E+02 0.  0.
          2    1    4    4  501    0  0.27692255999E+02  0.58653936786E+02  0.27126801080E+02  0.70306533691E+02  0.00000000000E+00 0. -1.
         -1    1    4    4    0  501  0.51044692611E+02  0.20693544361E+02 -0.39477978243E+02  0.67766468022E+02  0.00000000000E+00 0.  1.
          5    1    3    3  502    0  0.78766996737E+02 -0.31470275656E+02 -0.83287632906E+02  0.11896864217E+03  0.47000000000E+01 0. -1.
         13    1    6    6    0    0 -0.48740393662E+02 -0.14772087153E+01  0.90595498724E+01  0.49597213266E+02  0.00000000000E+00 0. -1.
        -14    1    6    6    0    0 -0.10825908796E+03  0.57458779033E+01  0.21584298188E+03  0.24153930957E+03  0.00000000000E+00 0.  1.
         -5    1    5    5    0  503 -0.50446372324E+00 -0.52145874680E+02  0.99991925059E+02  0.11287126209E+03  0.47000000000E+01 0.  1.
<mgrwt>
<rscale>  2 0.23974865E+03</rscale>
<asrwt>0</asrwt>
<pdfrwt beam="1">  1       21 0.68485006E-01 0.24013722E+03</pdfrwt>
<pdfrwt beam="2">  1       21 0.33214906E-01 0.24013722E+03</pdfrwt>
<totfact> 0.16507618E+04</totfact>
</mgrwt>
</event>
<event>
12    1  0.2769346E-001  0.1967929E+03  0.7546771E-02  0.1155476E+00
         21   -1    0    0  504  503  0.00000000000E+00  0.00000000000E+00  0.25382053671E+02  0.25382053671E+02  0.00000000000E+00 0. -1.
         21   -1    0    0  502  504 -0.00000000000E+00 -0.00000000000E+00 -0.16345079872E+04  0.16345079872E+04  0.00000000000E+00 0. -1.
          6    2    1    2  502    0 -0.58677928505E+02 -0.43709665971E+02 -0.10778683596E+04  0.10933549080E+04  0.16814017993E+03 0.  0.
         24    2    3    3    0    0 -0.83280769844E+02 -0.66820355331E+02 -0.62549295930E+03  0.63969755213E+03  0.81060900346E+02 0.  0.
         -6    2    1    2    0  503  0.58677928505E+02  0.43709665971E+02 -0.53125757390E+03  0.56653513281E+03  0.18268500946E+03 0.  0.
        -24    2    5    5    0    0  0.56153219094E+02  0.78370132248E+02 -0.21892659896E+03  0.25224155987E+03  0.80011793825E+02 0.  0.
          4    1    4    4  501    0 -0.47062352147E+02 -0.71597740935E+02 -0.29497138331E+03  0.30716317890E+03  0.00000000000E+00 0. -1.
         -3    1    4    4    0  501 -0.36218417697E+02  0.47773856039E+01 -0.33052157598E+03  0.33253437324E+03  0.00000000000E+00 0.  1.
          5    1    3    3  502    0  0.24602841339E+02  0.23110689360E+02 -0.45237540029E+03  0.45365735589E+03  0.47000000000E+01 0. -1.
         13    1    6    6    0    0  0.50772790033E+02  0.25007335627E+02 -0.17167065113E+03  0.18075966227E+03  0.00000000000E+00 0. -1.
        -14    1    6    6    0    0  0.53804290611E+01  0.53362796621E+02 -0.47255947831E+02  0.71481897607E+02  0.00000000000E+00 0.  1.
         -5    1    5    5    0  503  0.25247094116E+01 -0.34660466277E+02 -0.31233097494E+03  0.31429357293E+03  0.47000000000E+01 0.  1.
<mgrwt>
<rscale>  2 0.19334790E+03</rscale>
<asrwt>0</asrwt>
<pdfrwt beam="1">  1       21 0.39049304E-02 0.19679290E+03</pdfrwt>
<pdfrwt beam="2">  1       21 0.25146283E+00 0.19679290E+03</pdfrwt>
<totfact> 0.26502519E+04</totfact>
</mgrwt>
</event>
<event>
12    1  0.2769346E-001  0.1817047E+03  0.7546771E-02  0.1166477E+00
         21   -1    0    0  504  503  0.00000000000E+00  0.00000000000E+00  0.29110520168E+03  0.29110520168E+03  0.00000000000E+00 0.  1.
         21   -1    0    0  502  504 -0.00000000000E+00 -0.00000000000E+00 -0.14690620861E+03  0.14690620861E+03  0.00000000000E+00 0.  1.
          6    2    1    2  502    0  0.25841201624E+02  0.45186717484E+02 -0.33924753244E+02  0.18356171216E+03  0.17272639101E+03 0.  0.
         24    2    3    3    0    0  0.47236626835E+02  0.84061610173E+02 -0.45607260111E+02  0.13743587918E+03  0.86665711163E+02 0.  0.
         -6    2    1    2    0  503 -0.25841201624E+02 -0.45186717484E+02  0.17812374631E+03  0.25444969813E+03  0.17408897937E+03 0.  0.
        -24    2    5    5    0    0 -0.37042720347E+02 -0.35479179299E+02  0.21966871345E+02  0.97520510535E+02  0.79979817728E+02 0.  0.
          2    1    4    4  501    0  0.25380036244E+02  0.95933423603E+02 -0.19042557984E+02  0.10104448040E+03  0.00000000000E+00 0. -1.
         -1    1    4    4    0  501  0.21856590591E+02 -0.11871813429E+02 -0.26564702127E+02  0.36391398784E+02  0.00000000000E+00 0.  1.
          5    1    3    3  502    0 -0.21395425211E+02 -0.38874892689E+02  0.11682506867E+02  0.46125832981E+02  0.47000000000E+01 0. -1.
         13    1    6    6    0    0 -0.60031223631E+02 -0.39131914218E+02  0.18272418933E+02  0.73952253614E+02  0.00000000000E+00 0. -1.
        -14    1    6    6    0    0  0.22988503284E+02  0.36527349187E+01  0.36944524124E+01  0.23568256920E+02  0.00000000000E+00 0.  1.
         -5    1    5    5    0  503  0.11201518722E+02 -0.97075381851E+01  0.15615687497E+03  0.15692918759E+03  0.47000000000E+01 0.  1.
<mgrwt>
<rscale>  2 0.18137750E+03</rscale>
<asrwt>0</asrwt>
<pdfrwt beam="1">  1       21 0.44785415E-01 0.18170465E+03</pdfrwt>
<pdfrwt beam="2">  1       21 0.22600955E-01 0.18170465E+03</pdfrwt>
<totfact> 0.88170476E+04</totfact>
</mgrwt>
</event>
<event>
12    1  0.2769346E-001  0.2093179E+03  0.7546771E-02  0.1142647E+00
         21   -1    0    0  504  503  0.00000000000E+00  0.00000000000E+00  0.10880486194E+03  0.10880486194E+03  0.00000000000E+00 0. -1.
         21   -1    0    0  502  504 -0.00000000000E+00 -0.00000000000E+00 -0.40668648987E+03  0.40668648987E+03  0.00000000000E+00 0.  1.
          6    2    1    2  502    0 -0.10849508447E+03 -0.41141392479E+02 -0.18859687416E+03  0.28174946569E+03  0.17421303895E+03 0.  0.
         24    2    3    3    0    0 -0.49544407107E+02 -0.44791084282E+02 -0.19590216333E+03  0.22205055563E+03  0.80423268734E+02 0.  0.
         -6    2    1    2    0  503  0.10849508447E+03  0.41141392479E+02 -0.10928475376E+03  0.23374188612E+03  0.17096290356E+03 0.  0.
        -24    2    5    5    0    0  0.66224038552E+02  0.90530562905E+02 -0.52610902192E+02  0.14736974403E+03  0.79803059610E+02 0.  0.
          2    1    4    4  501    0 -0.17062056533E+02 -0.61263006660E+02 -0.91105944439E+02  0.11110608836E+03  0.00000000000E+00 0. -1.
         -1    1    4    4    0  501 -0.32482350574E+02  0.16471922378E+02 -0.10479621889E+03  0.11094446727E+03  0.00000000000E+00 0.  1.
          5    1    3    3  502    0 -0.58950677367E+02  0.36496918035E+01  0.73052891627E+01  0.59698910057E+02  0.47000000000E+01 0. -1.
         11    1    6    6    0    0 -0.70585551518E+01 -0.95131861123E+01  0.17344674390E+01  0.11972146346E+02  0.00000000000E+00 0. -1.
        -12    1    6    6    0    0  0.73282593704E+02  0.10004374902E+03 -0.54345369631E+02  0.13539759768E+03  0.00000000000E+00 0.  1.
         -5    1    5    5    0  503  0.42271045921E+02 -0.49389170426E+02 -0.56673851569E+02  0.86372142096E+02  0.47000000000E+01 0.  1.
<mgrwt>
<rscale>  2 0.20864031E+03</rscale>
<asrwt>0</asrwt>
<pdfrwt beam="1">  1       21 0.16739209E-01 0.20931789E+03</pdfrwt>
<pdfrwt beam="2">  1       21 0.62567154E-01 0.20931789E+03</pdfrwt>
<totfact> 0.75434525E+04</totfact>
</mgrwt>
</event>
<event>
12    1  0.2769346E-001  0.1822195E+03  0.7546771E-02  0.1165982E+00
         21   -1    0    0  504  503  0.00000000000E+00  0.00000000000E+00  0.12593218260E+03  0.12593218260E+03  0.00000000000E+00 0.  1.
         21   -1    0    0  502  504 -0.00000000000E+00 -0.00000000000E+00 -0.26179692696E+03  0.26179692696E+03  0.00000000000E+00 0.  1.
          6    2    1    2  502    0 -0.57877978104E+02  0.16127698068E+02 -0.67733893333E+02  0.19440115742E+03  0.17202897054E+03 0.  0.
         24    2    3    3    0    0 -0.71882593117E+02  0.61443095358E+02 -0.17507313368E+02  0.12515945172E+03  0.80100069746E+02 0.  0.
         -6    2    1    2    0  503  0.57877978104E+02 -0.16127698068E+02 -0.68130851025E+02  0.19332795214E+03  0.17065732104E+03 0.  0.
        -24    2    5    5    0    0 -0.31562900396E+02 -0.18906164537E+02 -0.22407652491E+02  0.92729286610E+02  0.82115515989E+02 0.  0.
          2    1    4    4  501    0 -0.39512098241E+02  0.73950486046E+02  0.46719764781E+01  0.83974446459E+02  0.00000000000E+00 0. -1.
         -1    1    4    4    0  501 -0.32370494875E+02 -0.12507390688E+02 -0.22179289846E+02  0.41185005261E+02  0.00000000000E+00 0.  1.
          5    1    3    3  502    0  0.14004615012E+02 -0.45315397290E+02 -0.50226579965E+02  0.69241705699E+02  0.47000000000E+01 0. -1.
         11    1    6    6    0    0 -0.14303792954E+02  0.32569060678E+02 -0.65544573925E+01  0.36170473013E+02  0.00000000000E+00 0. -1.
        -12    1    6    6    0    0 -0.17259107443E+02 -0.51475225215E+02 -0.15853195098E+02  0.56558813597E+02  0.00000000000E+00 0.  1.
         -5    1    5    5    0  503  0.89440878501E+02  0.27784664698E+01 -0.45723198535E+02  0.10059866553E+03  0.47000000000E+01 0.  1.
<mgrwt>
<rscale>  2 0.18189500E+03</rscale>
<asrwt>0</asrwt>
<pdfrwt beam="1">  1       21 0.19374182E-01 0.18221945E+03</pdfrwt>
<pdfrwt beam="2">  1       21 0.40276450E-01 0.18221945E+03</pdfrwt>
<totfact> 0.14598924E+05</totfact>
</mgrwt>
</event>
<event>
12    1  0.2769346E-001  0.2093497E+03  0.7546771E-02  0.1142132E+00
         21   -1    0    0  504  503  0.00000000000E+00  0.00000000000E+00  0.25292918028E+03  0.25292918028E+03  0.00000000000E+00 0. -1.
         21   -1    0    0  502  504 -0.00000000000E+00 -0.00000000000E+00 -0.23024214351E+03  0.23024214351E+03  0.00000000000E+00 0. -1.
          6    2    1    2  502    0 -0.11500173495E+03 -0.27012421800E+02 -0.10904568398E+03  0.23582375919E+03  0.17253061824E+03 0.  0.
         24    2    3    3    0    0 -0.10641048249E+03  0.40247972784E+02 -0.55981536946E+02  0.14959346290E+03  0.79379982145E+02 0.  0.
         -6    2    1    2    0  503  0.11500173495E+03  0.27012421800E+02  0.13173272075E+03  0.24734756460E+03  0.17283587018E+03 0.  0.
        -24    2    5    5    0    0  0.91442740958E+02  0.32091146552E+02  0.16378678764E+03  0.20696968889E+03  0.81355539153E+02 0.  0.
          4    1    4    4  501    0 -0.11859801149E+03  0.28894924754E+02 -0.49150300611E+02  0.13159086996E+03  0.00000000000E+00 0. -1.
         -3    1    4    4    0  501  0.12187528999E+02  0.11353048030E+02 -0.68312363355E+01  0.18002592939E+02  0.00000000000E+00 0.  1.
          5    1    3    3  502    0 -0.85912524585E+01 -0.67260394584E+02 -0.53064147033E+02  0.86230296293E+02  0.47000000000E+01 0. -1.
         11    1    6    6    0    0  0.78307217027E+02  0.40016488839E+02  0.71280790497E+02  0.11320022399E+03  0.00000000000E+00 0. -1.
        -12    1    6    6    0    0  0.13135523931E+02 -0.79253422869E+01  0.92505997144E+02  0.93769464896E+02  0.00000000000E+00 0.  1.
         -5    1    5    5    0  503  0.23558993994E+02 -0.50787247520E+01 -0.32054066886E+02  0.40377875712E+02  0.47000000000E+01 0.  1.
<mgrwt>
<rscale>  2 0.20928671E+03</rscale>
<asrwt>0</asrwt>
<pdfrwt beam="1">  1       21 0.38912182E-01 0.20934973E+03</pdfrwt>
<pdfrwt beam="2">  1       21 0.35421868E-01 0.20934973E+03</pdfrwt>
<totfact> 0.48536633E+04</totfact>
</mgrwt>
</event>
<event>
12    1  0.2769346E-001  0.1829658E+03  0.7546771E-02  0.1165563E+00
         21   -1    0    0  504  503  0.00000000000E+00  0.00000000000E+00  0.25109014309E+03  0.25109014309E+03  0.00000000000E+00 0.  1.
         21   -1    0    0  502  504 -0.00000000000E+00 -0.00000000000E+00 -0.28679419633E+03  0.28679419633E+03  0.00000000000E+00 0.  1.
          6    2    1    2  502    0  0.31137509079E+02 -0.49602262711E+02  0.17999151487E+03  0.25665820230E+03  0.17333943131E+03 0.  0.
         24    2    3    3    0    0  0.67618192235E+02 -0.22594045727E+02  0.18170692057E+03  0.21099293492E+03  0.80111814246E+02 0.  0.
         -6    2    1    2    0  503 -0.31137509079E+02  0.49602262711E+02 -0.21569556811E+03  0.28122613712E+03  0.17068577317E+03 0.  0.
        -24    2    5    5    0    0 -0.77518643266E+02  0.27970408864E+02 -0.19660217478E+03  0.22640101170E+03  0.76246436911E+02 0.  0.
          4    1    4    4  501    0  0.19351093436E+02 -0.37939505174E+02  0.13689387973E+03  0.14336598333E+03  0.00000000000E+00 0. -1.
         -3    1    4    4    0  501  0.48267098800E+02  0.15345459446E+02  0.44813040842E+02  0.67626951592E+02  0.00000000000E+00 0.  1.
          5    1    3    3  502    0 -0.36480683156E+02 -0.27008216984E+02 -0.17154057017E+01  0.45665267380E+02  0.47000000000E+01 0. -1.
         11    1    6    6    0    0  0.81687785245E+01  0.18992453033E+02 -0.15468073761E+02  0.25820602640E+02  0.00000000000E+00 0. -1.
        -12    1    6    6    0    0 -0.85687421791E+02  0.89779558303E+01 -0.18113410102E+03  0.20058040906E+03  0.00000000000E+00 0.  1.
         -5    1    5    5    0  503  0.46381134187E+02  0.21631853848E+02 -0.19093393324E+02  0.54825125426E+02  0.47000000000E+01 0.  1.
<mgrwt>
<rscale>  2 0.18233454E+03</rscale>
<asrwt>0</asrwt>
<pdfrwt beam="1">  1       21 0.38629252E-01 0.18296581E+03</pdfrwt>
<pdfrwt beam="2">  1       21 0.44122184E-01 0.18296581E+03</pdfrwt>
<totfact> 0.32047011E+04</totfact>
</mgrwt>
</event>
<event>
12    1  0.2769346E-001  0.1919003E+03  0.7546771E-02  0.1160335E+00
         21   -1    0    0  504  503  0.00000000000E+00  0.00000000000E+00  0.11545535282E+03  0.11545535282E+03  0.00000000000E+00 0. -1.
         21   -1    0    0  502  504 -0.00000000000E+00 -0.00000000000E+00 -0.29401224710E+03  0.29401224710E+03  0.00000000000E+00 0. -1.
          6    2    1    2  502    0  0.86545641831E+02 -0.10540117400E+02 -0.88964909423E+02  0.19768367324E+03  0.15350191322E+03 0.  0.
         24    2    3    3    0    0  0.16251446660E+01  0.21316407407E+02 -0.32316045953E+02  0.90643901451E+02  0.81944857827E+02 0.  0.
         -6    2    1    2    0  503 -0.86545641831E+02  0.10540117400E+02 -0.89591984852E+02  0.21178392668E+03  0.17095164713E+03 0.  0.
        -24    2    5    5    0    0 -0.50677135762E+01 -0.17668105816E+02  0.62720749914E+01  0.82763135258E+02  0.80452184240E+02 0.  0.
          2    1    4    4  501    0  0.19690007859E+02  0.43484624875E+02 -0.32654933482E+00  0.47735894718E+02  0.00000000000E+00 0. -1.
         -1    1    4    4    0  501 -0.18064863193E+02 -0.22168217468E+02 -0.31989496619E+02  0.42908006733E+02  0.00000000000E+00 0.  1.
          5    1    3    3  502    0  0.84920497165E+02 -0.31856524807E+02 -0.56648863469E+02  0.10703977179E+03  0.47000000000E+01 0. -1.
         13    1    6    6    0    0 -0.32385136450E+02  0.13226999575E+02 -0.12899372332E+02  0.37284640098E+02  0.00000000000E+00 0. -1.
        -14    1    6    6    0    0  0.27317422874E+02 -0.30895105390E+02  0.19171447324E+02  0.45478495160E+02  0.00000000000E+00 0.  1.
         -5    1    5    5    0  503 -0.81477928255E+02  0.28208223215E+02 -0.95864059844E+02  0.12902079142E+03  0.47000000000E+01 0.  1.
<mgrwt>
<rscale>  2 0.18793750E+03</rscale>
<asrwt>0</asrwt>
<pdfrwt beam="1">  1       21 0.17762362E-01 0.19190025E+03</pdfrwt>
<pdfrwt beam="2">  1       21 0.45232653E-01 0.19190025E+03</pdfrwt>
<totfact> 0.13495297E+05</totfact>
</mgrwt>
</event>
<event>
12    1  0.2769346E-001  0.1953925E+03  0.7546771E-02  0.1153700E+00
         21   -1    0    0  504  503  0.00000000000E+00  0.00000000000E+00  0.38439870560E+03  0.38439870560E+03  0.00000000000E+00 0. -1.
         21   -1    0    0  502  504 -0.00000000000E+00 -0.00000000000E+00 -0.26592521705E+03  0.26592521705E+03  0.00000000000E+00 0.  1.
          6    2    1    2  502    0  0.38869959907E+02  0.80047872126E+02 -0.19816772731E+03  0.27824880971E+03  0.17387759012E+03 0.  0.
         24    2    3    3    0    0  0.14367353041E+01  0.38669742212E+01 -0.17118214083E+03  0.18905751312E+03  0.80139879155E+02 0.  0.
         -6    2    1    2    0  503 -0.38869959907E+02 -0.80047872126E+02  0.31664121587E+03  0.37207511294E+03  0.17395313871E+03 0.  0.
        -24    2    5    5    0    0  0.44449426432E+02 -0.51108210068E+02  0.19778048667E+03  0.22398869518E+03  0.80411529113E+02 0.  0.
          2    1    4    4  501    0 -0.33431787690E+02  0.19669618015E+02 -0.59784592138E+02  0.71265529944E+02  0.00000000000E+00 0. -1.
         -1    1    4    4    0  501  0.34868522994E+02 -0.15802643794E+02 -0.11139754869E+03  0.11779198318E+03  0.00000000000E+00 0.  1.
          5    1    3    3  502    0  0.37433224603E+02  0.76180897905E+02 -0.26985586476E+02  0.89191296589E+02  0.47000000000E+01 0. -1.
         11    1    6    6    0    0  0.11127228533E+02 -0.67176187291E+02  0.12477115506E+03  0.14214181822E+03  0.00000000000E+00 0. -1.
        -12    1    6    6    0    0  0.33322197898E+02  0.16067977223E+02  0.73009331612E+02  0.81846876955E+02  0.00000000000E+00 0.  1.
         -5    1    5    5    0  503 -0.83319386339E+02 -0.28939662058E+02  0.11886072920E+03  0.14808641776E+03  0.47000000000E+01 0.  1.
<mgrwt>
<rscale>  2 0.19537569E+03</rscale>
<asrwt>0</asrwt>
<pdfrwt beam="1">  1       21 0.59138262E-01 0.19539250E+03</pdfrwt>
<pdfrwt beam="2">  1       21 0.40911572E-01 0.19539250E+03</pdfrwt>
<totfact> 0.15356041E+04</totfact>
</mgrwt>
</event>
<event>
12    1  0.2769346E-001  0.2606100E+03  0.7546771E-02  0.1107191E+00
         21   -1    0    0  504  503  0.00000000000E+00  0.00000000000E+00  0.19393232083E+04  0.19393232083E+04  0.00000000000E+00 0.  1.
         21   -1    0    0  502  504 -0.00000000000E+00 -0.00000000000E+00 -0.39607279867E+02  0.39607279867E+02  0.00000000000E+00 0. -1.
          6    2    1    2  502    0  0.18241782593E+03 -0.57541120985E+02  0.13042195499E+04  0.13300023240E+04  0.17700368291E+03 0.  0.
         24    2    3    3    0    0  0.16263724893E+03 -0.90409563917E+02  0.12287241371E+04  0.12451892759E+04  0.78157302332E+02 0.  0.
         -6    2    1    2    0  503 -0.18241782593E+03  0.57541120985E+02  0.59549637857E+03  0.64892816418E+03  0.17292941203E+03 0.  0.
        -24    2    5    5    0    0 -0.53162477569E+02  0.76249424592E+02  0.34304665673E+03  0.36465734653E+03  0.81570508864E+02 0.  0.
          2    1    4    4  501    0  0.13327053544E+03 -0.42070275675E+02  0.72903254839E+03  0.74230681011E+03  0.00000000000E+00 0. -1.
         -1    1    4    4    0  501  0.29366713490E+02 -0.48339288242E+02  0.49969158868E+03  0.50288246584E+03  0.00000000000E+00 0.  1.
          5    1    3    3  502    0  0.19780577006E+02  0.32868442932E+02  0.75495412781E+02  0.84813048044E+02  0.47000000000E+01 0. -1.
         11    1    6    6    0    0 -0.27774992473E+02  0.52164131617E+02  0.31300909227E+03  0.31853922628E+03  0.00000000000E+00 0. -1.
        -12    1    6    6    0    0 -0.25387485096E+02  0.24085292975E+02  0.30037564455E+02  0.46118120252E+02  0.00000000000E+00 0.  1.
         -5    1    5    5    0  503 -0.12925534836E+03 -0.18708303607E+02  0.25244972185E+03  0.28427081765E+03  0.47000000000E+01 0.  1.
<mgrwt>
<rscale>  2 0.25991975E+03</rscale>
<asrwt>0</asrwt>
<pdfrwt beam="1">  1       21 0.29835734E+00 0.26060995E+03</pdfrwt>
<pdfrwt beam="2">  1       21 0.60934292E-02 0.26060995E+03</pdfrwt>
<totfact> 0.62708178E+03</totfact>
</mgrwt>
</event>
<event>
12    1  0.2769346E-001  0.1903359E+03  0.7546771E-02  0.1158290E+00
         21   -1    0    0  504  503  0.00000000000E+00  0.00000000000E+00  0.16094429803E+03  0.16094429803E+03  0.00000000000E+00 0.  1.
         21   -1    0    0  502  504 -0.00000000000E+00 -0.00000000000E+00 -0.38130612083E+03  0.38130612083E+03  0.00000000000E+00 0.  1.
          6    2    1    2  502    0  0.72688260125E+02 -0.32071011132E+02 -0.28400005003E+03  0.34155767886E+03  0.17231798124E+03 0.  0.
         24    2    3    3    0    0  0.51158404416E+02 -0.71221758353E+02 -0.26879128103E+03  0.29412654616E+03  0.81067571790E+02 0.  0.
         -6    2    1    2    0  503 -0.72688260125E+02  0.32071011132E+02  0.63638227236E+02  0.20069274000E+03  0.17296132229E+03 0.  0.
        -24    2    5    5    0    0 -0.85958210573E+02 -0.29579188640E+02  0.18122748082E+02  0.12277876462E+03  0.80513655229E+02 0.  0.
          4    1    4    4  501    0  0.25763030943E+02 -0.86092591559E+02 -0.20821856565E+03  0.22678324269E+03  0.00000000000E+00 0. -1.
         -3    1    4    4    0  501  0.25395373473E+02  0.14870833206E+02 -0.60572715378E+02  0.67343303471E+02  0.00000000000E+00 0.  1.
          5    1    3    3  502    0  0.21529855709E+02  0.39150747221E+02 -0.15208769005E+02  0.47431132703E+02  0.47000000000E+01 0. -1.
         11    1    6    6    0    0 -0.34146844048E+02 -0.33620857352E+02 -0.26076660411E+02  0.54556037482E+02  0.00000000000E+00 0. -1.
        -12    1    6    6    0    0 -0.51811366525E+02  0.40416687126E+01  0.44199408493E+02  0.68222727139E+02  0.00000000000E+00 0.  1.
         -5    1    5    5    0  503  0.13269950448E+02  0.61650199771E+02  0.45515479154E+02  0.77913975379E+02  0.47000000000E+01 0.  1.
<mgrwt>
<rscale>  2 0.19018962E+03</rscale>
<asrwt>0</asrwt>
<pdfrwt beam="1">  1       21 0.24760661E-01 0.19033589E+03</pdfrwt>
<pdfrwt beam="2">  1       21 0.58662480E-01 0.19033589E+03</pdfrwt>
<totfact> 0.42003600E+04</totfact>
</mgrwt>
</event>
<event>
12    1  0.2769346E-001  0.2192988E+03  0.7546771E-02  0.1134699E+00
         21   -1    0    0  504  503  0.00000000000E+00  0.00000000000E+00  0.23046635266E+03  0.23046635266E+03  0.00000000000E+00 0.  1.
         21   -1    0    0  502  504 -0.00000000000E+00 -0.00000000000E+00 -0.22096947485E+03  0.22096947485E+03  0.00000000000E+00 0. -1.
          6    2    1    2  502    0 -0.13225586661E+03  0.19713222917E+02  0.61118435247E+02  0.22765638572E+03  0.17381525084E+03 0.  0.
         24    2    3    3    0    0 -0.13944606029E+03  0.39951150361E+02  0.90854407242E+02  0.19067543626E+03  0.84031544876E+02 0.  0.
         -6    2    1    2    0  503  0.13225586661E+03 -0.19713222917E+02 -0.51621557437E+02  0.22377944180E+03  0.17184943401E+03 0.  0.
        -24    2    5    5    0    0  0.49064241602E+02  0.50725516168E+02 -0.38280492397E+02  0.11385885023E+03  0.80734527199E+02 0.  0.
          2    1    4    4  501    0 -0.53146047387E+02  0.10209972663E+01  0.79061374177E+02  0.95269332290E+02  0.00000000000E+00 0. -1.
         -1    1    4    4    0  501 -0.86300012898E+02  0.38930153095E+02  0.11793033065E+02  0.95406103972E+02  0.00000000000E+00 0.  1.
          5    1    3    3  502    0  0.71901936797E+01 -0.20237927444E+02 -0.29735971995E+02  0.36980949459E+02  0.47000000000E+01 0. -1.
         11    1    6    6    0    0 -0.64352319064E+01 -0.14849112041E+02 -0.20520147310E+02  0.26133977572E+02  0.00000000000E+00 0. -1.
        -12    1    6    6    0    0  0.55499473508E+02  0.65574628210E+02 -0.17760345087E+02  0.87724872654E+02  0.00000000000E+00 0.  1.
         -5    1    5    5    0  503  0.83191625004E+02 -0.70438739085E+02 -0.13341065040E+02  0.10992059157E+03  0.47000000000E+01 0.  1.
<mgrwt>
<rscale>  2 0.21890907E+03</rscale>
<asrwt>0</asrwt>
<pdfrwt beam="1">  1       21 0.35456362E-01 0.21929881E+03</pdfrwt>
<pdfrwt beam="2">  1       21 0.33995304E-01 0.21929881E+03</pdfrwt>
<totfact> 0.63183904E+04</totfact>
</mgrwt>
</event>
<event>
12    1  0.2769346E-001  0.2290603E+03  0.7546771E-02  0.1128055E+00
         21   -1    0    0  504  503  0.00000000000E+00  0.00000000000E+00  0.37870901691E+03  0.37870901691E+03  0.00000000000E+00 0. -1.
         21   -1    0    0  502  504 -0.00000000000E+00 -0.00000000000E+00 -0.16813477893E+03  0.16813477893E+03  0.00000000000E+00 0.  1.
          6    2    1    2  502    0  0.79601884731E+02  0.12843892532E+03  0.22558659461E+03  0.32149325963E+03  0.17214989611E+03 0.  0.
         24    2    3    3    0    0  0.94632361015E+02  0.95632787760E+02  0.23604945244E+03  0.28362877399E+03  0.81394247889E+02 0.  0.
         -6    2    1    2    0  503 -0.79601884731E+02 -0.12843892532E+03 -0.15012356634E+02  0.22535053621E+03  0.16650668373E+03 0.  0.
        -24    2    5    5    0    0 -0.24082329255E+02 -0.12358101369E+03  0.31774634056E+02  0.15243186340E+03  0.79834955279E+02 0.  0.
          2    1    4    4  501    0  0.75156863315E+02  0.10028197373E+03  0.23127307469E+03  0.26304422334E+03  0.00000000000E+00 0. -1.
         -1    1    4    4    0  501  0.19475497700E+02 -0.46491859730E+01  0.47763777594E+01  0.20584550648E+02  0.00000000000E+00 0.  1.
          5    1    3    3  502    0 -0.15030476284E+02  0.32806137557E+02 -0.10462857833E+02  0.37864485640E+02  0.47000000000E+01 0. -1.
         11    1    6    6    0    0 -0.31280885703E+02 -0.12867092114E+03  0.42010214487E+02  0.13892284865E+03  0.00000000000E+00 0. -1.
        -12    1    6    6    0    0  0.71985564478E+01  0.50899074473E+01 -0.10235580432E+02  0.13509014750E+02  0.00000000000E+00 0.  1.
         -5    1    5    5    0  503 -0.55519555476E+02 -0.48579116279E+01 -0.46786990690E+02  0.72918672804E+02  0.47000000000E+01 0.  1.
<mgrwt>
<rscale>  2 0.22800035E+03</rscale>
<asrwt>0</asrwt>
<pdfrwt beam="1">  1       21 0.58262925E-01 0.22906026E+03</pdfrwt>
<pdfrwt beam="2">  1       21 0.25866889E-01 0.22906026E+03</pdfrwt>
<totfact> 0.38456982E+04</totfact>
</mgrwt>
</event>
<event>
12    1  0.2769346E-001  0.2505306E+03  0.7546771E-02  0.1113163E+00
         21   -1    0    0  504  503  0.00000000000E+00  0.00000000000E+00  0.21111418776E+03  0.21111418776E+03  0.00000000000E+00 0. -1.
         21   -1    0    0  502  504 -0.00000000000E+00 -0.00000000000E+00 -0.78828555215E+03  0.78828555215E+03  0.00000000000E+00 0.  1.
          6    2    1    2  502    0  0.13788512271E+03 -0.11444985719E+03 -0.68379761449E+03  0.72824774187E+03  0.17508431991E+03 0.  0.
         24    2    3    3    0    0  0.14368447970E+03 -0.87030658843E+02 -0.67259242545E+03  0.69770119966E+03  0.78656391619E+02 0.  0.
         -6    2    1    2    0  503 -0.13788512271E+03  0.11444985719E+03  0.10662625011E+03  0.27115199804E+03  0.17332966265E+03 0.  0.
        -24    2    5    5    0    0 -0.13789226610E+03  0.37539041517E+02  0.10656731273E+03  0.19409768543E+03  0.76771496380E+02 0.  0.
          2    1    4    4  501    0  0.98667090146E+02 -0.62085945152E+02 -0.30492816041E+03  0.32645220519E+03  0.00000000000E+00 0. -1.
         -1    1    4    4    0  501  0.45017389557E+02 -0.24944713691E+02 -0.36766426504E+03  0.37124899447E+03  0.00000000000E+00 0.  1.
          5    1    3    3  502    0 -0.57993569974E+01 -0.27419198347E+02 -0.11205189039E+02  0.30546542210E+02  0.47000000000E+01 0. -1.
         13    1    6    6    0    0  0.58882511993E+01 -0.92904228208E+01  0.66307107402E+01  0.12843277747E+02  0.00000000000E+00 0. -1.
        -14    1    6    6    0    0 -0.14378051730E+03  0.46829464338E+02  0.99936601990E+02  0.18125440768E+03  0.00000000000E+00 0.  1.
         -5    1    5    5    0  503  0.71433986764E-02  0.76910815672E+02  0.58937381358E-01  0.77054312612E+02  0.47000000000E+01 0.  1.
<mgrwt>
<rscale>  2 0.25022429E+03</rscale>
<asrwt>0</asrwt>
<pdfrwt beam="1">  1       21 0.32479105E-01 0.25053063E+03</pdfrwt>
<pdfrwt beam="2">  1       21 0.12127470E+00 0.25053063E+03</pdfrwt>
<totfact> 0.44961174E+03</totfact>
</mgrwt>
</event>
<event>
12    1  0.2769346E-001  0.2975715E+03  0.7546771E-02  0.1086695E+00
         21   -1    0    0  504  503  0.00000000000E+00  0.00000000000E+00  0.17508980930E+03  0.17508980930E+03  0.00000000000E+00 0.  1.
         21   -1    0    0  502  504 -0.00000000000E+00 -0.00000000000E+00 -0.10071894657E+04  0.10071894657E+04  0.00000000000E+00 0. -1.
          6    2    1    2  502    0  0.59010833138E+01 -0.24232005731E+03 -0.83381300772E+03  0.88470279440E+03  0.16941390032E+03 0.  0.
         24    2    3    3    0    0 -0.51724804996E+02 -0.11037281638E+03 -0.34412840866E+03  0.37426777019E+03  0.82428078375E+02 0.  0.
         -6    2    1    2    0  503 -0.59010833138E+01  0.24232005731E+03  0.17133513060E+01  0.29757648061E+03  0.17261226284E+03 0.  0.
        -24    2    5    5    0    0  0.45339314409E+02  0.85643812848E+02  0.33832626745E+02  0.12956826120E+03  0.79074468492E+02 0.  0.
          4    1    4    4  501    0 -0.58463831335E+01 -0.81807185994E+01 -0.14848527533E+03  0.14882533837E+03  0.00000000000E+00 0. -1.
         -3    1    4    4    0  501 -0.45878421862E+02 -0.10219209778E+03 -0.19564313334E+03  0.22544243182E+03  0.00000000000E+00 0.  1.
          5    1    3    3  502    0  0.57625888309E+02 -0.13194724093E+03 -0.48968459906E+03  0.51043502422E+03  0.47000000000E+01 0. -1.
         11    1    6    6    0    0  0.41582811747E+02  0.30881268306E+02 -0.17242485545E+02  0.54590166447E+02  0.00000000000E+00 0. -1.
        -12    1    6    6    0    0  0.37565026615E+01  0.54762544542E+02  0.51075112291E+02  0.74978094751E+02  0.00000000000E+00 0.  1.
         -5    1    5    5    0  503 -0.51240397722E+02  0.15667624446E+03 -0.32119275439E+02  0.16800821942E+03  0.47000000000E+01 0.  1.
<mgrwt>
<rscale>  2 0.29710952E+03</rscale>
<asrwt>0</asrwt>
<pdfrwt beam="1">  1       21 0.26936893E-01 0.29757155E+03</pdfrwt>
<pdfrwt beam="2">  1       21 0.15495223E+00 0.29757155E+03</pdfrwt>
<totfact> 0.33354985E+03</totfact>
</mgrwt>
</event>
<event>
12    1  0.2769346E-001  0.1974911E+03  0.7546771E-02  0.1151942E+00
         21   -1    0    0  504  503  0.00000000000E+00  0.00000000000E+00  0.11981568287E+03  0.11981568287E+03  0.00000000000E+00 0. -1.
         21   -1    0    0  502  504 -0.00000000000E+00 -0.00000000000E+00 -0.33060590524E+03  0.33060590524E+03  0.00000000000E+00 0.  1.
          6    2    1    2  502    0  0.73447070862E+02  0.59220960053E+02 -0.76136289084E+02  0.21165881992E+03  0.17349676426E+03 0.  0.
         24    2    3    3    0    0 -0.15343541171E+02  0.47476596403E+00 -0.64785793349E+02  0.10448693994E+03  0.80527460785E+02 0.  0.
         -6    2    1    2    0  503 -0.73447070862E+02 -0.59220960053E+02 -0.13465393329E+03  0.23876276819E+03  0.17313111620E+03 0.  0.
        -24    2    5    5    0    0  0.52733685088E+01 -0.57768702802E+02 -0.15233178013E+02  0.95645950813E+02  0.74505481380E+02 0.  0.
          4    1    4    4  501    0 -0.16602710674E+02  0.39306577440E+02 -0.28394858878E+02  0.51253536878E+02  0.00000000000E+00 0. -1.
         -3    1    4    4    0  501  0.12591695024E+01 -0.38831811476E+02 -0.36390934471E+02  0.53233403066E+02  0.00000000000E+00 0.  1.
          5    1    3    3  502    0  0.88790612033E+02  0.58746194089E+02 -0.11350495734E+02  0.10717187998E+03  0.47000000000E+01 0. -1.
         11    1    6    6    0    0  0.12891780899E+02  0.13908790662E+02  0.69978029006E+01  0.20214393829E+02  0.00000000000E+00 0. -1.
        -12    1    6    6    0    0 -0.76184123906E+01 -0.71677493465E+02 -0.22230980913E+02  0.75431556984E+02  0.00000000000E+00 0.  1.
         -5    1    5    5    0  503 -0.78720439370E+02 -0.14522572505E+01 -0.11942075527E+03  0.14311681738E+03  0.47000000000E+01 0.  1.
<mgrwt>
<rscale>  2 0.19741073E+03</rscale>
<asrwt>0</asrwt>
<pdfrwt beam="1">  1       21 0.18433182E-01 0.19749107E+03</pdfrwt>
<pdfrwt beam="2">  1       21 0.50862447E-01 0.19749107E+03</pdfrwt>
<totfact> 0.98590445E+04</totfact>
</mgrwt>
</event>
<event>
12    1  0.2769346E-001  0.1734662E+03  0.7546771E-02  0.1174771E+00
         21   -1    0    0  504  503  0.00000000000E+00  0.00000000000E+00  0.49662008376E+02  0.49662008376E+02  0.00000000000E+00 0. -1.
         21   -1    0    0  502  504 -0.00000000000E+00 -0.00000000000E+00 -0.69186213738E+03  0.69186213738E+03  0.00000000000E+00 0. -1.
          6    2    1    2  502    0  0.13507906228E+02 -0.64274637325E+01 -0.18388593977E+03  0.25148086521E+03  0.17089415117E+03 0.  0.
         24    2    3    3    0    0  0.36968725502E+02 -0.25262380944E+02 -0.19668414187E+03  0.21844984760E+03  0.83849923669E+02 0.  0.
         -6    2    1    2    0  503 -0.13507906228E+02  0.64274637325E+01 -0.45831418923E+03  0.49004328054E+03  0.17281997839E+03 0.  0.
        -24    2    5    5    0    0  0.36845688993E+02 -0.13706805719E+02 -0.39991133489E+03  0.41020684304E+03  0.82432378232E+02 0.  0.
          4    1    4    4  501    0 -0.11480290490E+02 -0.30850486609E+02 -0.29175597935E+02  0.43985964905E+02  0.00000000000E+00 0. -1.
         -3    1    4    4    0  501  0.48449015993E+02  0.55881056656E+01 -0.16750854393E+03  0.17446388270E+03  0.00000000000E+00 0.  1.
          5    1    3    3  502    0 -0.23460819274E+02  0.18834917211E+02  0.12798202098E+02  0.33031017610E+02  0.47000000000E+01 0. -1.
         13    1    6    6    0    0 -0.14650511012E+00  0.32295297381E+02 -0.14207091466E+03  0.14569540998E+03  0.00000000000E+00 0. -1.
        -14    1    6    6    0    0  0.36992194104E+02 -0.46002103100E+02 -0.25784042022E+03  0.26451143305E+03  0.00000000000E+00 0.  1.
         -5    1    5    5    0  503 -0.50353595221E+02  0.20134269451E+02 -0.58402854345E+02  0.79836437506E+02  0.47000000000E+01 0.  1.
<mgrwt>
<rscale>  2 0.17298455E+03</rscale>
<asrwt>0</asrwt>
<pdfrwt beam="1">  1       21 0.76403090E-02 0.17346619E+03</pdfrwt>
<pdfrwt beam="2">  1       21 0.10644033E+00 0.17346619E+03</pdfrwt>
<totfact> 0.92681111E+04</totfact>
</mgrwt>
</event>
<event>
12    1  0.2769346E-001  0.2144500E+03  0.7546771E-02  0.1138165E+00
         21   -1    0    0  504  503  0.00000000000E+00  0.00000000000E+00  0.68990487409E+03  0.68990487409E+03  0.00000000000E+00 0. -1.
         21   -1    0    0  502  504 -0.00000000000E+00 -0.00000000000E+00 -0.18094970155E+03  0.18094970155E+03  0.00000000000E+00 0.  1.
          6    2    1    2  502    0 -0.85472255718E+02 -0.92524852235E+02 -0.91672794469E+02  0.23322247378E+03  0.17355825031E+03 0.  0.
         24    2    3    3    0    0 -0.79807703974E+02 -0.13140570648E+02 -0.99834456955E+02  0.15308101107E+03  0.83216181993E+02 0.  0.
         -6    2    1    2    0  503  0.85472255718E+02  0.92524852235E+02  0.60062796701E+03  0.63763210186E+03  0.17307335956E+03 0.  0.
        -24    2    5    5    0    0  0.59575949495E+02  0.63677784233E+02  0.18127989996E+03  0.21646982512E+03  0.79953918576E+02 0.  0.
          2    1    4    4  501    0  0.11129290433E+02  0.16628169992E+02 -0.21983035655E+02  0.29725595022E+02  0.00000000000E+00 0. -1.
         -1    1    4    4    0  501 -0.90936994407E+02 -0.29768740640E+02 -0.77851421300E+02  0.12335541605E+03  0.00000000000E+00 0.  1.
          5    1    3    3  502    0 -0.56645517438E+01 -0.79384281588E+02  0.81616624857E+01  0.80141462703E+02  0.47000000000E+01 0. -1.
         11    1    6    6    0    0  0.50859600611E+02  0.73764964229E+02  0.18226996660E+03  0.20310172241E+03  0.00000000000E+00 0. -1.
        -12    1    6    6    0    0  0.87163488836E+01 -0.10087179996E+02 -0.99006663945E+00  0.13368102711E+02  0.00000000000E+00 0.  1.
         -5    1    5    5    0  503  0.25896306223E+02  0.28847068002E+02  0.41934806705E+03  0.42116227674E+03  0.47000000000E+01 0.  1.
<mgrwt>
<rscale>  2 0.21435192E+03</rscale>
<asrwt>0</asrwt>
<pdfrwt beam="1">  1       21 0.10613921E+00 0.21445004E+03</pdfrwt>
<pdfrwt beam="2">  1       21 0.27838416E-01 0.21445004E+03</pdfrwt>
<totfact> 0.86360543E+03</totfact>
</mgrwt>
</event>
<event>
12    1  0.2769346E-001  0.2236796E+03  0.7546771E-02  0.1133323E+00
         21   -1    0    0  504  503  0.00000000000E+00  0.00000000000E+00  0.24021683982E+03  0.24021683982E+03  0.00000000000E+00 0. -1.
         21   -1    0    0  502  504 -0.00000000000E+00 -0.00000000000E+00 -0.28683796647E+03  0.28683796647E+03  0.00000000000E+00 0. -1.
          6    2    1    2  502    0 -0.10696051523E+03 -0.89884682691E+02 -0.17058212525E+03  0.28130203134E+03  0.17467902959E+03 0.  0.
         24    2    3    3    0    0 -0.17359064514E+02  0.69897253432E+01 -0.31346688069E+02  0.89412302926E+02  0.81619554523E+02 0.  0.
         -6    2    1    2    0  503  0.10696051523E+03  0.89884682691E+02  0.12396099860E+03  0.24575277495E+03  0.15971314667E+03 0.  0.
        -24    2    5    5    0    0  0.10845336466E+03  0.44960173284E+02  0.13725163998E+03  0.19864469398E+03  0.82693121116E+02 0.  0.
          2    1    4    4  501    0  0.74027848300E+01  0.12621743696E+02 -0.53652853847E+02  0.55612393971E+02  0.00000000000E+00 0. -1.
         -1    1    4    4    0  501 -0.24761849344E+02 -0.56320183525E+01  0.22306165779E+02  0.33799908955E+02  0.00000000000E+00 0.  1.
          5    1    3    3  502    0 -0.89601450721E+02 -0.96874408034E+02 -0.13923543718E+03  0.19188972841E+03  0.47000000000E+01 0. -1.
         13    1    6    6    0    0  0.35397108454E+02  0.53848242754E+02  0.91751914369E+02  0.11212048129E+03  0.00000000000E+00 0. -1.
        -14    1    6    6    0    0  0.73056256210E+02 -0.88880694699E+01  0.45499725608E+02  0.86524212685E+02  0.00000000000E+00 0.  1.
         -5    1    5    5    0  503 -0.14928494297E+01  0.44924509407E+02 -0.13290641378E+02  0.47108080975E+02  0.47000000000E+01 0.  1.
<mgrwt>
<rscale>  2 0.22075231E+03</rscale>
<asrwt>0</asrwt>
<pdfrwt beam="1">  1       21 0.36956437E-01 0.22367962E+03</pdfrwt>
<pdfrwt beam="2">  1       21 0.44128918E-01 0.22367962E+03</pdfrwt>
<totfact> 0.34279604E+04</totfact>
</mgrwt>
</event>
<event>
12    1  0.2769346E-001  0.2424029E+03  0.7546771E-02  0.1118268E+00
         21   -1    0    0  504  503  0.00000000000E+00  0.00000000000E+00  0.99634713043E+02  0.99634713043E+02  0.00000000000E+00 0. -1.
         21   -1    0    0  502  504 -0.00000000000E+00 -0.00000000000E+00 -0.77134857798E+03  0.77134857798E+03  0.00000000000E+00 0.  1.
          6    2    1    2  502    0  0.91029651113E+02 -0.14318367802E+03 -0.54793461680E+03  0.59915902021E+03  0.17312199217E+03 0.  0.
         24    2    3    3    0    0  0.10212434703E+03 -0.11628529850E+03 -0.54188394692E+03  0.56907055557E+03  0.79066000143E+02 0.  0.
         -6    2    1    2    0  503 -0.91029651113E+02  0.14318367802E+03 -0.12377924813E+03  0.27182427081E+03  0.17256641881E+03 0.  0.
        -24    2    5    5    0    0 -0.97998600303E+02  0.38335776146E+02 -0.38957118505E+02  0.13670013361E+03  0.78076321967E+02 0.  0.
          4    1    4    4  501    0  0.77555522614E+02 -0.59823661085E+02 -0.21258840667E+03  0.23406742653E+03  0.00000000000E+00 0. -1.
         -3    1    4    4    0  501  0.24568824418E+02 -0.56461637417E+02 -0.32929554025E+03  0.33500312903E+03  0.00000000000E+00 0.  1.
          5    1    3    3  502    0 -0.11094695920E+02 -0.26898379521E+02 -0.60506698822E+01  0.30088464641E+02  0.47000000000E+01 0. -1.
         11    1    6    6    0    0 -0.76663801785E+02  0.62204309453E+01  0.63863177821E+01  0.77180420575E+02  0.00000000000E+00 0. -1.
        -12    1    6    6    0    0 -0.21334798518E+02  0.32115345200E+02 -0.45343436287E+02  0.59519713032E+02  0.00000000000E+00 0.  1.
         -5    1    5    5    0  503  0.69689491901E+01  0.10484790188E+03 -0.84822129626E+02  0.13512413720E+03  0.47000000000E+01 0.  1.
<mgrwt>
<rscale>  2 0.24230376E+03</rscale>
<asrwt>0</asrwt>
<pdfrwt beam="1">  1       21 0.15328417E-01 0.24240294E+03</pdfrwt>
<pdfrwt beam="2">  1       21 0.11866901E+00 0.24240294E+03</pdfrwt>
<totfact> 0.19881909E+04</totfact>
</mgrwt>
</event>
<event>
12    1  0.2769346E-001  0.1729736E+03  0.7546771E-02  0.1175410E+00
         21   -1    0    0  504  503  0.00000000000E+00  0.00000000000E+00  0.96242606400E+02  0.96242606400E+02  0.00000000000E+00 0.  1.
         21   -1    0    0  502  504 -0.00000000000E+00 -0.00000000000E+00 -0.30723736639E+03  0.30723736639E+03  0.00000000000E+00 0.  1.
          6    2    1    2  502    0  0.87178906624E+00  0.18829929431E+02 -0.11611719530E+03  0.20833404611E+03  0.17194343682E+03 0.  0.
         24    2    3    3    0    0  0.47030957096E+02  0.55503098185E+02 -0.99660756883E+02  0.14694598159E+03  0.79801943645E+02 0.  0.
         -6    2    1    2    0  503 -0.87178906624E+00 -0.18829929431E+02 -0.94877564690E+02  0.19514592669E+03  0.16948408233E+03 0.  0.
        -24    2    5    5    0    0 -0.17593368601E+01 -0.71633402141E+02 -0.92921787896E+02  0.14209020565E+03  0.80129447199E+02 0.  0.
          4    1    4    4  501    0 -0.17786217658E+02  0.21240124555E+02 -0.53672011628E+02  0.60400142896E+02  0.00000000000E+00 0. -1.
         -3    1    4    4    0  501  0.64817174754E+02  0.34262973630E+02 -0.45988745255E+02  0.86545838694E+02  0.00000000000E+00 0.  1.
          5    1    3    3  502    0 -0.46159168030E+02 -0.36673168754E+02 -0.16456438422E+02  0.61388064518E+02  0.47000000000E+01 0. -1.
         11    1    6    6    0    0 -0.40066987192E+02 -0.37284349259E+02 -0.58920336199E+02  0.80418232884E+02  0.00000000000E+00 0. -1.
        -12    1    6    6    0    0  0.38307650332E+02 -0.34349052882E+02 -0.34001451696E+02  0.61671972770E+02  0.00000000000E+00 0.  1.
         -5    1    5    5    0  503  0.88754779388E+00  0.52803472710E+02 -0.19557767940E+01  0.53055721032E+02  0.47000000000E+01 0.  1.
<mgrwt>
<rscale>  2 0.17235923E+03</rscale>
<asrwt>0</asrwt>
<pdfrwt beam="1">  1       21 0.14806555E-01 0.17297362E+03</pdfrwt>
<pdfrwt beam="2">  1       21 0.47267287E-01 0.17297362E+03</pdfrwt>
<totfact> 0.17304905E+05</totfact>
</mgrwt>
</event>
<event>
12    1  0.2769346E-001  0.2315132E+03  0.7546771E-02  0.1125803E+00
         21   -1    0    0  504  503  0.00000000000E+00  0.00000000000E+00  0.27968314553E+03  0.27968314553E+03  0.00000000000E+00 0.  1.
         21   -1    0    0  502  504 -0.00000000000E+00 -0.00000000000E+00 -0.91378287659E+03  0.91378287659E+03  0.00000000000E+00 0. -1.
          6    2    1    2  502    0 -0.14264953214E+03  0.58755008530E+02 -0.84810234210E+03  0.87913363905E+03  0.17261903889E+03 0.  0.
         24    2    3    3    0    0 -0.98566416125E+02 -0.28951110774E+02 -0.40023533928E+03  0.42061141855E+03  0.78562926373E+02 0.  0.
         -6    2    1    2    0  503  0.14264953214E+03 -0.58755008530E+02  0.21400261104E+03  0.31433238307E+03  0.17089964735E+03 0.  0.
        -24    2    5    5    0    0  0.20179863960E+02 -0.66675494411E+02  0.88577462332E+02  0.13879004729E+03  0.81017664301E+02 0.  0.
          2    1    4    4  501    0 -0.83587170213E+02  0.71824310095E+01 -0.20511545039E+03  0.22160945451E+03  0.00000000000E+00 0. -1.
         -1    1    4    4    0  501 -0.14979245912E+02 -0.36133541784E+02 -0.19511988889E+03  0.19900196404E+03  0.00000000000E+00 0.  1.
          5    1    3    3  502    0 -0.44083116018E+02  0.87706119305E+02 -0.44786700282E+03  0.45852222051E+03  0.47000000000E+01 0. -1.
         13    1    6    6    0    0  0.48170982183E+00  0.18698113896E+02  0.21132007107E+02  0.28220794319E+02  0.00000000000E+00 0. -1.
        -14    1    6    6    0    0  0.19698154138E+02 -0.85373608307E+02  0.67445455225E+02  0.11056925297E+03  0.00000000000E+00 0.  1.
         -5    1    5    5    0  503  0.12246966818E+03  0.79204858806E+01  0.12542514871E+03  0.17554233578E+03  0.47000000000E+01 0.  1.
<mgrwt>
<rscale>  2 0.23119277E+03</rscale>
<asrwt>0</asrwt>
<pdfrwt beam="1">  1       21 0.43028176E-01 0.23151322E+03</pdfrwt>
<pdfrwt beam="2">  1       21 0.14058198E+00 0.23151322E+03</pdfrwt>
<totfact> 0.17755561E+03</totfact>
</mgrwt>
</event>
<event>
12    1  0.2769346E-001  0.2367668E+03  0.7546771E-02  0.1122299E+00
         21   -1    0    0  504  503  0.00000000000E+00  0.00000000000E+00  0.95386308010E+02  0.95386308010E+02  0.00000000000E+00 0.  1.
         21   -1    0    0  502  504 -0.00000000000E+00 -0.00000000000E+00 -0.80611507639E+03  0.80611507639E+03  0.00000000000E+00 0. -1.
          6    2    1    2  502    0 -0.16065616336E+03 -0.16846440937E+02 -0.59365282233E+03  0.63912612809E+03  0.17310207612E+03 0.  0.
         24    2    3    3    0    0 -0.14004088545E+03  0.24608308433E+02 -0.30424650239E+03  0.34600227382E+03  0.83274370767E+02 0.  0.
         -6    2    1    2    0  503  0.16065616336E+03  0.16846440937E+02 -0.11707594605E+03  0.26237525631E+03  0.17041065864E+03 0.  0.
        -24    2    5    5    0    0  0.73957908801E+02  0.63730293809E+02 -0.29561909023E+02  0.13048333206E+03  0.81367504918E+02 0.  0.
          2    1    4    4  501    0 -0.11172857411E+03 -0.10045222199E+02 -0.16327003685E+03  0.19809413342E+03  0.00000000000E+00 0. -1.
         -1    1    4    4    0  501 -0.28312311336E+02  0.34653530632E+02 -0.14097646555E+03  0.14790814040E+03  0.00000000000E+00 0.  1.
          5    1    3    3  502    0 -0.20615277913E+02 -0.41454749371E+02 -0.28940631993E+03  0.29312385428E+03  0.47000000000E+01 0. -1.
         13    1    6    6    0    0  0.27681813612E+02  0.61243552981E+02 -0.45852757743E+02  0.81360500117E+02  0.00000000000E+00 0. -1.
        -14    1    6    6    0    0  0.46276095189E+02  0.24867408280E+01  0.16290848720E+02  0.49122831941E+02  0.00000000000E+00 0.  1.
         -5    1    5    5    0  503  0.86698254562E+02 -0.46883852872E+02 -0.87514037031E+02  0.13189192425E+03  0.47000000000E+01 0.  1.
<mgrwt>
<rscale>  2 0.23627517E+03</rscale>
<asrwt>0</asrwt>
<pdfrwt beam="1">  1       21 0.14674817E-01 0.23676684E+03</pdfrwt>
<pdfrwt beam="2">  1       21 0.12401770E+00 0.23676684E+03</pdfrwt>
<totfact> 0.19339431E+04</totfact>
</mgrwt>
</event>
<event>
12    1  0.2769346E-001  0.2254716E+03  0.7546771E-02  0.1129921E+00
         21   -1    0    0  504  503  0.00000000000E+00  0.00000000000E+00  0.47700449783E+02  0.47700449783E+02  0.00000000000E+00 0. -1.
         21   -1    0    0  502  504 -0.00000000000E+00 -0.00000000000E+00 -0.11934222785E+04  0.11934222785E+04  0.00000000000E+00 0. -1.
          6    2    1    2  502    0 -0.13642697360E+03  0.37741605137E+02 -0.77659016971E+03  0.80857723318E+03  0.17512310651E+03 0.  0.
         24    2    3    3    0    0 -0.10908309154E+03  0.90147462202E+02 -0.50713766209E+03  0.53267724114E+03  0.80813050428E+02 0.  0.
         -6    2    1    2    0  503  0.13642697360E+03 -0.37741605137E+02 -0.36913165899E+03  0.43254549509E+03  0.17550121302E+03 0.  0.
        -24    2    5    5    0    0  0.72743118274E+02 -0.58954258700E+02 -0.11275394036E+03  0.16748468187E+03  0.81058631353E+02 0.  0.
          4    1    4    4  501    0 -0.95543039015E+02  0.57451930753E+02 -0.46232115408E+03  0.47557338672E+03  0.00000000000E+00 0. -1.
         -3    1    4    4    0  501 -0.13540052526E+02  0.32695531449E+02 -0.44816508012E+02  0.57103854419E+02  0.00000000000E+00 0.  1.
          5    1    3    3  502    0 -0.27343882058E+02 -0.52405857065E+02 -0.26945250762E+03  0.27589999203E+03  0.47000000000E+01 0. -1.
         11    1    6    6    0    0  0.39254272534E+01  0.11637595536E+02  0.55590258379E+01  0.13481297313E+02  0.00000000000E+00 0. -1.
        -12    1    6    6    0    0  0.68817691021E+02 -0.70591854236E+02 -0.11831296620E+03  0.15400338455E+03  0.00000000000E+00 0.  1.
         -5    1    5    5    0  503  0.63683855324E+02  0.21212653563E+02 -0.25637771862E+03  0.26506081322E+03  0.47000000000E+01 0.  1.
<mgrwt>
<rscale>  2 0.22539798E+03</rscale>
<asrwt>0</asrwt>
<pdfrwt beam="1">  1       21 0.73385308E-02 0.22547156E+03</pdfrwt>
<pdfrwt beam="2">  1       21 0.18360342E+00 0.22547156E+03</pdfrwt>
<totfact> 0.23452227E+04</totfact>
</mgrwt>
</event>
<event>
12    1  0.2769346E-001  0.1891839E+03  0.7546771E-02  0.1159326E+00
         21   -1    0    0  504  503  0.00000000000E+00  0.00000000000E+00  0.35435718848E+03  0.35435718848E+03  0.00000000000E+00 0. -1.
         21   -1    0    0  502  504 -0.00000000000E+00 -0.00000000000E+00 -0.24586970309E+03  0.24586970309E+03  0.00000000000E+00 0. -1.
          6    2    1    2  502    0  0.60878167146E+01  0.75649369381E+02 -0.17639178444E+03  0.25825212837E+03  0.17268529640E+03 0.  0.
         24    2    3    3    0    0  0.61914902102E+02  0.67015046430E+02 -0.78205312496E+02  0.14487713877E+03  0.80924921278E+02 0.  0.
         -6    2    1    2    0  503 -0.60878167146E+01 -0.75649369381E+02  0.28487926983E+03  0.34197476319E+03  0.17329354195E+03 0.  0.
        -24    2    5    5    0    0 -0.18600016749E+02 -0.10811256502E+02  0.48691900239E+02  0.96684935464E+02  0.80710790522E+02 0.  0.
          4    1    4    4  501    0  0.22434781546E+02  0.88104603613E+01 -0.70042997456E+02  0.74074051647E+02  0.00000000000E+00 0. -1.
         -3    1    4    4    0  501  0.39480120557E+02  0.58204586069E+02 -0.81623150395E+01  0.70803087118E+02  0.00000000000E+00 0.  1.
          5    1    3    3  502    0 -0.55827085388E+02  0.86343229510E+01 -0.98186471944E+02  0.11337498961E+03  0.47000000000E+01 0. -1.
         13    1    6    6    0    0  0.93688653651E+01 -0.34142907525E+02  0.48764699329E+02  0.60262008538E+02  0.00000000000E+00 0. -1.
        -14    1    6    6    0    0 -0.27968882114E+02  0.23331651022E+02 -0.72799089491E-01  0.36422926926E+02  0.00000000000E+00 0.  1.
         -5    1    5    5    0  503  0.12512200035E+02 -0.64838112879E+02  0.23618736959E+03  0.24528982773E+03  0.47000000000E+01 0.  1.
<mgrwt>
<rscale>  2 0.18904448E+03</rscale>
<asrwt>0</asrwt>
<pdfrwt beam="1">  1       21 0.54516490E-01 0.18918388E+03</pdfrwt>
<pdfrwt beam="2">  1       21 0.37826108E-01 0.18918388E+03</pdfrwt>
<totfact> 0.21463988E+04</totfact>
</mgrwt>
</event>
<event>
12    1  0.2769346E-001  0.2413000E+03  0.7546771E-02  0.1119400E+00
         21   -1    0    0  504  503  0.00000000000E+00  0.00000000000E+00  0.10963859205E+03  0.10963859205E+03  0.00000000000E+00 0. -1.
         21   -1    0    0  502  504 -0.00000000000E+00 -0.00000000000E+00 -0.58552622672E+03  0.58552622672E+03  0.00000000000E+00 0.  1.
          6    2    1    2  502    0  0.12982683897E+03 -0.10109738150E+03 -0.34855816126E+03  0.42233067159E+03  0.17261145883E+03 0.  0.
         24    2    3    3    0    0  0.11118160709E+03 -0.12204319559E+03 -0.20063112918E+03  0.27169578645E+03  0.79434621130E+02 0.  0.
         -6    2    1    2    0  503 -0.12982683897E+03  0.10109738150E+03 -0.12732947341E+03  0.27283414717E+03  0.17649359309E+03 0.  0.
        -24    2    5    5    0    0 -0.62270338280E+02  0.13137238864E+03 -0.74773500267E+02  0.18192387737E+03  0.79805521664E+02 0.  0.
          2    1    4    4  501    0 -0.32594575388E+01 -0.29934428157E+02 -0.11542375366E+02  0.32247798089E+02  0.00000000000E+00 0. -1.
         -1    1    4    4    0  501  0.11444106463E+03 -0.92108767437E+02 -0.18908875381E+03  0.23944798836E+03  0.00000000000E+00 0.  1.
          5    1    3    3  502    0  0.18645231878E+02  0.20945814093E+02 -0.14792703208E+03  0.15063488514E+03  0.47000000000E+01 0. -1.
         13    1    6    6    0    0  0.43068252341E+01  0.42288704088E+02 -0.54105712501E+02  0.68806332283E+02  0.00000000000E+00 0. -1.
        -14    1    6    6    0    0 -0.66577163514E+02  0.89083684551E+02 -0.20667787766E+02  0.11311754508E+03  0.00000000000E+00 0.  1.
         -5    1    5    5    0  503 -0.67556500692E+02 -0.30275007138E+02 -0.52555973143E+02  0.90910269805E+02  0.47000000000E+01 0.  1.
<mgrwt>
<rscale>  2 0.24059065E+03</rscale>
<asrwt>0</asrwt>
<pdfrwt beam="1">  1       21 0.16867476E-01 0.24129997E+03</pdfrwt>
<pdfrwt beam="2">  1       21 0.90080955E-01 0.24129997E+03</pdfrwt>
<totfact> 0.32357879E+04</totfact>
</mgrwt>
</event>
<event>
12    1  0.2769346E-001  0.1930490E+03  0.7546771E-02  0.1156333E+00
         21   -1    0    0  504  503  0.00000000000E+00  0.00000000000E+00  0.39568887967E+02  0.39568887967E+02  0.00000000000E+00 0. -1.
         21   -1    0    0  502  504 -0.00000000000E+00 -0.00000000000E+00 -0.11651104080E+04  0.11651104080E+04  0.00000000000E+00 0. -1.
          6    2    1    2  502    0  0.59214448469E+02  0.51008994817E+02 -0.83086723983E+03  0.85239977221E+03  0.17359934618E+03 0.  0.
         24    2    3    3    0    0 -0.11567453879E+02  0.58073560453E+02 -0.66086860981E+03  0.66805875672E+03  0.77774279677E+02 0.  0.
         -6    2    1    2    0  503 -0.59214448469E+02 -0.51008994817E+02 -0.29467428018E+03  0.35227952373E+03  0.17652099869E+03 0.  0.
        -24    2    5    5    0    0 -0.82380737704E+02 -0.49191309070E+02 -0.11363844139E+03  0.16969790947E+03  0.81714835150E+02 0.  0.
          4    1    4    4  501    0 -0.95583741814E+01  0.62748231107E+02 -0.65981729981E+03  0.66286316246E+03  0.00000000000E+00 0. -1.
         -3    1    4    4    0  501 -0.20090796975E+01 -0.46746706539E+01 -0.10513100060E+01  0.51955942569E+01  0.00000000000E+00 0.  1.
          5    1    3    3  502    0  0.70781902348E+02 -0.70645656357E+01 -0.16999863001E+03  0.18434101550E+03  0.47000000000E+01 0. -1.
         13    1    6    6    0    0  0.80134462831E+01 -0.33079282099E+02 -0.34783410269E+02  0.48665592111E+02  0.00000000000E+00 0. -1.
        -14    1    6    6    0    0 -0.90394183987E+02 -0.16112026971E+02 -0.78855031118E+02  0.12103231736E+03  0.00000000000E+00 0.  1.
         -5    1    5    5    0  503  0.23166289234E+02 -0.18176857472E+01 -0.18103583880E+03  0.18258161426E+03  0.47000000000E+01 0.  1.
<mgrwt>
<rscale>  2 0.19237859E+03</rscale>
<asrwt>0</asrwt>
<pdfrwt beam="1">  1       21 0.60875213E-02 0.19304904E+03</pdfrwt>
<pdfrwt beam="2">  1       21 0.17924775E+00 0.19304904E+03</pdfrwt>
<totfact> 0.35407792E+04</totfact>
</mgrwt>
</event>
<event>
12    1  0.2769346E-001  0.2447446E+03  0.7546771E-02  0.1116699E+00
         21   -1    0    0  504  503  0.00000000000E+00  0.00000000000E+00  0.41498138271E+03  0.41498138271E+03  0.00000000000E+00 0.  1.
         21   -1    0    0  502  504 -0.00000000000E+00 -0.00000000000E+00 -0.18047185976E+03  0.18047185976E+03  0.00000000000E+00 0. -1.
          6    2    1    2  502    0  0.39248210535E+02 -0.16840364428E+03  0.25067641066E+03  0.35034065981E+03  0.17320423094E+03 0.  0.
         24    2    3    3    0    0  0.40054007441E+02 -0.15260772681E+03  0.11137895607E+03  0.21006938273E+03  0.82646427089E+02 0.  0.
         -6    2    1    2    0  503 -0.39248210535E+02  0.16840364428E+03 -0.16166887710E+02  0.24511258266E+03  0.17296994099E+03 0.  0.
        -24    2    5    5    0    0  0.26111442447E+02  0.10291477854E+03 -0.56041711952E+02  0.14425244494E+03  0.79967714262E+02 0.  0.
          2    1    4    4  501    0  0.21885107560E+02 -0.14393803928E+03  0.64869521742E+02  0.15938999948E+03  0.00000000000E+00 0. -1.
         -1    1    4    4    0  501  0.18168899881E+02 -0.86696875320E+01  0.46509434325E+02  0.50679383244E+02  0.00000000000E+00 0.  1.
          5    1    3    3  502    0 -0.80579690525E+00 -0.15795917465E+02  0.13929745459E+03  0.14027127708E+03  0.47000000000E+01 0. -1.
         13    1    6    6    0    0 -0.23156692559E+01  0.10366913144E+03 -0.50260837402E+02  0.11523368827E+03  0.00000000000E+00 0. -1.
        -14    1    6    6    0    0  0.28427111703E+02 -0.75435289257E+00 -0.57808745494E+01  0.29018756669E+02  0.00000000000E+00 0.  1.
         -5    1    5    5    0  503 -0.65359652982E+02  0.65488865731E+02  0.39874824242E+02  0.10086013772E+03  0.47000000000E+01 0.  1.
<mgrwt>
<rscale>  2 0.24470314E+03</rscale>
<asrwt>0</asrwt>
<pdfrwt beam="1">  1       21 0.63843289E-01 0.24474459E+03</pdfrwt>
<pdfrwt beam="2">  1       21 0.27764902E-01 0.24474459E+03</pdfrwt>
<totfact> 0.27315262E+04</totfact>
</mgrwt>
</event>
<event>
12    1  0.2769346E-001  0.1863288E+03  0.7546771E-02  0.1161908E+00
         21   -1    0    0  504  503  0.00000000000E+00  0.00000000000E+00  0.13163288266E+04  0.13163288266E+04  0.00000000000E+00 0.  1.
         21   -1    0    0  502  504 -0.00000000000E+00 -0.00000000000E+00 -0.52892052223E+02  0.52892052223E+02  0.00000000000E+00 0.  1.
          6    2    1    2  502    0  0.43422013449E+02 -0.54203864690E+02  0.11173186419E+04  0.11327485823E+04  0.17290133941E+03 0.  0.
         24    2    3    3    0    0  0.90321496394E+02 -0.41438670529E+02  0.61017269203E+03  0.62325705532E+03  0.79142319820E+02 0.  0.
         -6    2    1    2    0  503 -0.43422013449E+02  0.54203864690E+02  0.14611813250E+03  0.23647229646E+03  0.17246770175E+03 0.  0.
        -24    2    5    5    0    0  0.25932787732E+02  0.49530029376E+02  0.32308348419E+02  0.10303058583E+03  0.80285359489E+02 0.  0.
          2    1    4    4  501    0  0.44904150803E+02 -0.52549720835E+02  0.47980166695E+03  0.48475508819E+03  0.00000000000E+00 0. -1.
         -1    1    4    4    0  501  0.45417345590E+02  0.11111050306E+02  0.13037102508E+03  0.13850196713E+03  0.00000000000E+00 0.  1.
          5    1    3    3  502    0 -0.46899482945E+02 -0.12765194161E+02  0.50714594982E+03  0.50949152702E+03  0.47000000000E+01 0. -1.
         13    1    6    6    0    0 -0.18514249244E+02  0.39387015602E+02  0.37101696570E+02  0.57189599679E+02  0.00000000000E+00 0. -1.
        -14    1    6    6    0    0  0.44447036976E+02  0.10143013774E+02 -0.47933481507E+01  0.45840986146E+02  0.00000000000E+00 0.  1.
         -5    1    5    5    0  503 -0.69354801181E+02  0.46738353143E+01  0.11380978408E+03  0.13344171063E+03  0.47000000000E+01 0.  1.
<mgrwt>
<rscale>  2 0.18622809E+03</rscale>
<asrwt>0</asrwt>
<pdfrwt beam="1">  1       21 0.20251210E+00 0.18632875E+03</pdfrwt>
<pdfrwt beam="2">  1       21 0.81372398E-02 0.18632875E+03</pdfrwt>
<totfact> 0.15150748E+04</totfact>
</mgrwt>
</event>
<event>
12    1  0.2769346E-001  0.2682715E+03  0.7546771E-02  0.1102864E+00
         21   -1    0    0  504  503  0.00000000000E+00  0.00000000000E+00  0.20213935364E+03  0.20213935364E+03  0.00000000000E+00 0.  1.
         21   -1    0    0  502  504 -0.00000000000E+00 -0.00000000000E+00 -0.35793114171E+03  0.35793114171E+03  0.00000000000E+00 0.  1.
          6    2    1    2  502    0  0.95558781009E+02  0.18172263991E+03 -0.11721065147E+03  0.28903897899E+03  0.16628468383E+03 0.  0.
         24    2    3    3    0    0  0.11855988332E+03  0.80065565027E+02 -0.67457200643E+02  0.17345045253E+03  0.71187393046E+02 0.  0.
         -6    2    1    2    0  503 -0.95558781009E+02 -0.18172263991E+03 -0.38581136606E+02  0.27103151636E+03  0.17267014876E+03 0.  0.
        -24    2    5    5    0    0 -0.11037162414E+03 -0.11380912508E+03 -0.70393730814E+02  0.19444302526E+03  0.87854427132E+02 0.  0.
          4    1    4    4  501    0  0.30837851294E+02  0.51561339885E+02 -0.52943887233E+02  0.80078711519E+02  0.00000000000E+00 0. -1.
         -3    1    4    4    0  501  0.87722032023E+02  0.28504225142E+02 -0.14513313410E+02  0.93371741010E+02  0.00000000000E+00 0.  1.
          5    1    3    3  502    0 -0.23001102308E+02  0.10165707488E+03 -0.49753450823E+02  0.11558852646E+03  0.47000000000E+01 0. -1.
         13    1    6    6    0    0 -0.50733467651E+01 -0.60196532265E+00 -0.35604836036E+02  0.35969508737E+02  0.00000000000E+00 0. -1.
        -14    1    6    6    0    0 -0.10529827738E+03 -0.11320715976E+03 -0.34788894778E+02  0.15847351652E+03  0.00000000000E+00 0.  1.
         -5    1    5    5    0  503  0.14812843135E+02 -0.67913514831E+02  0.31812594208E+02  0.76588491098E+02  0.47000000000E+01 0.  1.
<mgrwt>
<rscale>  2 0.26724945E+03</rscale>
<asrwt>0</asrwt>
<pdfrwt beam="1">  1       21 0.31098362E-01 0.26827146E+03</pdfrwt>
<pdfrwt beam="2">  1       21 0.55066329E-01 0.26827146E+03</pdfrwt>
<totfact> 0.29796541E+04</totfact>
</mgrwt>
</event>
<event>
12    1  0.2769346E-001  0.3001253E+03  0.7546771E-02  0.1085241E+00
         21   -1    0    0  504  503  0.00000000000E+00  0.00000000000E+00  0.23978329068E+03  0.23978329068E+03  0.00000000000E+00 0.  1.
         21   -1    0    0  502  504 -0.00000000000E+00 -0.00000000000E+00 -0.50560774912E+03  0.50560774912E+03  0.00000000000E+00 0.  1.
          6    2    1    2  502    0  0.14273709857E+03  0.19892256702E+03 -0.32223767178E+03  0.44000993934E+03  0.17270657955E+03 0.  0.
         24    2    3    3    0    0  0.15554829171E+03  0.21236078749E+03 -0.27431577685E+03  0.38840266803E+03  0.79467678856E+02 0.  0.
         -6    2    1    2    0  503 -0.14273709857E+03 -0.19892256702E+03  0.56413213341E+02  0.30538110046E+03  0.17358311813E+03 0.  0.
        -24    2    5    5    0    0 -0.11482280220E+03 -0.64728829806E+02 -0.63579118717E+01  0.15455182210E+03  0.80447158795E+02 0.  0.
          2    1    4    4  501    0  0.33138457323E+02  0.98097502470E+02 -0.73750018235E+02  0.12712333592E+03  0.00000000000E+00 0. -1.
         -1    1    4    4    0  501  0.12240983439E+03  0.11426328502E+03 -0.20056575862E+03  0.26127933211E+03  0.00000000000E+00 0.  1.
          5    1    3    3  502    0 -0.12811193142E+02 -0.13438220460E+02 -0.47921894927E+02  0.51607271312E+02  0.47000000000E+01 0. -1.
         11    1    6    6    0    0 -0.11301156761E+03 -0.65302395685E+02  0.16548300883E+02  0.13156695466E+03  0.00000000000E+00 0. -1.
        -12    1    6    6    0    0 -0.18112345884E+01  0.57356587954E+00 -0.22906212755E+02  0.22984867442E+02  0.00000000000E+00 0.  1.
         -5    1    5    5    0  503 -0.27914296373E+02 -0.13419373722E+03  0.62771125213E+02  0.15082927836E+03  0.47000000000E+01 0.  1.
<mgrwt>
<rscale>  2 0.29999864E+03</rscale>
<asrwt>0</asrwt>
<pdfrwt beam="1">  1       21 0.36889737E-01 0.30012525E+03</pdfrwt>
<pdfrwt beam="2">  1       21 0.77785807E-01 0.30012525E+03</pdfrwt>
<totfact> 0.97687869E+03</totfact>
</mgrwt>
</event>
<event>
12    1  0.2769346E-001  0.1990307E+03  0.7546771E-02  0.1151538E+00
         21   -1    0    0  504  503  0.00000000000E+00  0.00000000000E+00  0.34657177049E+03  0.34657177049E+03  0.00000000000E+00 0. -1.
         21   -1    0    0  502  504 -0.00000000000E+00 -0.00000000000E+00 -0.11323274996E+03  0.11323274996E+03  0.00000000000E+00 0.  1.
          6    2    1    2  502    0  0.81146161339E+02 -0.35807117716E+02  0.88590601233E+02  0.21370431659E+03  0.17307336920E+03 0.  0.
         24    2    3    3    0    0 -0.15938733495E+02 -0.25063773091E+02  0.77371529110E+02  0.11527234091E+03  0.80119430315E+02 0.  0.
         -6    2    1    2    0  503 -0.81146161339E+02  0.35807117716E+02  0.14474841929E+03  0.24610020386E+03  0.17817507197E+03 0.  0.
        -24    2    5    5    0    0 -0.78949485841E+02  0.89873737236E+02  0.11210674688E+03  0.18273149307E+03  0.80700470281E+02 0.  0.
          4    1    4    4  501    0  0.65668212476E+01 -0.80224884455E+01  0.85318087599E+02  0.85945677807E+02  0.00000000000E+00 0. -1.
         -3    1    4    4    0  501 -0.22505554743E+02 -0.17041284646E+02 -0.79465584889E+01  0.29326663098E+02  0.00000000000E+00 0.  1.
          5    1    3    3  502    0  0.97084894834E+02 -0.10743344624E+02  0.11219072123E+02  0.98431975688E+02  0.47000000000E+01 0. -1.
         11    1    6    6    0    0 -0.57875200742E+02  0.61875635553E+02  0.11991835507E+03  0.14682828412E+03  0.00000000000E+00 0. -1.
        -12    1    6    6    0    0 -0.21074285098E+02  0.27998101683E+02 -0.78116081862E+01  0.35903208947E+02  0.00000000000E+00 0.  1.
         -5    1    5    5    0  503 -0.21966754982E+01 -0.54066619520E+02  0.32641672410E+02  0.63368710791E+02  0.47000000000E+01 0.  1.
<mgrwt>
<rscale>  2 0.19788231E+03</rscale>
<asrwt>0</asrwt>
<pdfrwt beam="1">  1       21 0.53318733E-01 0.19903066E+03</pdfrwt>
<pdfrwt beam="2">  1       21 0.17420423E-01 0.19903066E+03</pdfrwt>
<totfact> 0.99070266E+04</totfact>
</mgrwt>
</event>
<event>
12    1  0.2769346E-001  0.1731179E+03  0.7546771E-02  0.1174681E+00
         21   -1    0    0  504  503  0.00000000000E+00  0.00000000000E+00  0.27214600811E+03  0.27214600811E+03  0.00000000000E+00 0. -1.
         21   -1    0    0  502  504 -0.00000000000E+00 -0.00000000000E+00 -0.23050187142E+03  0.23050187142E+03  0.00000000000E+00 0. -1.
          6    2    1    2  502    0  0.72620364465E+01  0.12457262299E+02 -0.16088282188E+03  0.23633257886E+03  0.17251633227E+03 0.  0.
         24    2    3    3    0    0 -0.64364753329E+02  0.46824539217E+01 -0.82404404510E+02  0.12969395241E+03  0.76585171959E+02 0.  0.
         -6    2    1    2    0  503 -0.72620364465E+01 -0.12457262299E+02  0.20252695857E+03  0.26631530066E+03  0.17233325234E+03 0.  0.
        -24    2    5    5    0    0 -0.62337925112E+02  0.10656510284E+02  0.16930100066E+03  0.19780505125E+03  0.80401687528E+02 0.  0.
          4    1    4    4  501    0 -0.45675472734E+02  0.31176326006E+02 -0.79905148901E+02  0.97175330890E+02  0.00000000000E+00 0. -1.
         -3    1    4    4    0  501 -0.18689280595E+02 -0.26493872084E+02 -0.24992556095E+01  0.32518621523E+02  0.00000000000E+00 0.  1.
          5    1    3    3  502    0  0.71626789775E+02  0.77748083771E+01 -0.78478417367E+02  0.10663862645E+03  0.47000000000E+01 0. -1.
         13    1    6    6    0    0 -0.17390756185E+01 -0.26776186999E+02  0.24065391402E+02  0.36043468722E+02  0.00000000000E+00 0. -1.
        -14    1    6    6    0    0 -0.60598849493E+02  0.37432697282E+02  0.14523560926E+03  0.16176158253E+03  0.00000000000E+00 0.  1.
         -5    1    5    5    0  503  0.55075888665E+02 -0.23113772582E+02  0.33225957912E+02  0.68510249412E+02  0.47000000000E+01 0.  1.
<mgrwt>
<rscale>  2 0.17307227E+03</rscale>
<asrwt>0</asrwt>
<pdfrwt beam="1">  1       21 0.41868617E-01 0.17311789E+03</pdfrwt>
<pdfrwt beam="2">  1       21 0.35461826E-01 0.17311789E+03</pdfrwt>
<totfact> 0.42513855E+04</totfact>
</mgrwt>
</event>
<event>
12    1  0.2769346E-001  0.2118203E+03  0.7546771E-02  0.1140408E+00
         21   -1    0    0  504  503  0.00000000000E+00  0.00000000000E+00  0.15260228476E+03  0.15260228476E+03  0.00000000000E+00 0. -1.
         21   -1    0    0  502  504 -0.00000000000E+00 -0.00000000000E+00 -0.48443127220E+03  0.48443127220E+03  0.00000000000E+00 0. -1.
          6    2    1    2  502    0 -0.97026802961E+02 -0.72760584812E+02 -0.36629208769E+03  0.42242803224E+03  0.17195128882E+03 0.  0.
         24    2    3    3    0    0 -0.22747346514E+01 -0.64533160759E+01 -0.22941393455E+03  0.24317311002E+03  0.80346676117E+02 0.  0.
         -6    2    1    2    0  503  0.97026802961E+02  0.72760584812E+02  0.34463100248E+02  0.21460552471E+03  0.17366497276E+03 0.  0.
        -24    2    5    5    0    0  0.12438609145E+03  0.87116093604E+02  0.47208038296E+02  0.18085445443E+03  0.86131418739E+02 0.  0.
          2    1    4    4  501    0  0.32161761903E+01  0.10019530465E+02  0.23313577538E+01  0.10778219194E+02  0.00000000000E+00 0. -1.
         -1    1    4    4    0  501 -0.54909108417E+01 -0.16472846541E+02 -0.23174529231E+03  0.23239489083E+03  0.00000000000E+00 0.  1.
          5    1    3    3  502    0 -0.94752068310E+02 -0.66307268736E+02 -0.13687815313E+03  0.17925492222E+03  0.47000000000E+01 0. -1.
         13    1    6    6    0    0  0.15103288893E+02  0.28250312420E+02  0.46814114759E+02  0.56725222149E+02  0.00000000000E+00 0. -1.
        -14    1    6    6    0    0  0.10928280256E+03  0.58865781184E+02  0.39392353687E+00  0.12412923228E+03  0.00000000000E+00 0.  1.
         -5    1    5    5    0  503 -0.27359288492E+02 -0.14355508793E+02 -0.12744938047E+02  0.33751070284E+02  0.47000000000E+01 0.  1.
<mgrwt>
<rscale>  2 0.21146872E+03</rscale>
<asrwt>0</asrwt>
<pdfrwt beam="1">  1       21 0.23477275E-01 0.21182027E+03</pdfrwt>
<pdfrwt beam="2">  1       21 0.74527886E-01 0.21182027E+03</pdfrwt>
<totfact> 0.27231895E+04</totfact>
</mgrwt>
</event>
<event>
12    1  0.2769346E-001  0.1797992E+03  0.7546771E-02  0.1168103E+00
         21   -1    0    0  504  503  0.00000000000E+00  0.00000000000E+00  0.26178058730E+03  0.26178058730E+03  0.00000000000E+00 0.  1.
         21   -1    0    0  502  504 -0.00000000000E+00 -0.00000000000E+00 -0.14131668620E+03  0.14131668620E+03  0.00000000000E+00 0.  1.
          6    2    1    2  502    0 -0.33088042902E+02 -0.37096917004E+02 -0.12006855780E+02  0.17976738962E+03  0.17234021571E+03 0.  0.
         24    2    3    3    0    0 -0.80878218457E+02  0.51564241528E+01  0.17604899852E+02  0.10928198837E+03  0.71167025738E+02 0.  0.
         -6    2    1    2    0  503  0.33088042902E+02  0.37096917004E+02  0.13247075688E+03  0.22332988387E+03  0.17279101762E+03 0.  0.
        -24    2    5    5    0    0 -0.49665074232E+01 -0.27190631141E+02  0.18689577172E+02  0.87134125857E+02  0.80492601996E+02 0.  0.
          4    1    4    4  501    0  0.11725425144E+02  0.94198874973E+01  0.42004917613E+01  0.15616145693E+02  0.00000000000E+00 0. -1.
         -3    1    4    4    0  501 -0.92603643601E+02 -0.42634633445E+01  0.13404408090E+02  0.93665842676E+02  0.00000000000E+00 0.  1.
          5    1    3    3  502    0  0.47790175555E+02 -0.42253341157E+02 -0.29611755632E+02  0.70485401255E+02  0.47000000000E+01 0. -1.
         13    1    6    6    0    0  0.30713801538E+02 -0.19131633239E+02 -0.13288410015E+02  0.38547877192E+02  0.00000000000E+00 0. -1.
        -14    1    6    6    0    0 -0.35680308961E+02 -0.80589979016E+01  0.31977987187E+02  0.48586248664E+02  0.00000000000E+00 0.  1.
         -5    1    5    5    0  503  0.38054550325E+02  0.64287548145E+02  0.11378117970E+03  0.13619575802E+03  0.47000000000E+01 0.  1.
<mgrwt>
<rscale>  2 0.17969076E+03</rscale>
<asrwt>0</asrwt>
<pdfrwt beam="1">  1       21 0.40273937E-01 0.17979915E+03</pdfrwt>
<pdfrwt beam="2">  1       21 0.21741029E-01 0.17979915E+03</pdfrwt>
<totfact> 0.11780192E+05</totfact>
</mgrwt>
</event>
<event>
12    1  0.2769346E-001  0.2424927E+03  0.7546771E-02  0.1118150E+00
         21   -1    0    0  504  503  0.00000000000E+00  0.00000000000E+00  0.18404783387E+03  0.18404783387E+03  0.00000000000E+00 0. -1.
         21   -1    0    0  502  504 -0.00000000000E+00 -0.00000000000E+00 -0.60204206001E+03  0.60204206001E+03  0.00000000000E+00 0. -1.
          6    2    1    2  502    0  0.38731433221E+02  0.16570139783E+03 -0.47827425225E+03  0.53621714041E+03  0.17270056207E+03 0.  0.
         24    2    3    3    0    0  0.48632551633E+02  0.25944862762E+02 -0.12210628586E+03  0.15345398711E+03  0.74832614087E+02 0.  0.
         -6    2    1    2    0  503 -0.38731433221E+02 -0.16570139783E+03  0.60280026115E+02  0.24987275347E+03  0.17275889041E+03 0.  0.
        -24    2    5    5    0    0  0.42503537765E+02 -0.92355161174E+02  0.10152444583E+02  0.12940012017E+03  0.79405871648E+02 0.  0.
          2    1    4    4  501    0  0.21867127917E+02  0.33207701516E+01 -0.11573978587E+03  0.11783419212E+03  0.00000000000E+00 0. -1.
         -1    1    4    4    0  501  0.26765423717E+02  0.22624092610E+02 -0.63664999848E+01  0.35619794991E+02  0.00000000000E+00 0.  1.
          5    1    3    3  502    0 -0.99011184121E+01  0.13975653507E+03 -0.35616796639E+03  0.38276315330E+03  0.47000000000E+01 0. -1.
         13    1    6    6    0    0 -0.16932066396E+02 -0.52776309736E+02 -0.72616355947E+01  0.55899598329E+02  0.00000000000E+00 0. -1.
        -14    1    6    6    0    0  0.59435604162E+02 -0.39578851438E+02  0.17414080178E+02  0.73500521846E+02  0.00000000000E+00 0.  1.
         -5    1    5    5    0  503 -0.81234970987E+02 -0.73346236655E+02  0.50127581533E+02  0.12047263329E+03  0.47000000000E+01 0.  1.
<mgrwt>
<rscale>  2 0.24248232E+03</rscale>
<asrwt>0</asrwt>
<pdfrwt beam="1">  1       21 0.28315051E-01 0.24249270E+03</pdfrwt>
<pdfrwt beam="2">  1       21 0.92621855E-01 0.24249270E+03</pdfrwt>
<totfact> 0.11355398E+04</totfact>
</mgrwt>
</event>
<event>
12    1  0.2769346E-001  0.2482543E+03  0.7546771E-02  0.1116685E+00
         21   -1    0    0  504  503  0.00000000000E+00  0.00000000000E+00  0.12000925590E+03  0.12000925590E+03  0.00000000000E+00 0.  1.
         21   -1    0    0  502  504 -0.00000000000E+00 -0.00000000000E+00 -0.52260513163E+03  0.52260513163E+03  0.00000000000E+00 0. -1.
          6    2    1    2  502    0 -0.19707138954E+02  0.15716921161E+03 -0.29239824157E+03  0.38357127513E+03  0.19115349599E+03 0.  0.
         24    2    3    3    0    0 -0.60506307140E+02  0.17238648620E+03 -0.22391369034E+03  0.30227944696E+03  0.88642030120E+02 0.  0.
         -6    2    1    2    0  503  0.19707138954E+02 -0.15716921161E+03 -0.11019763416E+03  0.25904311240E+03  0.17282732164E+03 0.  0.
        -24    2    5    5    0    0 -0.16980645249E+02 -0.17302620691E+03 -0.74534558422E+02  0.20527153273E+03  0.79715689537E+02 0.  0.
          2    1    4    4  501    0 -0.19326537076E+01  0.11535494919E+03 -0.16574242087E+03  0.20194318391E+03  0.00000000000E+00 0. -1.
         -1    1    4    4    0  501 -0.58573653432E+02  0.57031537008E+02 -0.58171269468E+02  0.10033626304E+03  0.00000000000E+00 0.  1.
          5    1    3    3  502    0  0.40799168186E+02 -0.15217274588E+02 -0.68484551234E+02  0.81291828176E+02  0.47000000000E+01 0. -1.
         13    1    6    6    0    0 -0.38760862549E+02 -0.51818222216E+02 -0.44431224463E+02  0.78496282246E+02  0.00000000000E+00 0. -1.
        -14    1    6    6    0    0  0.21780217299E+02 -0.12120798469E+03 -0.30103333959E+02  0.12677525048E+03  0.00000000000E+00 0.  1.
         -5    1    5    5    0  503  0.36687784204E+02  0.15856995300E+02 -0.35663075734E+02  0.53771579673E+02  0.47000000000E+01 0.  1.
<mgrwt>
<rscale>  2 0.24472494E+03</rscale>
<asrwt>0</asrwt>
<pdfrwt beam="1">  1       21 0.18462963E-01 0.24825429E+03</pdfrwt>
<pdfrwt beam="2">  1       21 0.80400789E-01 0.24825429E+03</pdfrwt>
<totfact> 0.35440998E+04</totfact>
</mgrwt>
</event>
<event>
12    1  0.2769346E-001  0.2469356E+03  0.7546771E-02  0.1115333E+00
         21   -1    0    0  504  503  0.00000000000E+00  0.00000000000E+00  0.34598176172E+03  0.34598176172E+03  0.00000000000E+00 0.  1.
         21   -1    0    0  502  504 -0.00000000000E+00 -0.00000000000E+00 -0.24319543318E+03  0.24319543318E+03  0.00000000000E+00 0. -1.
          6    2    1    2  502    0 -0.17435012862E+03 -0.18073502124E+02 -0.10352735912E+03  0.26775942039E+03  0.17393267173E+03 0.  0.
         24    2    3    3    0    0 -0.20537023588E+02 -0.19926200233E+02 -0.64190705421E+01  0.85786857958E+02  0.80618594245E+02 0.  0.
         -6    2    1    2    0  503  0.17435012862E+03  0.18073502124E+02  0.20631368766E+03  0.32141777450E+03  0.17326115901E+03 0.  0.
        -24    2    5    5    0    0  0.12291331107E+03 -0.44794914078E+02  0.84365188914E+02  0.17481726188E+03  0.79557046104E+02 0.  0.
          4    1    4    4  501    0  0.19378293230E+01 -0.38255737935E+02 -0.29802274298E+02  0.48532795312E+02  0.00000000000E+00 0. -1.
         -3    1    4    4    0  501 -0.22474852911E+02  0.18329537702E+02  0.23383203756E+02  0.37254062646E+02  0.00000000000E+00 0.  1.
          5    1    3    3  502    0 -0.15381310503E+03  0.18526981086E+01 -0.97108288579E+02  0.18197256244E+03  0.47000000000E+01 0. -1.
         13    1    6    6    0    0  0.28709573755E+02 -0.47982853869E+01 -0.14500842944E+02  0.32519803412E+02  0.00000000000E+00 0. -1.
        -14    1    6    6    0    0  0.94203737317E+02 -0.39996628691E+02  0.98866031858E+02  0.14229745847E+03  0.00000000000E+00 0.  1.
         -5    1    5    5    0  503  0.51436817545E+02  0.62868416202E+02  0.12194849875E+03  0.14660051262E+03  0.47000000000E+01 0.  1.
<mgrwt>
<rscale>  2 0.24681739E+03</rscale>
<asrwt>0</asrwt>
<pdfrwt beam="1">  1       21 0.53227964E-01 0.24693561E+03</pdfrwt>
<pdfrwt beam="2">  1       21 0.37414682E-01 0.24693561E+03</pdfrwt>
<totfact> 0.22366588E+04</totfact>
</mgrwt>
</event>
<event>
12    1  0.2769346E-001  0.2252767E+03  0.7546771E-02  0.1130468E+00
         21   -1    0    0  504  503  0.00000000000E+00  0.00000000000E+00  0.23359735836E+04  0.23359735836E+04  0.00000000000E+00 0.  1.
         21   -1    0    0  502  504 -0.00000000000E+00 -0.00000000000E+00 -0.22214818828E+02  0.22214818828E+02  0.00000000000E+00 0. -1.
          6    2    1    2  502    0 -0.83968185355E+02  0.11695903638E+03  0.93655179385E+03  0.96267823174E+03  0.16997071207E+03 0.  0.
         24    2    3    3    0    0 -0.74184636832E+02  0.45671477058E+01  0.47416235135E+03  0.48670161362E+03  0.80773176762E+02 0.  0.
         -6    2    1    2    0  503  0.83968185355E+02 -0.11695903638E+03  0.13772069709E+04  0.13955101706E+04  0.17326143077E+03 0.  0.
        -24    2    5    5    0    0  0.81594297118E+02 -0.51273852659E+02  0.11983456258E+04  0.12048962953E+04  0.80350521420E+02 0.  0.
          4    1    4    4  501    0 -0.31091459158E+02 -0.20734039542E+02  0.69009222633E+02  0.78478353937E+02  0.00000000000E+00 0. -1.
         -3    1    4    4    0  501 -0.43093177674E+02  0.25301187248E+02  0.40515312872E+03  0.40822325968E+03  0.00000000000E+00 0.  1.
          5    1    3    3  502    0 -0.97835485229E+01  0.11239188867E+03  0.46238944250E+03  0.47597661812E+03  0.47000000000E+01 0. -1.
         13    1    6    6    0    0  0.27280133017E+02 -0.23923839794E+01  0.88318433366E+02  0.92466614682E+02  0.00000000000E+00 0. -1.
        -14    1    6    6    0    0  0.54314164101E+02 -0.48881468679E+02  0.11100271924E+04  0.11124296806E+04  0.00000000000E+00 0.  1.
         -5    1    5    5    0  503  0.23738882370E+01 -0.65685183720E+02  0.17886134507E+03  0.19061387532E+03  0.47000000000E+01 0.  1.
<mgrwt>
<rscale>  2 0.22464380E+03</rscale>
<asrwt>0</asrwt>
<pdfrwt beam="1">  1       21 0.35938036E+00 0.22527671E+03</pdfrwt>
<pdfrwt beam="2">  1       21 0.34176663E-02 0.22527671E+03</pdfrwt>
<totfact> 0.75496704E+03</totfact>
</mgrwt>
</event>
<event>
12    1  0.2769346E-001  0.1776343E+03  0.7546771E-02  0.1170720E+00
         21   -1    0    0  504  503  0.00000000000E+00  0.00000000000E+00  0.15793939545E+03  0.15793939545E+03  0.00000000000E+00 0.  1.
         21   -1    0    0  502  504 -0.00000000000E+00 -0.00000000000E+00 -0.21571047919E+03  0.21571047919E+03  0.00000000000E+00 0.  1.
          6    2    1    2  502    0  0.14825577285E+02 -0.38636247546E+02 -0.83664324417E+02  0.19413825389E+03  0.17022745100E+03 0.  0.
         24    2    3    3    0    0  0.14336522289E+02  0.61180116005E+01 -0.11378946413E+03  0.13998295009E+03  0.80026359614E+02 0.  0.
         -6    2    1    2    0  503 -0.14825577285E+02  0.38636247546E+02  0.25893240677E+02  0.17951162076E+03  0.17274664891E+03 0.  0.
        -24    2    5    5    0    0  0.54076175637E+02  0.21758868471E+02 -0.12442877330E+02  0.98740057548E+02  0.78721614819E+02 0.  0.
          2    1    4    4  501    0  0.43663679888E+02  0.13218073169E+02 -0.41595133235E+02  0.61736452024E+02  0.00000000000E+00 0. -1.
         -1    1    4    4    0  501 -0.29327157599E+02 -0.71000615686E+01 -0.72194330892E+02  0.78246498069E+02  0.00000000000E+00 0.  1.
          5    1    3    3  502    0  0.48905499568E+00 -0.44754259146E+02  0.30125139709E+02  0.54155303794E+02  0.47000000000E+01 0. -1.
         11    1    6    6    0    0 -0.80772434455E+01  0.31545290515E+02  0.61342059661E+01  0.33135716352E+02  0.00000000000E+00 0. -1.
        -12    1    6    6    0    0  0.62153419082E+02 -0.97864220436E+01 -0.18577083296E+02  0.65604341196E+02  0.00000000000E+00 0.  1.
         -5    1    5    5    0  503 -0.68901752922E+02  0.16877379074E+02  0.38336118006E+02  0.80771563213E+02  0.47000000000E+01 0.  1.
<mgrwt>
<rscale>  2 0.17701893E+03</rscale>
<asrwt>0</asrwt>
<pdfrwt beam="1">  1       21 0.24298369E-01 0.17763435E+03</pdfrwt>
<pdfrwt beam="2">  1       21 0.33186227E-01 0.17763435E+03</pdfrwt>
<totfact> 0.14051078E+05</totfact>
</mgrwt>
</event>
<event>
12    1  0.2769346E-001  0.2312378E+03  0.7546771E-02  0.1126261E+00
         21   -1    0    0  504  503  0.00000000000E+00  0.00000000000E+00  0.39502186063E+03  0.39502186063E+03  0.00000000000E+00 0.  1.
         21   -1    0    0  502  504 -0.00000000000E+00 -0.00000000000E+00 -0.15513706987E+03  0.15513706987E+03  0.00000000000E+00 0.  1.
          6    2    1    2  502    0 -0.95446724973E+02 -0.11433365976E+03  0.22147836174E+03  0.31818972967E+03  0.17323330016E+03 0.  0.
         24    2    3    3    0    0 -0.43546300221E+02 -0.32239229458E+02  0.19386940126E+03  0.21710810782E+03  0.81332266405E+02 0.  0.
         -6    2    1    2    0  503  0.95446724973E+02  0.11433365976E+03  0.18406429024E+02  0.23196920084E+03  0.17688598149E+03 0.  0.
        -24    2    5    5    0    0  0.10418914751E+03  0.11632162517E+03  0.59564000777E+02  0.18958503315E+03  0.89490310445E+02 0.  0.
          2    1    4    4  501    0 -0.23105968684E+02 -0.40972416824E+01  0.17682356738E+03  0.17837389708E+03  0.00000000000E+00 0. -1.
         -1    1    4    4    0  501 -0.20440331537E+02 -0.28141987775E+02  0.17045833880E+02  0.38734210744E+02  0.00000000000E+00 0.  1.
          5    1    3    3  502    0 -0.51900424752E+02 -0.82094430298E+02  0.27608960483E+02  0.10108162184E+03  0.47000000000E+01 0. -1.
         11    1    6    6    0    0 -0.39279057505E+01 -0.11223621002E+02 -0.54881536159E+00  0.11903751941E+02  0.00000000000E+00 0. -1.
        -12    1    6    6    0    0  0.10811705326E+03  0.12754524617E+03  0.60112816138E+02  0.17768128120E+03  0.00000000000E+00 0.  1.
         -5    1    5    5    0  503 -0.87424225338E+01 -0.19879654160E+01 -0.41157571753E+02  0.42384167691E+02  0.47000000000E+01 0.  1.
<mgrwt>
<rscale>  2 0.23053912E+03</rscale>
<asrwt>0</asrwt>
<pdfrwt beam="1">  1       21 0.60772594E-01 0.23123779E+03</pdfrwt>
<pdfrwt beam="2">  1       21 0.23867242E-01 0.23123779E+03</pdfrwt>
<totfact> 0.40929934E+04</totfact>
</mgrwt>
</event>
<event>
12    1  0.2769346E-001  0.2449930E+03  0.7546771E-02  0.1116682E+00
         21   -1    0    0  504  503  0.00000000000E+00  0.00000000000E+00  0.82859163696E+03  0.82859163696E+03  0.00000000000E+00 0.  1.
         21   -1    0    0  502  504 -0.00000000000E+00 -0.00000000000E+00 -0.72783058445E+02  0.72783058445E+02  0.00000000000E+00 0. -1.
          6    2    1    2  502    0  0.15084258876E+03 -0.83960134454E+02  0.41989878623E+03  0.48561399626E+03  0.17234608183E+03 0.  0.
         24    2    3    3    0    0  0.87696401361E+02  0.19289417696E+02  0.24588088055E+03  0.27359458087E+03  0.79585468626E+02 0.  0.
         -6    2    1    2    0  503 -0.15084258876E+03  0.83960134454E+02  0.33590979228E+03  0.41576069915E+03  0.17383549593E+03 0.  0.
        -24    2    5    5    0    0 -0.38030080593E+02 -0.16185029716E+02  0.10078878558E+03  0.13636904985E+03  0.82035944812E+02 0.  0.
          4    1    4    4  501    0  0.94623254437E+02 -0.38888109888E+01  0.20942696438E+03  0.22984415708E+03  0.00000000000E+00 0. -1.
         -3    1    4    4    0  501 -0.69268530762E+01  0.23178228685E+02  0.36453916161E+02  0.43750423792E+02  0.00000000000E+00 0.  1.
          5    1    3    3  502    0  0.63146187398E+02 -0.10324955215E+03  0.17401790569E+03  0.21201941539E+03  0.47000000000E+01 0. -1.
         11    1    6    6    0    0 -0.10127426886E+02 -0.22489346051E+02  0.10463771540E+03  0.10750528798E+03  0.00000000000E+00 0. -1.
        -12    1    6    6    0    0 -0.27902653707E+02  0.63043163347E+01 -0.38489298148E+01  0.28863761866E+02  0.00000000000E+00 0.  1.
         -5    1    5    5    0  503 -0.11281250817E+03  0.10014516417E+03  0.23512100670E+03  0.27939164930E+03  0.47000000000E+01 0.  1.
<mgrwt>
<rscale>  2 0.24472893E+03</rscale>
<asrwt>0</asrwt>
<pdfrwt beam="1">  1       21 0.12747563E+00 0.24499300E+03</pdfrwt>
<pdfrwt beam="2">  1       21 0.11197394E-01 0.24499300E+03</pdfrwt>
<totfact> 0.29294044E+04</totfact>
</mgrwt>
</event>
<event>
12    1  0.2769346E-001  0.2802730E+03  0.7546771E-02  0.1095670E+00
         21   -1    0    0  504  503  0.00000000000E+00  0.00000000000E+00  0.12488432811E+04  0.12488432811E+04  0.00000000000E+00 0. -1.
         21   -1    0    0  502  504 -0.00000000000E+00 -0.00000000000E+00 -0.80932873317E+02  0.80932873317E+02  0.00000000000E+00 0. -1.
          6    2    1    2  502    0 -0.73409786057E+02  0.20676563036E+03  0.26902874190E+03  0.38849634461E+03  0.17439014657E+03 0.  0.
         24    2    3    3    0    0  0.23177730658E+02  0.11162654494E+03  0.10033596553E+03  0.17202478352E+03  0.80793115016E+02 0.  0.
         -6    2    1    2    0  503  0.73409786057E+02 -0.20676563036E+03  0.89888166592E+03  0.94127980985E+03  0.17285371996E+03 0.  0.
        -24    2    5    5    0    0  0.96212786703E+01 -0.16552323957E+03  0.76894430982E+03  0.79069523234E+03  0.80206527125E+02 0.  0.
          4    1    4    4  501    0  0.32780925477E+02  0.12188136253E+02  0.77589553406E+01  0.35823750898E+02  0.00000000000E+00 0. -1.
         -3    1    4    4    0  501 -0.96031948182E+01  0.99438408687E+02  0.92577010186E+02  0.13620103262E+03  0.00000000000E+00 0.  1.
          5    1    3    3  502    0 -0.96587516716E+02  0.95139085420E+02  0.16869277637E+03  0.21647156109E+03  0.47000000000E+01 0. -1.
         13    1    6    6    0    0  0.29154087490E+02 -0.12902980033E+03  0.44888565755E+03  0.46797113559E+03  0.00000000000E+00 0. -1.
        -14    1    6    6    0    0 -0.19532808819E+02 -0.36493439237E+02  0.32005865227E+03  0.32272409674E+03  0.00000000000E+00 0.  1.
         -5    1    5    5    0  503  0.63788507387E+02 -0.41242390790E+02  0.12993735610E+03  0.15058457751E+03  0.47000000000E+01 0.  1.
<mgrwt>
<rscale>  2 0.28003433E+03</rscale>
<asrwt>0</asrwt>
<pdfrwt beam="1">  1       21 0.19212972E+00 0.28027298E+03</pdfrwt>
<pdfrwt beam="2">  1       21 0.12451212E-01 0.28027298E+03</pdfrwt>
<totfact> 0.77861051E+03</totfact>
</mgrwt>
</event>
<event>
12    1  0.2769346E-001  0.1749804E+03  0.7546771E-02  0.1173802E+00
         21   -1    0    0  504  503  0.00000000000E+00  0.00000000000E+00  0.11588651438E+03  0.11588651438E+03  0.00000000000E+00 0. -1.
         21   -1    0    0  502  504 -0.00000000000E+00 -0.00000000000E+00 -0.29906809051E+03  0.29906809051E+03  0.00000000000E+00 0. -1.
          6    2    1    2  502    0 -0.23572378575E+02 -0.14718011794E+02 -0.16752158692E+03  0.23927485936E+03  0.16857253434E+03 0.  0.
         24    2    3    3    0    0 -0.15524023801E+02 -0.15281797172E+02 -0.19225087596E+03  0.21284151668E+03  0.88693761207E+02 0.  0.
         -6    2    1    2    0  503  0.23572378575E+02  0.14718011794E+02 -0.15659989212E+02  0.17567974553E+03  0.17275954626E+03 0.  0.
        -24    2    5    5    0    0  0.39086085618E+02  0.65165190412E+02 -0.40209328606E+02  0.11728151780E+03  0.79774307777E+02 0.  0.
          4    1    4    4  501    0  0.12322548845E+02 -0.42909753528E+02 -0.59312715848E+02  0.74236718807E+02  0.00000000000E+00 0. -1.
         -3    1    4    4    0  501 -0.27846572646E+02  0.27627956357E+02 -0.13293816011E+03  0.13860479788E+03  0.00000000000E+00 0.  1.
          5    1    3    3  502    0 -0.80483547735E+01  0.56378537817E+00  0.24729289038E+02  0.26433342673E+02  0.47000000000E+01 0. -1.
         11    1    6    6    0    0  0.52066453354E+02  0.22851837065E+02 -0.45341573800E+02  0.72725376154E+02  0.00000000000E+00 0. -1.
        -12    1    6    6    0    0 -0.12980367736E+02  0.42313353347E+02  0.51322451947E+01  0.44556141650E+02  0.00000000000E+00 0.  1.
         -5    1    5    5    0  503 -0.15513707044E+02 -0.50447178618E+02  0.24549339394E+02  0.58398227725E+02  0.47000000000E+01 0.  1.
<mgrwt>
<rscale>  2 0.17393797E+03</rscale>
<asrwt>0</asrwt>
<pdfrwt beam="1">  1       21 0.17828695E-01 0.17498039E+03</pdfrwt>
<pdfrwt beam="2">  1       21 0.46010475E-01 0.17498039E+03</pdfrwt>
<totfact> 0.13016076E+05</totfact>
</mgrwt>
</event>
<event>
12    1  0.2769346E-001  0.2853772E+03  0.7546771E-02  0.1092834E+00
         21   -1    0    0  504  503  0.00000000000E+00  0.00000000000E+00  0.34862638987E+03  0.34862638987E+03  0.00000000000E+00 0. -1.
         21   -1    0    0  502  504 -0.00000000000E+00 -0.00000000000E+00 -0.25830131115E+03  0.25830131115E+03  0.00000000000E+00 0. -1.
          6    2    1    2  502    0  0.21948641069E+03 -0.60432174768E+02 -0.49237808969E+02  0.28925184422E+03  0.17151074406E+03 0.  0.
         24    2    3    3    0    0  0.79435750297E+02 -0.15896550434E+02  0.16830993160E+02  0.12805387300E+03  0.97733174093E+02 0.  0.
         -6    2    1    2    0  503 -0.21948641069E+03  0.60432174768E+02  0.13956288768E+03  0.31767585680E+03  0.17208665885E+03 0.  0.
        -24    2    5    5    0    0 -0.16703417398E+03  0.43116920837E+02  0.16954029469E+03  0.25465371715E+03  0.79656261513E+02 0.  0.
          4    1    4    4  501    0  0.24124099869E+02 -0.39981425585E+02 -0.26579793821E+02  0.53730550210E+02  0.00000000000E+00 0. -1.
         -3    1    4    4    0  501  0.55311650428E+02  0.24084875150E+02  0.43410786981E+02  0.74323322789E+02  0.00000000000E+00 0.  1.
          5    1    3    3  502    0  0.14005066039E+03 -0.44535624334E+02 -0.66068802129E+02  0.16119797122E+03  0.47000000000E+01 0. -1.
         13    1    6    6    0    0 -0.15533245243E+03  0.58981872015E+02  0.13182238614E+03  0.21209472764E+03  0.00000000000E+00 0. -1.
        -14    1    6    6    0    0 -0.11701721545E+02 -0.15864951178E+02  0.37717908556E+02  0.42558989518E+02  0.00000000000E+00 0.  1.
         -5    1    5    5    0  503 -0.52452236713E+02  0.17315253931E+02 -0.29977407010E+02  0.63022139649E+02  0.47000000000E+01 0.  1.
<mgrwt>
<rscale>  2 0.28529044E+03</rscale>
<asrwt>0</asrwt>
<pdfrwt beam="1">  1       21 0.53634829E-01 0.28537721E+03</pdfrwt>
<pdfrwt beam="2">  1       21 0.39738663E-01 0.28537721E+03</pdfrwt>
<totfact> 0.19146412E+04</totfact>
</mgrwt>
</event>
<event>
12    1  0.2769346E-001  0.2016546E+03  0.7546771E-02  0.1148485E+00
         21   -1    0    0  504  503  0.00000000000E+00  0.00000000000E+00  0.63317422773E+02  0.63317422773E+02  0.00000000000E+00 0. -1.
         21   -1    0    0  502  504 -0.00000000000E+00 -0.00000000000E+00 -0.74657819176E+03  0.74657819176E+03  0.00000000000E+00 0.  1.
          6    2    1    2  502    0 -0.49589924007E+02 -0.89136573322E+02 -0.49496523664E+03  0.53446719377E+03  0.17395432294E+03 0.  0.
         24    2    3    3    0    0 -0.96481747137E+02 -0.88914106807E+02 -0.38859008206E+03  0.41812005767E+03  0.81287667128E+02 0.  0.
         -6    2    1    2    0  503  0.49589924007E+02  0.89136573322E+02 -0.18829553234E+03  0.27542842076E+03  0.17320830868E+03 0.  0.
        -24    2    5    5    0    0 -0.31505865705E+02  0.11406430696E+02 -0.97329545179E+02  0.13080683522E+03  0.80713453285E+02 0.  0.
          2    1    4    4  501    0 -0.67276930375E+02 -0.10168095591E+03 -0.29295758529E+03  0.31731585043E+03  0.00000000000E+00 0. -1.
         -1    1    4    4    0  501 -0.29204816762E+02  0.12766849100E+02 -0.95632496777E+02  0.10080420724E+03  0.00000000000E+00 0.  1.
          5    1    3    3  502    0  0.46891823130E+02 -0.22246651548E+00 -0.10637515458E+03  0.11634713611E+03  0.47000000000E+01 0. -1.
         11    1    6    6    0    0 -0.56239246627E+02  0.21687597995E+02 -0.72496246811E+02  0.94281019138E+02  0.00000000000E+00 0. -1.
        -12    1    6    6    0    0  0.24733380922E+02 -0.10281167299E+02 -0.24833298368E+02  0.36525816085E+02  0.00000000000E+00 0.  1.
         -5    1    5    5    0  503  0.81095789713E+02  0.77730142627E+02 -0.90965987163E+02  0.14462158553E+03  0.47000000000E+01 0.  1.
<mgrwt>
<rscale>  2 0.20149366E+03</rscale>
<asrwt>0</asrwt>
<pdfrwt beam="1">  1       21 0.97411415E-02 0.20165464E+03</pdfrwt>
<pdfrwt beam="2">  1       21 0.11485819E+00 0.20165464E+03</pdfrwt>
<totfact> 0.49739374E+04</totfact>
</mgrwt>
</event>
<event>
12    1  0.2769346E-001  0.1766226E+03  0.7546771E-02  0.1171906E+00
         21   -1    0    0  504  503  0.00000000000E+00  0.00000000000E+00  0.27231511694E+02  0.27231511694E+02  0.00000000000E+00 0. -1.
         21   -1    0    0  502  504 -0.00000000000E+00 -0.00000000000E+00 -0.11592024107E+04  0.11592024107E+04  0.00000000000E+00 0. -1.
          6    2    1    2  502    0  0.26924462524E+02  0.17150797376E+02 -0.66273624610E+03  0.68505909762E+03  0.17049210776E+03 0.  0.
         24    2    3    3    0    0  0.54980925330E+00 -0.47306100802E+02 -0.23396594858E+03  0.25064412079E+03  0.76447633909E+02 0.  0.
         -6    2    1    2    0  503 -0.26924462524E+02 -0.17150797376E+02 -0.46923465292E+03  0.50137482478E+03  0.17371378441E+03 0.  0.
        -24    2    5    5    0    0 -0.68894897627E+02  0.32442360726E+02 -0.26523045046E+03  0.28722346856E+03  0.79693885270E+02 0.  0.
          2    1    4    4  501    0  0.32419974268E+02 -0.17247528283E+02 -0.53187243330E+02  0.64632923626E+02  0.00000000000E+00 0. -1.
         -1    1    4    4    0  501 -0.31870165015E+02 -0.30058572519E+02 -0.18077870525E+03  0.18601119717E+03  0.00000000000E+00 0.  1.
          5    1    3    3  502    0  0.26374653271E+02  0.64456898178E+02 -0.42877029752E+03  0.43441497683E+03  0.47000000000E+01 0. -1.
         13    1    6    6    0    0 -0.22974691227E+02 -0.25935004456E+02 -0.10607597963E+03  0.11159110335E+03  0.00000000000E+00 0. -1.
        -14    1    6    6    0    0 -0.45920206400E+02  0.58377365183E+02 -0.15915447083E+03  0.17563236520E+03  0.00000000000E+00 0.  1.
         -5    1    5    5    0  503  0.41970435103E+02 -0.49593158103E+02 -0.20400420245E+03  0.21415135622E+03  0.47000000000E+01 0.  1.
<mgrwt>
<rscale>  2 0.17582534E+03</rscale>
<asrwt>0</asrwt>
<pdfrwt beam="1">  1       21 0.41894628E-02 0.17662264E+03</pdfrwt>
<pdfrwt beam="2">  1       21 0.17833886E+00 0.17662264E+03</pdfrwt>
<totfact> 0.68350141E+04</totfact>
</mgrwt>
</event>
<event>
12    1  0.2769346E-001  0.2245246E+03  0.7546771E-02  0.1130631E+00
         21   -1    0    0  504  503  0.00000000000E+00  0.00000000000E+00  0.42705890718E+02  0.42705890718E+02  0.00000000000E+00 0.  1.
         21   -1    0    0  502  504 -0.00000000000E+00 -0.00000000000E+00 -0.18152168699E+04  0.18152168699E+04  0.00000000000E+00 0.  1.
          6    2    1    2  502    0  0.39412498583E+02 -0.13711859671E+03 -0.14360214099E+04  0.14534026570E+04  0.17282053979E+03 0.  0.
         24    2    3    3    0    0  0.27141252580E+02 -0.87136563324E+02 -0.13288146868E+04  0.13343893862E+04  0.80728767438E+02 0.  0.
         -6    2    1    2    0  503 -0.39412498583E+02  0.13711859671E+03 -0.33648956926E+03  0.40452010363E+03  0.17336790191E+03 0.  0.
        -24    2    5    5    0    0 -0.52768433081E+02  0.14938959865E+03 -0.34161517476E+03  0.38509536923E+03  0.80596253401E+02 0.  0.
          4    1    4    4  501    0  0.49760519269E+02 -0.25978745136E+02 -0.55456786752E+03  0.55740158249E+03  0.00000000000E+00 0. -1.
         -3    1    4    4    0  501 -0.22619266689E+02 -0.61157818187E+02 -0.77424681926E+03  0.77698780369E+03  0.00000000000E+00 0.  1.
          5    1    3    3  502    0  0.12271246003E+02 -0.49982033387E+02 -0.10720672310E+03  0.11901327076E+03  0.47000000000E+01 0. -1.
         13    1    6    6    0    0 -0.19763686947E+02  0.59085738655E+01 -0.10041195099E+03  0.10250889946E+03  0.00000000000E+00 0. -1.
        -14    1    6    6    0    0 -0.33004746135E+02  0.14348102478E+03 -0.24120322377E+03  0.28258646977E+03  0.00000000000E+00 0.  1.
         -5    1    5    5    0  503  0.13355934498E+02 -0.12271001939E+02  0.51256054977E+01  0.19424734403E+02  0.47000000000E+01 0.  1.
<mgrwt>
<rscale>  2 0.22441890E+03</rscale>
<asrwt>0</asrwt>
<pdfrwt beam="1">  1       21 0.65701372E-02 0.22452457E+03</pdfrwt>
<pdfrwt beam="2">  1       21 0.27926413E+00 0.22452457E+03</pdfrwt>
<totfact> 0.73444673E+03</totfact>
</mgrwt>
</event>
<event>
12    1  0.2769346E-001  0.1799467E+03  0.7546771E-02  0.1167940E+00
         21   -1    0    0  504  503  0.00000000000E+00  0.00000000000E+00  0.44178151364E+02  0.44178151364E+02  0.00000000000E+00 0.  1.
         21   -1    0    0  502  504 -0.00000000000E+00 -0.00000000000E+00 -0.73152386464E+03  0.73152386464E+03  0.00000000000E+00 0.  1.
          6    2    1    2  502    0  0.49134851272E+02 -0.58189058247E+01 -0.34384102657E+03  0.38808176347E+03  0.17301072310E+03 0.  0.
         24    2    3    3    0    0  0.89483900125E+02 -0.42022115098E+01 -0.16162850967E+03  0.20138909955E+03  0.80054776979E+02 0.  0.
         -6    2    1    2    0  503 -0.49134851272E+02  0.58189058247E+01 -0.34350468670E+03  0.38762025253E+03  0.17264384470E+03 0.  0.
        -24    2    5    5    0    0  0.12288074971E+02  0.19420435681E+02 -0.29833636359E+03  0.31003130425E+03  0.81158324700E+02 0.  0.
          4    1    4    4  501    0  0.10717761836E+02  0.31269654364E+02 -0.35422035553E+02  0.48449791595E+02  0.00000000000E+00 0. -1.
         -3    1    4    4    0  501  0.78766138289E+02 -0.35471865874E+02 -0.12620647411E+03  0.15293930795E+03  0.00000000000E+00 0.  1.
          5    1    3    3  502    0 -0.40349048854E+02 -0.16166943149E+01 -0.18221251691E+03  0.18669266392E+03  0.47000000000E+01 0. -1.
         13    1    6    6    0    0 -0.20927553128E+01 -0.23152169401E+02 -0.20635612856E+03  0.20766139354E+03  0.00000000000E+00 0. -1.
        -14    1    6    6    0    0  0.14380830284E+02  0.42572605082E+02 -0.91980235032E+02  0.10236991071E+03  0.00000000000E+00 0.  1.
         -5    1    5    5    0  503 -0.61422926243E+02 -0.13601529856E+02 -0.45168323111E+02  0.77588948281E+02  0.47000000000E+01 0.  1.
<mgrwt>
<rscale>  2 0.17985843E+03</rscale>
<asrwt>0</asrwt>
<pdfrwt beam="1">  1       21 0.67966388E-02 0.17994667E+03</pdfrwt>
<pdfrwt beam="2">  1       21 0.11254213E+00 0.17994667E+03</pdfrwt>
<totfact> 0.98880823E+04</totfact>
</mgrwt>
</event>
<event>
12    1  0.2769346E-001  0.1798923E+03  0.7546771E-02  0.1168084E+00
         21   -1    0    0  504  503  0.00000000000E+00  0.00000000000E+00  0.39762273081E+03  0.39762273081E+03  0.00000000000E+00 0.  1.
         21   -1    0    0  502  504 -0.00000000000E+00 -0.00000000000E+00 -0.21304255455E+03  0.21304255455E+03  0.00000000000E+00 0.  1.
          6    2    1    2  502    0  0.46781797057E+02  0.16059137058E+02 -0.14810666726E+03  0.23245665407E+03  0.17220359670E+03 0.  0.
         24    2    3    3    0    0  0.85540370608E+02 -0.24748094180E+02 -0.11757603355E+03  0.16825644581E+03  0.80972123127E+02 0.  0.
         -6    2    1    2    0  503 -0.46781797057E+02 -0.16059137058E+02  0.33268684352E+03  0.37820863129E+03  0.17295895615E+03 0.  0.
        -24    2    5    5    0    0 -0.31492593629E+02  0.53332599639E+02  0.24029864391E+03  0.26156111828E+03  0.82671825275E+02 0.  0.
          4    1    4    4  501    0  0.47886649121E+01 -0.22991596636E+02  0.24193031675E+01  0.23609274773E+02  0.00000000000E+00 0. -1.
         -3    1    4    4    0  501  0.80751705696E+02 -0.17564975437E+01 -0.11999533672E+03  0.14464717104E+03  0.00000000000E+00 0.  1.
          5    1    3    3  502    0 -0.38758573551E+02  0.40807231238E+02 -0.30530633709E+02  0.64200208253E+02  0.47000000000E+01 0. -1.
         13    1    6    6    0    0 -0.39039222805E+02  0.10573183954E+01  0.46651794606E+02  0.60840519223E+02  0.00000000000E+00 0. -1.
        -14    1    6    6    0    0  0.75466291765E+01  0.52275281243E+02  0.19364684931E+03  0.20072059906E+03  0.00000000000E+00 0.  1.
         -5    1    5    5    0  503 -0.15289203428E+02 -0.69391736697E+02  0.92388199605E+02  0.11664751300E+03  0.47000000000E+01 0.  1.
<mgrwt>
<rscale>  2 0.17971047E+03</rscale>
<asrwt>0</asrwt>
<pdfrwt beam="1">  1       21 0.61172728E-01 0.17989228E+03</pdfrwt>
<pdfrwt beam="2">  1       21 0.32775778E-01 0.17989228E+03</pdfrwt>
<totfact> 0.22436979E+04</totfact>
</mgrwt>
</event>
<event>
12    1  0.2769346E-001  0.2313157E+03  0.7546771E-02  0.1125975E+00
         21   -1    0    0  504  503  0.00000000000E+00  0.00000000000E+00  0.37285476503E+03  0.37285476503E+03  0.00000000000E+00 0. -1.
         21   -1    0    0  502  504 -0.00000000000E+00 -0.00000000000E+00 -0.26463294952E+03  0.26463294952E+03  0.00000000000E+00 0. -1.
          6    2    1    2  502    0 -0.94457014118E+02  0.11911988019E+03 -0.16243564859E+03  0.28145064350E+03  0.17238750367E+03 0.  0.
         24    2    3    3    0    0  0.11202202606E+02  0.85335486189E+02 -0.95653429600E+02  0.15188517692E+03  0.80696306160E+02 0.  0.
         -6    2    1    2    0  503  0.94457014118E+02 -0.11911988019E+03  0.27065746410E+03  0.35603707104E+03  0.17434236350E+03 0.  0.
        -24    2    5    5    0    0  0.34487446148E+02 -0.13430078541E+03  0.15143576837E+03  0.22163948290E+03  0.83457675109E+02 0.  0.
          2    1    4    4  501    0  0.16204418599E+02  0.72895575689E+02 -0.10954644737E+03  0.13257741991E+03  0.00000000000E+00 0. -1.
         -1    1    4    4    0  501 -0.50022159924E+01  0.12439910500E+02  0.13893017773E+02  0.19307757014E+02  0.00000000000E+00 0.  1.
          5    1    3    3  502    0 -0.10565921672E+03  0.33784394002E+02 -0.66782218995E+02  0.12956546658E+03  0.47000000000E+01 0. -1.
         11    1    6    6    0    0  0.55002201567E+02 -0.78627150976E+02  0.12255471954E+03  0.15565066762E+03  0.00000000000E+00 0. -1.
        -12    1    6    6    0    0 -0.20514755418E+02 -0.55673634433E+02  0.28881048829E+02  0.65988815282E+02  0.00000000000E+00 0.  1.
         -5    1    5    5    0  503  0.59969567969E+02  0.15180905219E+02  0.11922169573E+03  0.13439758814E+03  0.47000000000E+01 0.  1.
<mgrwt>
<rscale>  2 0.23094733E+03</rscale>
<asrwt>0</asrwt>
<pdfrwt beam="1">  1       21 0.57362272E-01 0.23131566E+03</pdfrwt>
<pdfrwt beam="2">  1       21 0.40712761E-01 0.23131566E+03</pdfrwt>
<totfact> 0.16204462E+04</totfact>
</mgrwt>
</event>
<event>
12    1  0.2769346E-001  0.1911691E+03  0.7546771E-02  0.1157870E+00
         21   -1    0    0  504  503  0.00000000000E+00  0.00000000000E+00  0.76131400666E+03  0.76131400666E+03  0.00000000000E+00 0. -1.
         21   -1    0    0  502  504 -0.00000000000E+00 -0.00000000000E+00 -0.50240155144E+02  0.50240155144E+02  0.00000000000E+00 0.  1.
          6    2    1    2  502    0  0.72930118904E+02  0.21856113878E+02  0.26244705742E+03  0.32469077255E+03  0.17535434946E+03 0.  0.
         24    2    3    3    0    0  0.30882250158E+02  0.77960370839E+02  0.19568050076E+03  0.22776000343E+03  0.80945833662E+02 0.  0.
         -6    2    1    2    0  503 -0.72930118904E+02 -0.21856113878E+02  0.44862679410E+03  0.48686338926E+03  0.17312847095E+03 0.  0.
        -24    2    5    5    0    0 -0.15566667263E+02  0.34275059896E+02  0.34185173959E+03  0.35320607925E+03  0.80466276750E+02 0.  0.
          2    1    4    4  501    0  0.43029005324E+02  0.11835430078E+02  0.11100454026E+03  0.11963937756E+03  0.00000000000E+00 0. -1.
         -1    1    4    4    0  501 -0.12146755166E+02  0.66124940760E+02  0.84675960502E+02  0.10812062587E+03  0.00000000000E+00 0.  1.
          5    1    3    3  502    0  0.42047868746E+02 -0.56104256961E+02  0.66766556660E+02  0.96930769126E+02  0.47000000000E+01 0. -1.
         13    1    6    6    0    0 -0.32778612302E+02 -0.15244081579E+02  0.12639535535E+03  0.13146332303E+03  0.00000000000E+00 0. -1.
        -14    1    6    6    0    0  0.17211945040E+02  0.49519141474E+02  0.21545638425E+03  0.22174275622E+03  0.00000000000E+00 0.  1.
         -5    1    5    5    0  503 -0.57363451641E+02 -0.56131173774E+02  0.10677505451E+03  0.13365731001E+03  0.47000000000E+01 0.  1.
<mgrwt>
<rscale>  2 0.19065717E+03</rscale>
<asrwt>0</asrwt>
<pdfrwt beam="1">  1       21 0.11712522E+00 0.19116914E+03</pdfrwt>
<pdfrwt beam="2">  1       21 0.77292552E-02 0.19116914E+03</pdfrwt>
<totfact> 0.71478498E+04</totfact>
</mgrwt>
</event>
<event>
12    1  0.2769346E-001  0.1952444E+03  0.7546771E-02  0.1154250E+00
         21   -1    0    0  504  503  0.00000000000E+00  0.00000000000E+00  0.11537132004E+03  0.11537132004E+03  0.00000000000E+00 0.  1.
         21   -1    0    0  502  504 -0.00000000000E+00 -0.00000000000E+00 -0.41917218614E+03  0.41917218614E+03  0.00000000000E+00 0.  1.
          6    2    1    2  502    0  0.90703197785E+02 -0.57436063354E+01 -0.27658472483E+03  0.33741135183E+03  0.17054984969E+03 0.  0.
         24    2    3    3    0    0  0.87874120823E+02  0.32946826792E+02 -0.26853109665E+03  0.29751267743E+03  0.87163575283E+02 0.  0.
         -6    2    1    2    0  503 -0.90703197785E+02  0.57436063354E+01 -0.27216141262E+02  0.19713215435E+03  0.17280135657E+03 0.  0.
        -24    2    5    5    0    0 -0.47460247258E+02 -0.63546609989E+02 -0.27705989259E+00  0.11099917023E+03  0.77653669063E+02 0.  0.
          2    1    4    4  501    0  0.41235539398E+01  0.25895935993E+02 -0.14960365269E+03  0.15188435106E+03  0.00000000000E+00 0. -1.
         -1    1    4    4    0  501  0.83750566883E+02  0.70508907995E+01 -0.11892744396E+03  0.14562832637E+03  0.00000000000E+00 0.  1.
          5    1    3    3  502    0  0.28290769615E+01 -0.38690433128E+02 -0.80536281816E+01  0.39898674401E+02  0.47000000000E+01 0. -1.
         11    1    6    6    0    0 -0.84264722492E+01 -0.31507746926E+02 -0.36427305848E+02  0.48894704849E+02  0.00000000000E+00 0. -1.
        -12    1    6    6    0    0 -0.39033775009E+02 -0.32038863064E+02  0.36150245955E+02  0.62104465383E+02  0.00000000000E+00 0.  1.
         -5    1    5    5    0  503 -0.43242950526E+02  0.69290216325E+02 -0.26939081370E+02  0.86132984121E+02  0.47000000000E+01 0.  1.
<mgrwt>
<rscale>  2 0.19474500E+03</rscale>
<asrwt>0</asrwt>
<pdfrwt beam="1">  1       21 0.17749434E-01 0.19524438E+03</pdfrwt>
<pdfrwt beam="2">  1       21 0.64488028E-01 0.19524438E+03</pdfrwt>
<totfact> 0.63811756E+04</totfact>
</mgrwt>
</event>
<event>
12    1  0.2769346E-001  0.2080499E+03  0.7546771E-02  0.1143174E+00
         21   -1    0    0  504  503  0.00000000000E+00  0.00000000000E+00  0.39575295382E+03  0.39575295382E+03  0.00000000000E+00 0.  1.
         21   -1    0    0  502  504 -0.00000000000E+00 -0.00000000000E+00 -0.18702103144E+03  0.18702103144E+03  0.00000000000E+00 0.  1.
          6    2    1    2  502    0 -0.10330590518E+03  0.53534734613E+02 -0.83601798293E+02  0.22396517068E+03  0.17214255472E+03 0.  0.
         24    2    3    3    0    0 -0.11489956059E+03 -0.10306539090E+02 -0.42016556882E+02  0.14675413923E+03  0.80394356500E+02 0.  0.
         -6    2    1    2    0  503  0.10330590518E+03 -0.53534734613E+02  0.29233372066E+03  0.35880881458E+03  0.17247226829E+03 0.  0.
        -24    2    5    5    0    0  0.10034118905E+02 -0.24478748672E+02  0.23310439348E+03  0.24446687288E+03  0.68749552708E+02 0.  0.
          2    1    4    4  501    0 -0.12536818858E+02  0.14662638737E+02  0.17238063133E+02  0.25871134927E+02  0.00000000000E+00 0. -1.
         -1    1    4    4    0  501 -0.10236274174E+03 -0.24969177827E+02 -0.59254620015E+02  0.12088300431E+03  0.00000000000E+00 0.  1.
          5    1    3    3  502    0  0.11593655417E+02  0.63841273703E+02 -0.41585241411E+02  0.77211031447E+02  0.47000000000E+01 0. -1.
         13    1    6    6    0    0 -0.40872330936E+01 -0.46721436474E+02  0.13640857342E+03  0.14424596009E+03  0.00000000000E+00 0. -1.
        -14    1    6    6    0    0  0.14121351999E+02  0.22242687802E+02  0.96695820064E+02  0.10022091279E+03  0.00000000000E+00 0.  1.
         -5    1    5    5    0  503  0.93271786271E+02 -0.29055985941E+02  0.59229327185E+02  0.11434194170E+03  0.47000000000E+01 0.  1.
<mgrwt>
<rscale>  2 0.20798155E+03</rscale>
<asrwt>0</asrwt>
<pdfrwt beam="1">  1       21 0.60885070E-01 0.20804990E+03</pdfrwt>
<pdfrwt beam="2">  1       21 0.28772466E-01 0.20804990E+03</pdfrwt>
<totfact> 0.28774248E+04</totfact>
</mgrwt>
</event>
<event>
12    1  0.2769346E-001  0.2353254E+03  0.7546771E-02  0.1122987E+00
         21   -1    0    0  504  503  0.00000000000E+00  0.00000000000E+00  0.71831249155E+02  0.71831249155E+02  0.00000000000E+00 0.  1.
         21   -1    0    0  502  504 -0.00000000000E+00 -0.00000000000E+00 -0.11695696797E+04  0.11695696797E+04  0.00000000000E+00 0. -1.
          6    2    1    2  502    0  0.49351904873E+02 -0.15167232749E+03 -0.91177075398E+03  0.94164958444E+03  0.17302579754E+03 0.  0.
         24    2    3    3    0    0  0.39097078138E+02 -0.42410582113E+01 -0.35200989418E+03  0.36268892014E+03  0.78011019103E+02 0.  0.
         -6    2    1    2    0  503 -0.49351904873E+02  0.15167232749E+03 -0.18596767654E+03  0.29975134440E+03  0.17270433205E+03 0.  0.
        -24    2    5    5    0    0 -0.75627394211E+02  0.37667519930E+02 -0.10380440943E+03  0.15671152495E+03  0.81515653842E+02 0.  0.
          2    1    4    4  501    0  0.50120154822E+02 -0.29661712926E+02 -0.20605511498E+03  0.21412743295E+03  0.00000000000E+00 0. -1.
         -1    1    4    4    0  501 -0.11023076683E+02  0.25420654715E+02 -0.14595477920E+03  0.14856148719E+03  0.00000000000E+00 0.  1.
          5    1    3    3  502    0  0.10254826734E+02 -0.14743126927E+03 -0.55976085981E+03  0.57896066430E+03  0.47000000000E+01 0. -1.
         13    1    6    6    0    0  0.81003164455E+01  0.12829683082E+02  0.60822528399E+01  0.16346549914E+02  0.00000000000E+00 0. -1.
        -14    1    6    6    0    0 -0.83727710657E+02  0.24837836849E+02 -0.10988666227E+03  0.14036497503E+03  0.00000000000E+00 0.  1.
         -5    1    5    5    0  503  0.26275489338E+02  0.11400480756E+03 -0.82163267109E+02  0.14303981945E+03  0.47000000000E+01 0.  1.
<mgrwt>
<rscale>  2 0.23526629E+03</rscale>
<asrwt>0</asrwt>
<pdfrwt beam="1">  1       21 0.11050962E-01 0.23532537E+03</pdfrwt>
<pdfrwt beam="2">  1       21 0.17993379E+00 0.23532537E+03</pdfrwt>
<totfact> 0.12000795E+04</totfact>
</mgrwt>
</event>
<event>
12    1  0.2769346E-001  0.2035624E+03  0.7546771E-02  0.1146769E+00
         21   -1    0    0  504  503  0.00000000000E+00  0.00000000000E+00  0.17554476458E+03  0.17554476458E+03  0.00000000000E+00 0. -1.
         21   -1    0    0  502  504 -0.00000000000E+00 -0.00000000000E+00 -0.34597066484E+03  0.34597066484E+03  0.00000000000E+00 0. -1.
          6    2    1    2  502    0  0.10063407427E+03 -0.39615334838E+02 -0.23219763999E+03  0.30879347595E+03  0.17245600921E+03 0.  0.
         24    2    3    3    0    0 -0.69999050735E+01 -0.14100342031E+02 -0.15057072064E+03  0.17123936903E+03  0.80022254884E+02 0.  0.
         -6    2    1    2    0  503 -0.10063407427E+03  0.39615334838E+02  0.61771739733E+02  0.21272195347E+03  0.17244793417E+03 0.  0.
        -24    2    5    5    0    0 -0.11119399110E+03  0.81618052777E+02  0.62344353269E+02  0.16915409784E+03  0.75502849184E+02 0.  0.
          4    1    4    4  501    0 -0.92670045423E+01 -0.71214665219E-01  0.78727401858E+01  0.12159871823E+02  0.00000000000E+00 0. -1.
         -3    1    4    4    0  501  0.22670994688E+01 -0.14029127366E+02 -0.15844346082E+03  0.15907949721E+03  0.00000000000E+00 0.  1.
          5    1    3    3  502    0  0.10763397934E+03 -0.25514992807E+02 -0.81626919357E+02  0.13755410692E+03  0.47000000000E+01 0. -1.
         11    1    6    6    0    0 -0.24596907129E+02  0.64418004458E+02  0.26820590534E+02  0.73986696205E+02  0.00000000000E+00 0. -1.
        -12    1    6    6    0    0 -0.86597083976E+02  0.17200048318E+02  0.35523762735E+02  0.95167401636E+02  0.00000000000E+00 0.  1.
         -5    1    5    5    0  503  0.10559916837E+02 -0.42002717939E+02 -0.57261353554E+00  0.43567855629E+02  0.47000000000E+01 0.  1.
<mgrwt>
<rscale>  2 0.20356073E+03</rscale>
<asrwt>0</asrwt>
<pdfrwt beam="1">  1       21 0.27006887E-01 0.20356244E+03</pdfrwt>
<pdfrwt beam="2">  1       21 0.53226255E-01 0.20356244E+03</pdfrwt>
<totfact> 0.43423284E+04</totfact>
</mgrwt>
</event>
<event>
12    1  0.2769346E-001  0.2232810E+03  0.7546771E-02  0.1131610E+00
         21   -1    0    0  504  503  0.00000000000E+00  0.00000000000E+00  0.12368717010E+04  0.12368717010E+04  0.00000000000E+00 0.  1.
         21   -1    0    0  502  504 -0.00000000000E+00 -0.00000000000E+00 -0.68361913304E+02  0.68361913304E+02  0.00000000000E+00 0.  1.
          6    2    1    2  502    0 -0.13989379861E+03 -0.14864083851E+02  0.16570929979E+03  0.27805394911E+03  0.17338745831E+03 0.  0.
         24    2    3    3    0    0 -0.21758787679E+02  0.14788369203E+02  0.20366315520E+02  0.88365199158E+02  0.81862573313E+02 0.  0.
         -6    2    1    2    0  503  0.13989379861E+03  0.14864083851E+02  0.10028004879E+04  0.10271796651E+04  0.17233116425E+03 0.  0.
        -24    2    5    5    0    0  0.41180267087E+01 -0.16228100359E+02  0.36039097037E+03  0.36982598386E+03  0.81297585595E+02 0.  0.
          2    1    4    4  501    0  0.15274031893E+02 -0.10947477336E+01 -0.23976063880E+02  0.28449009860E+02  0.00000000000E+00 0. -1.
         -1    1    4    4    0  501 -0.37032819572E+02  0.15883116937E+02  0.44342379400E+02  0.59916189298E+02  0.00000000000E+00 0.  1.
          5    1    3    3  502    0 -0.11813501094E+03 -0.29652453054E+02  0.14534298427E+03  0.18968874995E+03  0.47000000000E+01 0. -1.
         13    1    6    6    0    0 -0.22535204938E+02 -0.26125031640E+02  0.31043258772E+03  0.31234395186E+03  0.00000000000E+00 0. -1.
        -14    1    6    6    0    0  0.26653231647E+02  0.98969312813E+01  0.49958382649E+02  0.57482032001E+02  0.00000000000E+00 0.  1.
         -5    1    5    5    0  503  0.13577577191E+03  0.31092184210E+02  0.64240951748E+03  0.65735368129E+03  0.47000000000E+01 0.  1.
<mgrwt>
<rscale>  2 0.22307595E+03</rscale>
<asrwt>0</asrwt>
<pdfrwt beam="1">  1       21 0.19028794E+00 0.22328105E+03</pdfrwt>
<pdfrwt beam="2">  1       21 0.10517218E-01 0.22328105E+03</pdfrwt>
<totfact> 0.11255234E+04</totfact>
</mgrwt>
</event>
<event>
12    1  0.2769346E-001  0.2449086E+03  0.7546771E-02  0.1116796E+00
         21   -1    0    0  504  503  0.00000000000E+00  0.00000000000E+00  0.15880098607E+04  0.15880098607E+04  0.00000000000E+00 0.  1.
         21   -1    0    0  502  504 -0.00000000000E+00 -0.00000000000E+00 -0.44626320682E+02  0.44626320682E+02  0.00000000000E+00 0.  1.
          6    2    1    2  502    0  0.15734670626E+03 -0.70410071611E+02  0.10985723033E+04  0.11255404523E+04  0.17396735300E+03 0.  0.
         24    2    3    3    0    0  0.17666393490E+03 -0.90722292102E+02  0.90887663403E+03  0.93372731776E+03  0.79682418734E+02 0.  0.
         -6    2    1    2    0  503 -0.15734670626E+03  0.70410071611E+02  0.44481123667E+03  0.50709572909E+03  0.17196941018E+03 0.  0.
        -24    2    5    5    0    0 -0.10861961393E+03  0.79157046028E+02  0.42637576688E+03  0.45405993331E+03  0.79435948954E+02 0.  0.
          4    1    4    4  501    0  0.25964759479E+02 -0.42404819955E+02  0.32509152608E+03  0.32887206907E+03  0.00000000000E+00 0. -1.
         -3    1    4    4    0  501  0.15069917542E+03 -0.48317472147E+02  0.58378510796E+03  0.60485524868E+03  0.00000000000E+00 0.  1.
          5    1    3    3  502    0 -0.19317228646E+02  0.20312220492E+02  0.18969566928E+03  0.19181313450E+03  0.47000000000E+01 0. -1.
         13    1    6    6    0    0  0.18407843551E+01 -0.36431221951E+01 -0.15895878253E+01  0.43803670879E+01  0.00000000000E+00 0. -1.
        -14    1    6    6    0    0 -0.11046039829E+03  0.82800168223E+02  0.42796535470E+03  0.44967956622E+03  0.00000000000E+00 0.  1.
         -5    1    5    5    0  503 -0.48727092324E+02 -0.87469744176E+01  0.18435469792E+02  0.53035795782E+02  0.47000000000E+01 0.  1.
<mgrwt>
<rscale>  2 0.24455401E+03</rscale>
<asrwt>0</asrwt>
<pdfrwt beam="1">  1       21 0.24430917E+00 0.24490856E+03</pdfrwt>
<pdfrwt beam="2">  1       21 0.68655890E-02 0.24490856E+03</pdfrwt>
<totfact> 0.10752211E+04</totfact>
</mgrwt>
</event>
<event>
12    1  0.2769346E-001  0.1902305E+03  0.7546771E-02  0.1158302E+00
         21   -1    0    0  504  503  0.00000000000E+00  0.00000000000E+00  0.12027141870E+02  0.12027141870E+02  0.00000000000E+00 0.  1.
         21   -1    0    0  502  504 -0.00000000000E+00 -0.00000000000E+00 -0.31110179015E+04  0.31110179015E+04  0.00000000000E+00 0.  1.
          6    2    1    2  502    0  0.76515872714E+02 -0.23236233303E+02 -0.18380343416E+04  0.18478522359E+04  0.17260661476E+03 0.  0.
         24    2    3    3    0    0 -0.11589242064E+02 -0.56182006493E+02 -0.96315904210E+03  0.96792223021E+03  0.76859449429E+02 0.  0.
         -6    2    1    2    0  503 -0.76515872714E+02  0.23236233303E+02 -0.12609564181E+04  0.12751928075E+04  0.17236881031E+03 0.  0.
        -24    2    5    5    0    0 -0.11687816381E+03  0.34941181573E+01 -0.85989654887E+03  0.87159650633E+03  0.81152209152E+02 0.  0.
          2    1    4    4  501    0 -0.37271044946E+02 -0.58008884243E+01 -0.47596855270E+03  0.47746083008E+03  0.00000000000E+00 0. -1.
         -1    1    4    4    0  501  0.25681802882E+02 -0.50381118069E+02 -0.48719048940E+03  0.49046140013E+03  0.00000000000E+00 0.  1.
          5    1    3    3  502    0  0.88105114778E+02  0.32945773191E+02 -0.87487529946E+03  0.87993000564E+03  0.47000000000E+01 0. -1.
         11    1    6    6    0    0 -0.66428670487E+02 -0.48839901682E+01 -0.22522455707E+03  0.23486745780E+03  0.00000000000E+00 0. -1.
        -12    1    6    6    0    0 -0.50449493325E+02  0.83781083255E+01 -0.63467199180E+03  0.63672904854E+03  0.00000000000E+00 0.  1.
         -5    1    5    5    0  503  0.40362291098E+02  0.19742115145E+02 -0.40105986921E+03  0.40359630121E+03  0.47000000000E+01 0.  1.
<mgrwt>
<rscale>  2 0.19017654E+03</rscale>
<asrwt>0</asrwt>
<pdfrwt beam="1">  1       21 0.18503292E-02 0.19023050E+03</pdfrwt>
<pdfrwt beam="2">  1       21 0.47861823E+00 0.19023050E+03</pdfrwt>
<totfact> 0.37382804E+03</totfact>
</mgrwt>
</event>
<event>
12    1  0.2769346E-001  0.1790998E+03  0.7546771E-02  0.1169225E+00
         21   -1    0    0  504  503  0.00000000000E+00  0.00000000000E+00  0.81408668656E+03  0.81408668656E+03  0.00000000000E+00 0. -1.
         21   -1    0    0  502  504 -0.00000000000E+00 -0.00000000000E+00 -0.45609001769E+02  0.45609001769E+02  0.00000000000E+00 0. -1.
          6    2    1    2  502    0  0.65798991945E+02  0.11532546353E+02  0.22158732464E+03  0.28491695372E+03  0.16617527226E+03 0.  0.
         24    2    3    3    0    0  0.92672459037E+02  0.34149549401E+02  0.10822744688E+03  0.16614715980E+03  0.78341062448E+02 0.  0.
         -6    2    1    2    0  503 -0.65798991945E+02 -0.11532546353E+02  0.54689036015E+03  0.57477873461E+03  0.16376513904E+03 0.  0.
        -24    2    5    5    0    0 -0.35115643758E+02 -0.54982894946E+02  0.21995445079E+03  0.24351059627E+03  0.81616315159E+02 0.  0.
          4    1    4    4  501    0  0.84976701980E+02 -0.57877342691E+01  0.68628211033E+02  0.10938175852E+03  0.00000000000E+00 0. -1.
         -3    1    4    4    0  501  0.76957570569E+01  0.39937283670E+02  0.39599235843E+02  0.56765401284E+02  0.00000000000E+00 0.  1.
          5    1    3    3  502    0 -0.26873467092E+02 -0.22617003048E+02  0.11335987776E+03  0.11876979392E+03  0.47000000000E+01 0. -1.
         11    1    6    6    0    0 -0.34573329741E+02 -0.50626143242E+02  0.22704216343E+03  0.23517326694E+03  0.00000000000E+00 0. -1.
        -12    1    6    6    0    0 -0.54231401707E+00 -0.43567517039E+01 -0.70877126387E+01  0.83373293296E+01  0.00000000000E+00 0.  1.
         -5    1    5    5    0  503 -0.30683348187E+02  0.43450348594E+02  0.32693590936E+03  0.33126813834E+03  0.47000000000E+01 0.  1.
<mgrwt>
<rscale>  2 0.17853866E+03</rscale>
<asrwt>0</asrwt>
<pdfrwt beam="1">  1       21 0.12524410E+00 0.17909977E+03</pdfrwt>
<pdfrwt beam="2">  1       21 0.70167701E-02 0.17909977E+03</pdfrwt>
<totfact> 0.71978073E+04</totfact>
</mgrwt>
</event>
<event>
12    1  0.2769346E-001  0.2101489E+03  0.7546771E-02  0.1143033E+00
         21   -1    0    0  504  503  0.00000000000E+00  0.00000000000E+00  0.51291378613E+03  0.51291378613E+03  0.00000000000E+00 0. -1.
         21   -1    0    0  502  504 -0.00000000000E+00 -0.00000000000E+00 -0.93473185924E+02  0.93473185924E+02  0.00000000000E+00 0. -1.
          6    2    1    2  502    0  0.92532340925E+02 -0.49850096930E+02  0.10429277197E+03  0.22759851624E+03  0.17284917132E+03 0.  0.
         24    2    3    3    0    0 -0.11804786537E+02 -0.31441761032E+02  0.80888786015E+02  0.11899400640E+03  0.80552098266E+02 0.  0.
         -6    2    1    2    0  503 -0.92532340925E+02  0.49850096930E+02  0.31514782824E+03  0.37878845582E+03  0.18197602682E+03 0.  0.
        -24    2    5    5    0    0 -0.68662134632E+02  0.10617933073E+03  0.22632580477E+03  0.27083378394E+03  0.78351959837E+02 0.  0.
          2    1    4    4  501    0 -0.31622382625E+02 -0.44212959391E+02  0.28125540054E+02  0.61202997184E+02  0.00000000000E+00 0. -1.
         -1    1    4    4    0  501  0.19817596088E+02  0.12771198359E+02  0.52763245961E+02  0.57791009219E+02  0.00000000000E+00 0.  1.
          5    1    3    3  502    0  0.10433712746E+03 -0.18408335898E+02  0.23403985955E+02  0.10860450983E+03  0.47000000000E+01 0. -1.
         13    1    6    6    0    0  0.14605304037E+02  0.16448625479E+02  0.15037782001E+02  0.26645957924E+02  0.00000000000E+00 0. -1.
        -14    1    6    6    0    0 -0.83267438669E+02  0.89730705247E+02  0.21128802277E+03  0.24418782601E+03  0.00000000000E+00 0.  1.
         -5    1    5    5    0  503 -0.23870206293E+02 -0.56329233796E+02  0.88822023466E+02  0.10795467188E+03  0.47000000000E+01 0.  1.
<mgrwt>
<rscale>  2 0.20815779E+03</rscale>
<asrwt>0</asrwt>
<pdfrwt beam="1">  1       21 0.78909811E-01 0.21014885E+03</pdfrwt>
<pdfrwt beam="2">  1       21 0.14380490E-01 0.21014885E+03</pdfrwt>
<totfact> 0.59588573E+04</totfact>
</mgrwt>
</event>
<event>
12    1  0.2769346E-001  0.2297285E+03  0.7546771E-02  0.1127394E+00
         21   -1    0    0  504  503  0.00000000000E+00  0.00000000000E+00  0.95730420245E+02  0.95730420245E+02  0.00000000000E+00 0.  1.
         21   -1    0    0  502  504 -0.00000000000E+00 -0.00000000000E+00 -0.55978237237E+03  0.55978237237E+03  0.00000000000E+00 0. -1.
          6    2    1    2  502    0 -0.22886662807E+02 -0.14520305368E+03 -0.28913753739E+03  0.36929079510E+03  0.17654305333E+03 0.  0.
         24    2    3    3    0    0 -0.84307294850E+02 -0.10022511861E+03 -0.19576238739E+03  0.24872331473E+03  0.79922341107E+02 0.  0.
         -6    2    1    2    0  503  0.22886662807E+02  0.14520305368E+03 -0.17491441473E+03  0.28622199752E+03  0.17239563002E+03 0.  0.
        -24    2    5    5    0    0  0.19131415775E+02  0.15282487621E+03 -0.19675235916E+03  0.26232262774E+03  0.79876256362E+02 0.  0.
          2    1    4    4  501    0 -0.74317602855E+01 -0.64124600581E+02 -0.11298759464E+03  0.13012836740E+03  0.00000000000E+00 0. -1.
         -1    1    4    4    0  501 -0.76875534564E+02 -0.36100518030E+02 -0.82774792751E+02  0.11859494733E+03  0.00000000000E+00 0.  1.
          5    1    3    3  502    0  0.61420632043E+02 -0.44977935072E+02 -0.93375150005E+02  0.12056748037E+03  0.47000000000E+01 0. -1.
         13    1    6    6    0    0 -0.23546542821E+02  0.60805438414E+02 -0.42937646983E+02  0.78072930956E+02  0.00000000000E+00 0. -1.
        -14    1    6    6    0    0  0.42677958596E+02  0.92019437791E+02 -0.15381471218E+03  0.18424969678E+03  0.00000000000E+00 0.  1.
         -5    1    5    5    0  503  0.37552470317E+01 -0.76218225217E+01  0.21837944432E+02  0.23899369779E+02  0.47000000000E+01 0.  1.
<mgrwt>
<rscale>  2 0.22893142E+03</rscale>
<asrwt>0</asrwt>
<pdfrwt beam="1">  1       21 0.14727757E-01 0.22972848E+03</pdfrwt>
<pdfrwt beam="2">  1       21 0.86120365E-01 0.22972848E+03</pdfrwt>
<totfact> 0.46317162E+04</totfact>
</mgrwt>
</event>
<event>
12    1  0.2769346E-001  0.2331795E+03  0.7546771E-02  0.1124528E+00
         21   -1    0    0  504  503  0.00000000000E+00  0.00000000000E+00  0.59768011825E+02  0.59768011825E+02  0.00000000000E+00 0.  1.
         21   -1    0    0  502  504 -0.00000000000E+00 -0.00000000000E+00 -0.95956022874E+03  0.95956022874E+03  0.00000000000E+00 0.  1.
          6    2    1    2  502    0  0.21349613182E+02 -0.15359346034E+03 -0.33043588070E+03  0.40407276803E+03  0.17332101305E+03 0.  0.
         24    2    3    3    0    0 -0.54545558572E+02 -0.75757139100E+02 -0.19077676294E+03  0.22702664643E+03  0.80193284166E+02 0.  0.
         -6    2    1    2    0  503 -0.21349613182E+02  0.15359346034E+03 -0.56935633621E+03  0.61525547254E+03  0.17414333710E+03 0.  0.
        -24    2    5    5    0    0  0.84651905825E+01  0.95033711551E+02 -0.17424751444E+03  0.21469182248E+03  0.81408332305E+02 0.  0.
          2    1    4    4  501    0 -0.48112861766E+02 -0.23077605724E+02 -0.15257297003E+03  0.16163518966E+03  0.00000000000E+00 0. -1.
         -1    1    4    4    0  501 -0.64326968065E+01 -0.52679533376E+02 -0.38203792906E+02  0.65391456761E+02  0.00000000000E+00 0.  1.
          5    1    3    3  502    0  0.75895171755E+02 -0.77836321244E+02 -0.13965911776E+03  0.17704612160E+03  0.47000000000E+01 0. -1.
         11    1    6    6    0    0  0.14983805858E+02  0.93144680570E+02 -0.18162602006E+03  0.20466669763E+03  0.00000000000E+00 0. -1.
        -12    1    6    6    0    0 -0.65186152759E+01  0.18890309814E+01  0.73785056168E+01  0.10025124852E+02  0.00000000000E+00 0.  1.
         -5    1    5    5    0  503 -0.29814803765E+02  0.58559748793E+02 -0.39510882177E+03  0.40056365005E+03  0.47000000000E+01 0.  1.
<mgrwt>
<rscale>  2 0.23302593E+03</rscale>
<asrwt>0</asrwt>
<pdfrwt beam="1">  1       21 0.91950786E-02 0.23317946E+03</pdfrwt>
<pdfrwt beam="2">  1       21 0.14762465E+00 0.23317946E+03</pdfrwt>
<totfact> 0.28624520E+04</totfact>
</mgrwt>
</event>
<event>
12    1  0.2769346E-001  0.2169946E+03  0.7546771E-02  0.1136197E+00
         21   -1    0    0  504  503  0.00000000000E+00  0.00000000000E+00  0.15567795651E+03  0.15567795651E+03  0.00000000000E+00 0. -1.
         21   -1    0    0  502  504 -0.00000000000E+00 -0.00000000000E+00 -0.36609823378E+03  0.36609823378E+03  0.00000000000E+00 0. -1.
          6    2    1    2  502    0  0.13023561998E+03 -0.18309467224E+02  0.39517033162E+01  0.21674831125E+03  0.17224302938E+03 0.  0.
         24    2    3    3    0    0  0.38354751463E+02 -0.64497939513E+02  0.20415334535E+02  0.11249568479E+03  0.81286050774E+02 0.  0.
         -6    2    1    2    0  503 -0.13023561998E+03  0.18309467224E+02 -0.21437198059E+03  0.30502787904E+03  0.17259811015E+03 0.  0.
        -24    2    5    5    0    0 -0.12906974507E+03  0.36193948374E+02 -0.91600242903E+02  0.18086587396E+03  0.79704823390E+02 0.  0.
          4    1    4    4  501    0  0.52019385762E+02 -0.76216907167E+02  0.13729910107E+02  0.93292785705E+02  0.00000000000E+00 0. -1.
         -3    1    4    4    0  501 -0.13664634298E+02  0.11718967654E+02  0.66854244273E+01  0.19202899082E+02  0.00000000000E+00 0.  1.
          5    1    3    3  502    0  0.91880868518E+02  0.46188472289E+02 -0.16463631218E+02  0.10425262647E+03  0.47000000000E+01 0. -1.
         13    1    6    6    0    0 -0.48088835979E+02 -0.36518044060E+01  0.52136912080E+01  0.48508292046E+02  0.00000000000E+00 0. -1.
        -14    1    6    6    0    0 -0.80980909095E+02  0.39845752780E+02 -0.96813934111E+02  0.13235758192E+03  0.00000000000E+00 0.  1.
         -5    1    5    5    0  503 -0.11658749080E+01 -0.17884481151E+02 -0.12277173769E+03  0.12416200508E+03  0.47000000000E+01 0.  1.
<mgrwt>
<rscale>  2 0.21692399E+03</rscale>
<asrwt>0</asrwt>
<pdfrwt beam="1">  1       21 0.23950455E-01 0.21699461E+03</pdfrwt>
<pdfrwt beam="2">  1       21 0.56322805E-01 0.21699461E+03</pdfrwt>
<totfact> 0.48178886E+04</totfact>
</mgrwt>
</event>
<event>
12    1  0.2769346E-001  0.2189963E+03  0.7546771E-02  0.1135698E+00
         21   -1    0    0  504  503  0.00000000000E+00  0.00000000000E+00  0.12185702853E+03  0.12185702853E+03  0.00000000000E+00 0.  1.
         21   -1    0    0  502  504 -0.00000000000E+00 -0.00000000000E+00 -0.93911648053E+03  0.93911648053E+03  0.00000000000E+00 0.  1.
          6    2    1    2  502    0 -0.10039131382E+03  0.87724910328E+02 -0.81879013360E+03  0.84757103139E+03  0.17373915671E+03 0.  0.
         24    2    3    3    0    0 -0.82447562710E+02 -0.12822298004E+02 -0.49792988996E+03  0.51081428645E+03  0.77685571409E+02 0.  0.
         -6    2    1    2    0  503  0.10039131382E+03 -0.87724910328E+02  0.15306816085E+01  0.21340247767E+03  0.16662592448E+03 0.  0.
        -24    2    5    5    0    0  0.11595233708E+03 -0.19279606555E+02  0.10612021323E+01  0.14305181695E+03  0.81523300226E+02 0.  0.
          4    1    4    4  501    0 -0.31409834322E+02 -0.42353423887E+02 -0.28669644411E+03  0.29150513078E+03  0.00000000000E+00 0. -1.
         -3    1    4    4    0  501 -0.51037728389E+02  0.29531125883E+02 -0.21123344585E+03  0.21930915567E+03  0.00000000000E+00 0.  1.
          5    1    3    3  502    0 -0.17943751108E+02  0.10054720833E+03 -0.32086024365E+03  0.33675674494E+03  0.47000000000E+01 0. -1.
         13    1    6    6    0    0 -0.62581889885E+01  0.14844294112E+02 -0.11133325994E+01  0.16147987695E+02  0.00000000000E+00 0. -1.
        -14    1    6    6    0    0  0.12221052606E+03 -0.34123900668E+02  0.21745347317E+01  0.12690382925E+03  0.00000000000E+00 0.  1.
         -5    1    5    5    0  503 -0.15561023257E+02 -0.68445303773E+02  0.46947947618E+00  0.70350660724E+02  0.47000000000E+01 0.  1.
<mgrwt>
<rscale>  2 0.21758283E+03</rscale>
<asrwt>0</asrwt>
<pdfrwt beam="1">  1       21 0.18747234E-01 0.21899628E+03</pdfrwt>
<pdfrwt beam="2">  1       21 0.14447947E+00 0.21899628E+03</pdfrwt>
<totfact> 0.84190642E+03</totfact>
</mgrwt>
</event>
<event>
12    1  0.2769346E-001  0.2113277E+03  0.7546771E-02  0.1140693E+00
         21   -1    0    0  504  503  0.00000000000E+00  0.00000000000E+00  0.14850706098E+03  0.14850706098E+03  0.00000000000E+00 0. -1.
         21   -1    0    0  502  504 -0.00000000000E+00 -0.00000000000E+00 -0.46647849661E+03  0.46647849661E+03  0.00000000000E+00 0.  1.
          6    2    1    2  502    0  0.11482839624E+03 -0.35010565419E+02 -0.34318992037E+03  0.40303689153E+03  0.17391984997E+03 0.  0.
         24    2    3    3    0    0  0.30111114883E+02  0.38728222413E+02 -0.19706164099E+03  0.21867314610E+03  0.81105487030E+02 0.  0.
         -6    2    1    2    0  503 -0.11482839624E+03  0.35010565419E+02  0.25218484737E+02  0.21194866606E+03  0.17284375835E+03 0.  0.
        -24    2    5    5    0    0  0.63062268248E+01  0.26959076448E+02  0.29340160187E+02  0.90385918534E+02  0.80883922813E+02 0.  0.
          2    1    4    4  501    0 -0.23748645197E+02  0.31188274549E+02 -0.65817045715E+02  0.76606723756E+02  0.00000000000E+00 0. -1.
         -1    1    4    4    0  501  0.53859760080E+02  0.75399478641E+01 -0.13124459528E+03  0.14206642235E+03  0.00000000000E+00 0.  1.
          5    1    3    3  502    0  0.84717281353E+02 -0.73738787832E+02 -0.14612827938E+03  0.18436374542E+03  0.47000000000E+01 0. -1.
         13    1    6    6    0    0 -0.34623795776E+01 -0.18966426475E+02  0.38027837486E+02  0.42636015638E+02  0.00000000000E+00 0. -1.
        -14    1    6    6    0    0  0.97686064024E+01  0.45925502922E+02 -0.86876772995E+01  0.47749902896E+02  0.00000000000E+00 0.  1.
         -5    1    5    5    0  503 -0.12113462306E+03  0.80514889711E+01 -0.41216754496E+01  0.12156274753E+03  0.47000000000E+01 0.  1.
<mgrwt>
<rscale>  2 0.21110621E+03</rscale>
<asrwt>0</asrwt>
<pdfrwt beam="1">  1       21 0.22847240E-01 0.21132774E+03</pdfrwt>
<pdfrwt beam="2">  1       21 0.71765923E-01 0.21132774E+03</pdfrwt>
<totfact> 0.31200501E+04</totfact>
</mgrwt>
</event>
<event>
12    1  0.2769346E-001  0.2503028E+03  0.7546771E-02  0.1113240E+00
         21   -1    0    0  504  503  0.00000000000E+00  0.00000000000E+00  0.87605576358E+02  0.87605576358E+02  0.00000000000E+00 0. -1.
         21   -1    0    0  502  504 -0.00000000000E+00 -0.00000000000E+00 -0.71338379263E+03  0.71338379263E+03  0.00000000000E+00 0. -1.
          6    2    1    2  502    0 -0.17034558592E+03 -0.61100791212E+02 -0.32314145683E+03  0.40825472245E+03  0.17175736359E+03 0.  0.
         24    2    3    3    0    0 -0.43641630018E+02 -0.33166450524E+02 -0.57927008377E+02  0.11296670457E+03  0.80008329135E+02 0.  0.
         -6    2    1    2    0  503  0.17034558592E+03  0.61100791212E+02 -0.30263675944E+03  0.39273464654E+03  0.17291781024E+03 0.  0.
        -24    2    5    5    0    0  0.18315141788E+03  0.52441384205E+02 -0.20189877778E+03  0.29070913203E+03  0.86337375050E+02 0.  0.
          4    1    4    4  501    0 -0.44562917898E+02  0.22960959168E+01  0.48694703216E+00  0.44624688519E+02  0.00000000000E+00 0. -1.
         -3    1    4    4    0  501  0.92128787978E+00 -0.35462546440E+02 -0.58413955410E+02  0.68342016051E+02  0.00000000000E+00 0.  1.
          5    1    3    3  502    0 -0.12670395591E+03 -0.27934340688E+02 -0.26521444846E+03  0.29528801788E+03  0.47000000000E+01 0. -1.
         11    1    6    6    0    0  0.10375852726E+03  0.38911342789E+02 -0.17239222604E+03  0.20493658574E+03  0.00000000000E+00 0. -1.
        -12    1    6    6    0    0  0.79392890618E+02  0.13530041416E+02 -0.29506551737E+02  0.85772546289E+02  0.00000000000E+00 0.  1.
         -5    1    5    5    0  503 -0.12805831951E+02  0.86594070066E+01 -0.10073798166E+03  0.10202551451E+03  0.47000000000E+01 0.  1.
<mgrwt>
<rscale>  2 0.25010250E+03</rscale>
<asrwt>0</asrwt>
<pdfrwt beam="1">  1       21 0.13477781E-01 0.25030281E+03</pdfrwt>
<pdfrwt beam="2">  1       21 0.10975136E+00 0.25030281E+03</pdfrwt>
<totfact> 0.30341278E+04</totfact>
</mgrwt>
</event>
<event>
12    1  0.2769346E-001  0.2045882E+03  0.7546771E-02  0.1146926E+00
         21   -1    0    0  504  503  0.00000000000E+00  0.00000000000E+00  0.73055495200E+03  0.73055495200E+03  0.00000000000E+00 0. -1.
         21   -1    0    0  502  504 -0.00000000000E+00 -0.00000000000E+00 -0.66183385697E+02  0.66183385697E+02  0.00000000000E+00 0. -1.
          6    2    1    2  502    0  0.10383192234E+03  0.15490165643E+02  0.17890020043E+03  0.27177491526E+03  0.17559985626E+03 0.  0.
         24    2    3    3    0    0  0.47079598689E+02  0.73593481529E+02  0.76843843437E+02  0.14125897156E+03  0.80103880271E+02 0.  0.
         -6    2    1    2    0  503 -0.10383192234E+03 -0.15490165643E+02  0.48547136587E+03  0.52496342244E+03  0.16995038833E+03 0.  0.
        -24    2    5    5    0    0 -0.12441370381E+03 -0.16844771694E+02  0.48073974527E+03  0.50328571685E+03  0.80145455720E+02 0.  0.
          2    1    4    4  501    0  0.64302331421E+02  0.76802538715E+02  0.71049141270E+02  0.12280635266E+03  0.00000000000E+00 0. -1.
         -1    1    4    4    0  501 -0.17222732732E+02 -0.32090571863E+01  0.57947021677E+01  0.18452618892E+02  0.00000000000E+00 0.  1.
          5    1    3    3  502    0  0.56752323652E+02 -0.58103315885E+02  0.10205635700E+03  0.13051594370E+03  0.47000000000E+01 0. -1.
         13    1    6    6    0    0 -0.84600322850E+02  0.10306824357E+02  0.18553153134E+03  0.20417001341E+03  0.00000000000E+00 0. -1.
        -14    1    6    6    0    0 -0.39813380961E+02 -0.27151596051E+02  0.29520821394E+03  0.29911570344E+03  0.00000000000E+00 0.  1.
         -5    1    5    5    0  503  0.20581781470E+02  0.13546060502E+01  0.47316205938E+01  0.21677705586E+02  0.47000000000E+01 0.  1.
<mgrwt>
<rscale>  2 0.20337036E+03</rscale>
<asrwt>0</asrwt>
<pdfrwt beam="1">  1       21 0.11239306E+00 0.20458818E+03</pdfrwt>
<pdfrwt beam="2">  1       21 0.10182060E-01 0.20458818E+03</pdfrwt>
<totfact> 0.48417449E+04</totfact>
</mgrwt>
</event>
<event>
12    1  0.2769346E-001  0.2064437E+03  0.7546771E-02  0.1144476E+00
         21   -1    0    0  504  503  0.00000000000E+00  0.00000000000E+00  0.24481348300E+03  0.24481348300E+03  0.00000000000E+00 0.  1.
         21   -1    0    0  502  504 -0.00000000000E+00 -0.00000000000E+00 -0.69968826069E+03  0.69968826069E+03  0.00000000000E+00 0.  1.
          6    2    1    2  502    0  0.73950943002E+02  0.87071320342E+02 -0.63688588330E+03  0.66950923595E+03  0.17195590100E+03 0.  0.
         24    2    3    3    0    0  0.76982761616E+02  0.12501149110E+03 -0.55594745307E+03  0.57994491287E+03  0.75526901810E+02 0.  0.
         -6    2    1    2    0  503 -0.73950943002E+02 -0.87071320342E+02  0.18201110561E+03  0.27499250774E+03  0.17158869413E+03 0.  0.
        -24    2    5    5    0    0  0.27082338579E+02 -0.15534791700E+02  0.81766847990E+02  0.11563065502E+03  0.75563537067E+02 0.  0.
          4    1    4    4  501    0 -0.23816282745E+01  0.40107974917E+02 -0.23915075768E+03  0.24250238494E+03  0.00000000000E+00 0. -1.
         -3    1    4    4    0  501  0.79364389890E+02  0.84903516187E+02 -0.31679669539E+03  0.33744252792E+03  0.00000000000E+00 0.  1.
          5    1    3    3  502    0 -0.30318186137E+01 -0.37940170762E+02 -0.80938430230E+02  0.89564323085E+02  0.47000000000E+01 0. -1.
         13    1    6    6    0    0  0.23027536629E+02  0.14967292029E+02 -0.84195451650E+00  0.27477193476E+02  0.00000000000E+00 0. -1.
        -14    1    6    6    0    0  0.40548019496E+01 -0.30502083729E+02  0.82608802506E+02  0.88153461544E+02  0.00000000000E+00 0.  1.
         -5    1    5    5    0  503 -0.10103328158E+03 -0.71536528642E+02  0.10024425762E+03  0.15936185272E+03  0.47000000000E+01 0.  1.
<mgrwt>
<rscale>  2 0.20636719E+03</rscale>
<asrwt>0</asrwt>
<pdfrwt beam="1">  1       21 0.37663613E-01 0.20644367E+03</pdfrwt>
<pdfrwt beam="2">  1       21 0.10764435E+00 0.20644367E+03</pdfrwt>
<totfact> 0.46273088E+03</totfact>
</mgrwt>
</event>
<event>
12    1  0.2769346E-001  0.2176889E+03  0.7546771E-02  0.1135786E+00
         21   -1    0    0  504  503  0.00000000000E+00  0.00000000000E+00  0.48206623185E+03  0.48206623185E+03  0.00000000000E+00 0.  1.
         21   -1    0    0  502  504 -0.00000000000E+00 -0.00000000000E+00 -0.14062525150E+03  0.14062525150E+03  0.00000000000E+00 0. -1.
          6    2    1    2  502    0 -0.86297420166E+02 -0.10084915175E+03 -0.11297374062E+01  0.21680584847E+03  0.17142258745E+03 0.  0.
         24    2    3    3    0    0 -0.77222073444E+01 -0.11059781560E+03  0.11710643592E+02  0.13645620067E+03  0.78687014356E+02 0.  0.
         -6    2    1    2    0  503  0.86297420166E+02  0.10084915175E+03  0.34257071775E+03  0.40588563488E+03  0.17254175090E+03 0.  0.
        -24    2    5    5    0    0  0.11609674638E+03  0.10267831804E+03  0.22718593086E+03  0.28660829110E+03  0.80681930005E+02 0.  0.
          4    1    4    4  501    0  0.33212762192E+02 -0.43094207512E+02 -0.82414386377E+01  0.55028352731E+02  0.00000000000E+00 0. -1.
         -3    1    4    4    0  501 -0.40934969536E+02 -0.67503608083E+02  0.19952082230E+02  0.81427847942E+02  0.00000000000E+00 0.  1.
          5    1    3    3  502    0 -0.78575212822E+02  0.97486638438E+01 -0.12840380998E+02  0.80349647796E+02  0.47000000000E+01 0. -1.
         11    1    6    6    0    0  0.18466463613E+02  0.22243780942E+02  0.28295797791E+01  0.29048280340E+02  0.00000000000E+00 0. -1.
        -12    1    6    6    0    0  0.97630282770E+02  0.80434537103E+02  0.22435635108E+03  0.25756001076E+03  0.00000000000E+00 0.  1.
         -5    1    5    5    0  503 -0.29799326217E+02 -0.18291662929E+01  0.11538478690E+03  0.11927734378E+03  0.47000000000E+01 0.  1.
<mgrwt>
<rscale>  2 0.21746705E+03</rscale>
<asrwt>0</asrwt>
<pdfrwt beam="1">  1       21 0.74164035E-01 0.21768889E+03</pdfrwt>
<pdfrwt beam="2">  1       21 0.21634654E-01 0.21768889E+03</pdfrwt>
<totfact> 0.32042801E+04</totfact>
</mgrwt>
</event>
<event>
12    1  0.2769346E-001  0.2020626E+03  0.7546771E-02  0.1151834E+00
         21   -1    0    0  504  503  0.00000000000E+00  0.00000000000E+00  0.20201423434E+03  0.20201423434E+03  0.00000000000E+00 0.  1.
         21   -1    0    0  502  504 -0.00000000000E+00 -0.00000000000E+00 -0.66147778710E+03  0.66147778710E+03  0.00000000000E+00 0.  1.
          6    2    1    2  502    0  0.64174200117E+02 -0.19483524881E+02 -0.59315567835E+03  0.62120526547E+03  0.17194297717E+03 0.  0.
         24    2    3    3    0    0 -0.24162613512E+02 -0.26100327796E+02 -0.38053774827E+03  0.39082373646E+03  0.81664901376E+02 0.  0.
         -6    2    1    2    0  503 -0.64174200117E+02  0.19483524881E+02  0.13369212558E+03  0.24228675597E+03  0.19060784866E+03 0.  0.
        -24    2    5    5    0    0 -0.16750503982E+02 -0.14797729190E+02  0.15894814451E+03  0.17837926167E+03  0.77814498494E+02 0.  0.
          2    1    4    4  501    0 -0.30450120061E+02  0.12915122823E+02 -0.29199185590E+03  0.29385924202E+03  0.00000000000E+00 0. -1.
         -1    1    4    4    0  501  0.62875065488E+01 -0.39015450618E+02 -0.88545892369E+02  0.96964494435E+02  0.00000000000E+00 0.  1.
          5    1    3    3  502    0  0.88336813629E+02  0.66168029150E+01 -0.21261793007E+03  0.23038152902E+03  0.47000000000E+01 0. -1.
         13    1    6    6    0    0  0.97157442876E+01 -0.10766706800E+02  0.14917715831E+03  0.14988042642E+03  0.00000000000E+00 0. -1.
        -14    1    6    6    0    0 -0.26466248269E+02 -0.40310223900E+01  0.97709862001E+01  0.28498835244E+02  0.00000000000E+00 0.  1.
         -5    1    5    5    0  503 -0.47423696135E+02  0.34281254071E+02 -0.25256018927E+02  0.63907494301E+02  0.47000000000E+01 0.  1.
<mgrwt>
<rscale>  2 0.19753712E+03</rscale>
<asrwt>0</asrwt>
<pdfrwt beam="1">  1       21 0.31079114E-01 0.20206258E+03</pdfrwt>
<pdfrwt beam="2">  1       21 0.10176581E+00 0.20206258E+03</pdfrwt>
<totfact> 0.77773369E+03</totfact>
</mgrwt>
</event>
<event>
12    1  0.2769346E-001  0.1801665E+03  0.7546771E-02  0.1167790E+00
         21   -1    0    0  504  503  0.00000000000E+00  0.00000000000E+00  0.22421479611E+03  0.22421479611E+03  0.00000000000E+00 0.  1.
         21   -1    0    0  502  504 -0.00000000000E+00 -0.00000000000E+00 -0.14534073359E+03  0.14534073359E+03  0.00000000000E+00 0.  1.
          6    2    1    2  502    0 -0.39620140897E+02 -0.33560210563E+02  0.23591823182E+02  0.18109838602E+03  0.17188370487E+03 0.  0.
         24    2    3    3    0    0 -0.72980327329E+02 -0.68539597122E+02  0.13222776242E+02  0.13143887880E+03  0.84128071998E+02 0.  0.
         -6    2    1    2    0  503  0.39620140897E+02  0.33560210563E+02  0.55282239347E+02  0.18845714368E+03  0.17252224703E+03 0.  0.
        -24    2    5    5    0    0 -0.21150041706E+02 -0.10769410165E+02 -0.15211713841E+02  0.85260158242E+02  0.80464861188E+02 0.  0.
          4    1    4    4  501    0 -0.23715148307E+02 -0.58526996708E+02 -0.25376671101E+02  0.68057277634E+02  0.00000000000E+00 0. -1.
         -3    1    4    4    0  501 -0.49265179022E+02 -0.10012600414E+02  0.38599447343E+02  0.63381601166E+02  0.00000000000E+00 0.  1.
          5    1    3    3  502    0  0.33360186432E+02  0.34979386559E+02  0.10369046940E+02  0.49659507220E+02  0.47000000000E+01 0. -1.
         11    1    6    6    0    0 -0.16957341402E+02 -0.17859994437E+02  0.30278742863E+02  0.39029900052E+02  0.00000000000E+00 0. -1.
        -12    1    6    6    0    0 -0.41927003039E+01  0.70905842719E+01 -0.45490456704E+02  0.46230258190E+02  0.00000000000E+00 0.  1.
         -5    1    5    5    0  503  0.60770182603E+02  0.44329620728E+02  0.70493953188E+02  0.10319698544E+03  0.47000000000E+01 0.  1.
<mgrwt>
<rscale>  2 0.18001347E+03</rscale>
<asrwt>0</asrwt>
<pdfrwt beam="1">  1       21 0.34494584E-01 0.18016650E+03</pdfrwt>
<pdfrwt beam="2">  1       21 0.22360113E-01 0.18016650E+03</pdfrwt>
<totfact> 0.15223861E+05</totfact>
</mgrwt>
</event>
<event>
12    1  0.2769346E-001  0.1992233E+03  0.7546771E-02  0.1150744E+00
         21   -1    0    0  504  503  0.00000000000E+00  0.00000000000E+00  0.43223552035E+03  0.43223552035E+03  0.00000000000E+00 0.  1.
         21   -1    0    0  502  504 -0.00000000000E+00 -0.00000000000E+00 -0.16779084321E+03  0.16779084321E+03  0.00000000000E+00 0.  1.
          6    2    1    2  502    0 -0.85961032419E+02  0.42402690407E+02 -0.70344856991E+02  0.21127780144E+03  0.17465000208E+03 0.  0.
         24    2    3    3    0    0 -0.11133592847E+03  0.62993964466E+02 -0.86746109015E+02  0.17441349641E+03  0.80816160352E+02 0.  0.
         -6    2    1    2    0  503  0.85961032419E+02 -0.42402690407E+02  0.33478953413E+03  0.38874856212E+03  0.17278346317E+03 0.  0.
        -24    2    5    5    0    0  0.85036738247E+02 -0.90493456589E+02  0.25910413436E+03  0.29894908634E+03  0.82554777265E+02 0.  0.
          4    1    4    4  501    0 -0.54930277736E+02  0.73011169301E+02 -0.37120113874E+02  0.98619821075E+02  0.00000000000E+00 0. -1.
         -3    1    4    4    0  501 -0.56405650736E+02 -0.10017204835E+02 -0.49625995141E+02  0.75793675339E+02  0.00000000000E+00 0.  1.
          5    1    3    3  502    0  0.25374896053E+02 -0.20591274059E+02  0.16401252024E+02  0.36864305026E+02  0.47000000000E+01 0. -1.
         11    1    6    6    0    0 -0.58329312546E+01  0.99793959696E+01  0.95409105546E+01  0.14988008712E+02  0.00000000000E+00 0. -1.
        -12    1    6    6    0    0  0.90869669502E+02 -0.10047285256E+03  0.24956322380E+03  0.28396107763E+03  0.00000000000E+00 0.  1.
         -5    1    5    5    0  503  0.92429417171E+00  0.48090766183E+02  0.75685399770E+02  0.89799475778E+02  0.47000000000E+01 0.  1.
<mgrwt>
<rscale>  2 0.19881344E+03</rscale>
<asrwt>0</asrwt>
<pdfrwt beam="1">  1       21 0.66497772E-01 0.19922327E+03</pdfrwt>
<pdfrwt beam="2">  1       21 0.25813976E-01 0.19922327E+03</pdfrwt>
<totfact> 0.29437349E+04</totfact>
</mgrwt>
</event>
<event>
12    1  0.2769346E-001  0.2120685E+03  0.7546771E-02  0.1140106E+00
         21   -1    0    0  504  503  0.00000000000E+00  0.00000000000E+00  0.93307732210E+02  0.93307732210E+02  0.00000000000E+00 0.  1.
         21   -1    0    0  502  504 -0.00000000000E+00 -0.00000000000E+00 -0.57694400909E+03  0.57694400909E+03  0.00000000000E+00 0.  1.
          6    2    1    2  502    0  0.11490933990E+03  0.39520124912E+02 -0.37957148124E+03  0.43479597717E+03  0.17380171380E+03 0.  0.
         24    2    3    3    0    0  0.84105745077E+02 -0.22487081778E+02 -0.13175328330E+03  0.17744465238E+03  0.80921145553E+02 0.  0.
         -6    2    1    2    0  503 -0.11490933990E+03 -0.39520124912E+02 -0.10406479563E+03  0.23545576413E+03  0.17275398259E+03 0.  0.
        -24    2    5    5    0    0 -0.41102826198E+02  0.37973527286E+02 -0.78705409193E+02  0.12537463007E+03  0.79955145753E+02 0.  0.
          4    1    4    4  501    0  0.40415733020E+02 -0.39598094401E+02 -0.11401464505E+03  0.12728228408E+03  0.00000000000E+00 0. -1.
         -3    1    4    4    0  501  0.43690012058E+02  0.17111012623E+02 -0.17738638249E+02  0.50162368300E+02  0.00000000000E+00 0.  1.
          5    1    3    3  502    0  0.30803594820E+02  0.62007206690E+02 -0.24781819795E+03  0.25735132478E+03  0.47000000000E+01 0. -1.
         11    1    6    6    0    0  0.17588484100E+02 -0.86801326055E+01 -0.30425570086E+02  0.36199651795E+02  0.00000000000E+00 0. -1.
        -12    1    6    6    0    0 -0.58691310298E+02  0.46653659891E+02 -0.48279839107E+02  0.89174978273E+02  0.00000000000E+00 0.  1.
         -5    1    5    5    0  503 -0.73806513699E+02 -0.77493652198E+02 -0.25359386440E+02  0.11008113406E+03  0.47000000000E+01 0.  1.
<mgrwt>
<rscale>  2 0.21185368E+03</rscale>
<asrwt>0</asrwt>
<pdfrwt beam="1">  1       21 0.14355036E-01 0.21206846E+03</pdfrwt>
<pdfrwt beam="2">  1       21 0.88760617E-01 0.21206846E+03</pdfrwt>
<totfact> 0.45640847E+04</totfact>
</mgrwt>
</event>
<event>
12    1  0.2769346E-001  0.2544621E+03  0.7546771E-02  0.1110548E+00
         21   -1    0    0  504  503  0.00000000000E+00  0.00000000000E+00  0.89352947301E+02  0.89352947301E+02  0.00000000000E+00 0. -1.
         21   -1    0    0  502  504 -0.00000000000E+00 -0.00000000000E+00 -0.72634465307E+03  0.72634465307E+03  0.00000000000E+00 0. -1.
          6    2    1    2  502    0 -0.14808473065E+02 -0.18489716642E+03 -0.29568622106E+03  0.38997424513E+03  0.17390605947E+03 0.  0.
         24    2    3    3    0    0  0.14398186304E+02 -0.92273052110E+02 -0.25512503919E+03  0.28461981961E+03  0.84841217450E+02 0.  0.
         -6    2    1    2    0  503  0.14808473065E+02  0.18489716642E+03 -0.34130548472E+03  0.42572335524E+03  0.17419726828E+03 0.  0.
        -24    2    5    5    0    0  0.66193991122E+02  0.63721803455E+02 -0.14688656660E+03  0.19089417099E+03  0.80142425549E+02 0.  0.
          4    1    4    4  501    0  0.39274449571E+02 -0.60670026729E+02 -0.94118924100E+02  0.11866636594E+03  0.00000000000E+00 0. -1.
         -3    1    4    4    0  501 -0.24876263267E+02 -0.31603025380E+02 -0.16100611509E+03  0.16595345367E+03  0.00000000000E+00 0.  1.
          5    1    3    3  502    0 -0.29206659368E+02 -0.92624114309E+02 -0.40561181863E+02  0.10535442552E+03  0.47000000000E+01 0. -1.
         13    1    6    6    0    0  0.24007594762E+02  0.63461592530E+02 -0.12757698375E+03  0.14449783776E+03  0.00000000000E+00 0. -1.
        -14    1    6    6    0    0  0.42186396361E+02  0.26021092513E+00 -0.19309582850E+02  0.46396333233E+02  0.00000000000E+00 0.  1.
         -5    1    5    5    0  503 -0.51385518058E+02  0.12117536296E+03 -0.19441891811E+03  0.23482918425E+03  0.47000000000E+01 0.  1.
<mgrwt>
<rscale>  2 0.25441223E+03</rscale>
<asrwt>0</asrwt>
<pdfrwt beam="1">  1       21 0.13746608E-01 0.25446206E+03</pdfrwt>
<pdfrwt beam="2">  1       21 0.11174533E+00 0.25446206E+03</pdfrwt>
<totfact> 0.27957246E+04</totfact>
</mgrwt>
</event>
<event>
12    1  0.2769346E-001  0.2906322E+03  0.7546771E-02  0.1090217E+00
         21   -1    0    0  504  503  0.00000000000E+00  0.00000000000E+00  0.57796785106E+02  0.57796785106E+02  0.00000000000E+00 0.  1.
         21   -1    0    0  502  504 -0.00000000000E+00 -0.00000000000E+00 -0.22453396660E+04  0.22453396660E+04  0.00000000000E+00 0. -1.
          6    2    1    2  502    0 -0.18455864887E+03 -0.14026647353E+03 -0.17793380689E+04  0.18029173750E+04  0.17530122500E+03 0.  0.
         24    2    3    3    0    0 -0.76809298443E+02 -0.12326520232E+03 -0.13409336258E+04  0.13511215014E+04  0.79576028710E+02 0.  0.
         -6    2    1    2    0  503  0.18455864887E+03  0.14026647353E+03 -0.40820481201E+03  0.50021907603E+03  0.17277551045E+03 0.  0.
        -24    2    5    5    0    0  0.67864034172E+02  0.10863095123E+03 -0.30618216560E+03  0.34194984418E+03  0.82316260258E+02 0.  0.
          2    1    4    4  501    0 -0.90268731819E+02 -0.12225409180E+03 -0.12459701711E+04  0.12552036385E+04  0.00000000000E+00 0. -1.
         -1    1    4    4    0  501  0.13459433376E+02 -0.10111105155E+01 -0.94963454724E+02  0.95917862906E+02  0.00000000000E+00 0.  1.
          5    1    3    3  502    0 -0.10774935043E+03 -0.17001271214E+02 -0.43840444305E+03  0.45179587362E+03  0.47000000000E+01 0. -1.
         13    1    6    6    0    0  0.60575273228E+02  0.12053658685E+03 -0.29379734231E+03  0.32328827824E+03  0.00000000000E+00 0. -1.
        -14    1    6    6    0    0  0.72887609444E+01 -0.11905635618E+02 -0.12384823292E+02  0.18661565945E+02  0.00000000000E+00 0.  1.
         -5    1    5    5    0  503  0.11669461470E+03  0.31635522299E+02 -0.10202264640E+03  0.15826923185E+03  0.47000000000E+01 0.  1.
<mgrwt>
<rscale>  2 0.29025239E+03</rscale>
<asrwt>0</asrwt>
<pdfrwt beam="1">  1       21 0.88918140E-02 0.29063224E+03</pdfrwt>
<pdfrwt beam="2">  1       21 0.34543683E+00 0.29063224E+03</pdfrwt>
<totfact> 0.16636734E+03</totfact>
</mgrwt>
</event>
<event>
12    1  0.2769346E-001  0.2009543E+03  0.7546771E-02  0.1149087E+00
         21   -1    0    0  504  503  0.00000000000E+00  0.00000000000E+00  0.58159097361E+02  0.58159097361E+02  0.00000000000E+00 0. -1.
         21   -1    0    0  502  504 -0.00000000000E+00 -0.00000000000E+00 -0.80262890629E+03  0.80262890629E+03  0.00000000000E+00 0.  1.
          6    2    1    2  502    0 -0.10129750341E+03 -0.68081947884E+01 -0.53154233727E+03  0.56800696536E+03  0.17258945701E+03 0.  0.
         24    2    3    3    0    0 -0.13835667053E+03 -0.12872348688E+02 -0.46101087542E+03  0.48796364621E+03  0.79178451130E+02 0.  0.
         -6    2    1    2    0  503  0.10129750341E+03  0.68081947884E+01 -0.21292747165E+03  0.29278103829E+03  0.17342171860E+03 0.  0.
        -24    2    5    5    0    0  0.88537254383E+02  0.51411533478E+02 -0.81582982822E+02  0.15340476153E+03  0.79970285634E+02 0.  0.
          4    1    4    4  501    0 -0.26864242050E+02 -0.34687669306E+02 -0.93261061387E+02  0.10306574345E+03  0.00000000000E+00 0. -1.
         -3    1    4    4    0  501 -0.11149242848E+03  0.21815320618E+02 -0.36774981403E+03  0.38489790275E+03  0.00000000000E+00 0.  1.
          5    1    3    3  502    0  0.37059167119E+02  0.60641539000E+01 -0.70531461854E+02  0.80043319155E+02  0.47000000000E+01 0. -1.
         11    1    6    6    0    0 -0.75226145292E+01  0.24235908696E+02 -0.35025147159E+02  0.43251935601E+02  0.00000000000E+00 0. -1.
        -12    1    6    6    0    0  0.96059868912E+02  0.27175624782E+02 -0.46557835663E+02  0.11015282593E+03  0.00000000000E+00 0.  1.
         -5    1    5    5    0  503  0.12760249029E+02 -0.44603338689E+02 -0.13134448883E+03  0.13937627676E+03  0.47000000000E+01 0.  1.
<mgrwt>
<rscale>  2 0.20077460E+03</rscale>
<asrwt>0</asrwt>
<pdfrwt beam="1">  1       21 0.89475538E-02 0.20095429E+03</pdfrwt>
<pdfrwt beam="2">  1       21 0.12348137E+00 0.20095429E+03</pdfrwt>
<totfact> 0.48320564E+04</totfact>
</mgrwt>
</event>
<event>
12    1  0.2769346E-001  0.1867378E+03  0.7546771E-02  0.1162127E+00
         21   -1    0    0  504  503  0.00000000000E+00  0.00000000000E+00  0.18133916934E+04  0.18133916934E+04  0.00000000000E+00 0. -1.
         21   -1    0    0  502  504 -0.00000000000E+00 -0.00000000000E+00 -0.36563820257E+02  0.36563820257E+02  0.00000000000E+00 0. -1.
          6    2    1    2  502    0 -0.61299496010E+02 -0.27485771299E+02  0.24229608182E+03  0.30410337572E+03  0.17105079953E+03 0.  0.
         24    2    3    3    0    0 -0.43818352233E+02  0.46750915453E+02  0.17912803062E+03  0.20496222008E+03  0.76269025290E+02 0.  0.
         -6    2    1    2    0  503  0.61299496010E+02  0.27485771299E+02  0.15345317913E+04  0.15458521380E+04  0.17423523747E+03 0.  0.
        -24    2    5    5    0    0  0.75707799791E+02 -0.24821485576E+02  0.13090717942E+04  0.13139082899E+04  0.79613157365E+02 0.  0.
          2    1    4    4  501    0 -0.11216480397E+02  0.12947860130E+01 -0.51288259918E+01  0.12401240235E+02  0.00000000000E+00 0. -1.
         -1    1    4    4    0  501 -0.32601871836E+02  0.45456129440E+02  0.18425685661E+03  0.19256097984E+03  0.00000000000E+00 0.  1.
          5    1    3    3  502    0 -0.17481143776E+02 -0.74236686752E+02  0.63168051207E+02  0.99141155637E+02  0.47000000000E+01 0. -1.
         11    1    6    6    0    0  0.47913506233E+02  0.18467157598E+02  0.38549570583E+03  0.38890060325E+03  0.00000000000E+00 0. -1.
        -12    1    6    6    0    0  0.27794293559E+02 -0.43288643174E+02  0.92357608838E+03  0.92500768667E+03  0.00000000000E+00 0.  1.
         -5    1    5    5    0  503 -0.14408303782E+02  0.52307256875E+02  0.22545999713E+03  0.23194384804E+03  0.47000000000E+01 0.  1.
<mgrwt>
<rscale>  2 0.18599144E+03</rscale>
<asrwt>0</asrwt>
<pdfrwt beam="1">  1       21 0.27898327E+00 0.18673782E+03</pdfrwt>
<pdfrwt beam="2">  1       21 0.56252045E-02 0.18673782E+03</pdfrwt>
<totfact> 0.99915987E+03</totfact>
</mgrwt>
</event>
<event>
12    1  0.2769346E-001  0.1837483E+03  0.7546771E-02  0.1164327E+00
         21   -1    0    0  504  503  0.00000000000E+00  0.00000000000E+00  0.55194093659E+02  0.55194093659E+02  0.00000000000E+00 0. -1.
         21   -1    0    0  502  504 -0.00000000000E+00 -0.00000000000E+00 -0.70551422284E+03  0.70551422284E+03  0.00000000000E+00 0. -1.
          6    2    1    2  502    0  0.12119386126E+02 -0.59163677984E+02 -0.18574002989E+03  0.26127146657E+03  0.17354019772E+03 0.  0.
         24    2    3    3    0    0 -0.52039269483E+02  0.27616424754E+01 -0.10212498065E+03  0.13894140132E+03  0.78482412615E+02 0.  0.
         -6    2    1    2    0  503 -0.12119386126E+02  0.59163677984E+02 -0.46458009929E+03  0.49943684993E+03  0.17307593161E+03 0.  0.
        -24    2    5    5    0    0 -0.43310284640E+02  0.15928021962E+02 -0.41864620767E+03  0.42890879522E+03  0.81047052910E+02 0.  0.
          2    1    4    4  501    0 -0.14019873776E+02  0.14706668137E+02  0.79929208462E+01  0.21834141432E+02  0.00000000000E+00 0. -1.
         -1    1    4    4    0  501 -0.38019395707E+02 -0.11945025662E+02 -0.11011790150E+03  0.11710725989E+03  0.00000000000E+00 0.  1.
          5    1    3    3  502    0  0.64158655609E+02 -0.61925320460E+02 -0.83615049242E+02  0.12233006525E+03  0.47000000000E+01 0. -1.
         13    1    6    6    0    0 -0.44175254364E+01  0.33720646126E+02 -0.31434267093E+03  0.31617702521E+03  0.00000000000E+00 0. -1.
        -14    1    6    6    0    0 -0.38892759204E+02 -0.17792624164E+02 -0.10430353674E+03  0.11273177001E+03  0.00000000000E+00 0.  1.
         -5    1    5    5    0  503  0.31190898514E+02  0.43235656022E+02 -0.45933891619E+02  0.70528054709E+02  0.47000000000E+01 0.  1.
<mgrwt>
<rscale>  2 0.18363855E+03</rscale>
<asrwt>0</asrwt>
<pdfrwt beam="1">  1       21 0.84913998E-02 0.18374825E+03</pdfrwt>
<pdfrwt beam="2">  1       21 0.10854064E+00 0.18374825E+03</pdfrwt>
<totfact> 0.73250629E+04</totfact>
</mgrwt>
</event>
<event>
12    1  0.2769346E-001  0.1760232E+03  0.7546771E-02  0.1172222E+00
         21   -1    0    0  504  503  0.00000000000E+00  0.00000000000E+00  0.12671551045E+04  0.12671551045E+04  0.00000000000E+00 0.  1.
         21   -1    0    0  502  504 -0.00000000000E+00 -0.00000000000E+00 -0.43835102860E+02  0.43835102860E+02  0.00000000000E+00 0.  1.
          6    2    1    2  502    0 -0.10248268027E+02 -0.96842070978E+01  0.17457304574E+03  0.24791107115E+03  0.17545751633E+03 0.  0.
         24    2    3    3    0    0  0.48829129920E+02 -0.40494047743E+02  0.68559604047E+02  0.12261013321E+03  0.79427788762E+02 0.  0.
         -6    2    1    2    0  503  0.10248268027E+02  0.96842070978E+01  0.10487469559E+04  0.10630791362E+04  0.17340202269E+03 0.  0.
        -24    2    5    5    0    0  0.60595912753E+02  0.44865065843E+02  0.58315122051E+03  0.59342601212E+03  0.80027164807E+02 0.  0.
          4    1    4    4  501    0  0.53565484108E+02 -0.54850363745E+02  0.73989580035E+02  0.10654708557E+03  0.00000000000E+00 0. -1.
         -3    1    4    4    0  501 -0.47363541884E+01  0.14356316002E+02 -0.54299759877E+01  0.16063047636E+02  0.00000000000E+00 0.  1.
          5    1    3    3  502    0 -0.59077397947E+02  0.30809840646E+02  0.10601344169E+03  0.12530093794E+03  0.47000000000E+01 0. -1.
         13    1    6    6    0    0  0.12973516327E+02 -0.60284026532E+01  0.13977697046E+02  0.20000744465E+02  0.00000000000E+00 0. -1.
        -14    1    6    6    0    0  0.47622396426E+02  0.50893468496E+02  0.56917352346E+03  0.57342526766E+03  0.00000000000E+00 0.  1.
         -5    1    5    5    0  503 -0.50347644726E+02 -0.35180858745E+02  0.46559573543E+03  0.46965312412E+03  0.47000000000E+01 0.  1.
<mgrwt>
<rscale>  2 0.17550870E+03</rscale>
<asrwt>0</asrwt>
<pdfrwt beam="1">  1       21 0.19494691E+00 0.17602315E+03</pdfrwt>
<pdfrwt beam="2">  1       21 0.67438629E-02 0.17602315E+03</pdfrwt>
<totfact> 0.23643106E+04</totfact>
</mgrwt>
</event>
<event>
12    1  0.2769346E-001  0.3226624E+03  0.7546771E-02  0.1074439E+00
         21   -1    0    0  504  503  0.00000000000E+00  0.00000000000E+00  0.96553409391E+02  0.96553409391E+02  0.00000000000E+00 0.  1.
         21   -1    0    0  502  504 -0.00000000000E+00 -0.00000000000E+00 -0.13808374306E+04  0.13808374306E+04  0.00000000000E+00 0.  1.
          6    2    1    2  502    0 -0.69168067276E+02  0.26371225709E+03 -0.98812364018E+03  0.10394707057E+04  0.17257648644E+03 0.  0.
         24    2    3    3    0    0 -0.67368925675E+02  0.21839064264E+03 -0.94853860811E+03  0.97908568761E+03  0.81549050685E+02 0.  0.
         -6    2    1    2    0  503  0.69168067276E+02 -0.26371225709E+03 -0.29616038102E+03  0.43792013428E+03  0.17243751520E+03 0.  0.
        -24    2    5    5    0    0 -0.36570450236E+02 -0.89492535478E+02 -0.76389186127E+02  0.13816254290E+03  0.62508149594E+02 0.  0.
          4    1    4    4  501    0 -0.36621928901E+02  0.61732252242E+02 -0.44771708686E+03  0.45343425820E+03  0.00000000000E+00 0. -1.
         -3    1    4    4    0  501 -0.30746996774E+02  0.15665839040E+03 -0.50082152125E+03  0.52565142941E+03  0.00000000000E+00 0.  1.
          5    1    3    3  502    0 -0.17991416017E+01  0.45321614449E+02 -0.39585032073E+02  0.60385018101E+02  0.47000000000E+01 0. -1.
         11    1    6    6    0    0  0.19281157300E+01  0.80506298645E+01 -0.13643328857E+02  0.15958405114E+02  0.00000000000E+00 0. -1.
        -12    1    6    6    0    0 -0.38498565966E+02 -0.97543165343E+02 -0.62745857269E+02  0.12220413778E+03  0.00000000000E+00 0.  1.
         -5    1    5    5    0  503  0.10573851751E+03 -0.17421972161E+03 -0.21977119490E+03  0.29975759138E+03  0.47000000000E+01 0.  1.
<mgrwt>
<rscale>  2 0.32264381E+03</rscale>
<asrwt>0</asrwt>
<pdfrwt beam="1">  1       21 0.14854371E-01 0.32266239E+03</pdfrwt>
<pdfrwt beam="2">  1       21 0.21243653E+00 0.32266239E+03</pdfrwt>
<totfact> 0.40567296E+03</totfact>
</mgrwt>
</event>
<event>
12    1  0.2769346E-001  0.2532572E+03  0.7546771E-02  0.1111592E+00
         21   -1    0    0  504  503  0.00000000000E+00  0.00000000000E+00  0.16641026556E+03  0.16641026556E+03  0.00000000000E+00 0.  1.
         21   -1    0    0  502  504 -0.00000000000E+00 -0.00000000000E+00 -0.10282174596E+04  0.10282174596E+04  0.00000000000E+00 0. -1.
          6    2    1    2  502    0 -0.15459670511E+03 -0.96779358067E+02 -0.90368029358E+03  0.93793224404E+03  0.17266278129E+03 0.  0.
         24    2    3    3    0    0 -0.56819804835E+02 -0.69421517014E+02 -0.30281425142E+03  0.32853018931E+03  0.90486336987E+02 0.  0.
         -6    2    1    2    0  503  0.15459670511E+03  0.96779358067E+02  0.41873099520E+02  0.25669548112E+03  0.17570665380E+03 0.  0.
        -24    2    5    5    0    0  0.49703553479E+02  0.11039309293E+03  0.98491877316E+01  0.14608116034E+03  0.81151837393E+02 0.  0.
          4    1    4    4  501    0 -0.55947078449E+02 -0.85490227627E+02 -0.29142346304E+03  0.30881432839E+03  0.00000000000E+00 0. -1.
         -3    1    4    4    0  501 -0.87272638601E+00  0.16068710613E+02 -0.11390788376E+02  0.19715860923E+02  0.00000000000E+00 0.  1.
          5    1    3    3  502    0 -0.97776900274E+02 -0.27357841053E+02 -0.60086604216E+03  0.60940205473E+03  0.47000000000E+01 0. -1.
         13    1    6    6    0    0  0.52341814281E+02  0.11099331766E+03 -0.12699040166E+02  0.12337117859E+03  0.00000000000E+00 0. -1.
        -14    1    6    6    0    0 -0.26382608013E+01 -0.60022472147E+00  0.22548227897E+02  0.22709981750E+02  0.00000000000E+00 0.  1.
         -5    1    5    5    0  503  0.10489315163E+03 -0.13613734866E+02  0.32023911788E+02  0.11061432078E+03  0.47000000000E+01 0.  1.
<mgrwt>
<rscale>  2 0.25273001E+03</rscale>
<asrwt>0</asrwt>
<pdfrwt beam="1">  1       21 0.25601580E-01 0.25325721E+03</pdfrwt>
<pdfrwt beam="2">  1       21 0.15818730E+00 0.25325721E+03</pdfrwt>
<totfact> 0.35793471E+03</totfact>
</mgrwt>
</event>
<event>
12    1  0.2769346E-001  0.2266371E+03  0.7546771E-02  0.1129394E+00
         21   -1    0    0  504  503  0.00000000000E+00  0.00000000000E+00  0.47957255187E+03  0.47957255187E+03  0.00000000000E+00 0.  1.
         21   -1    0    0  502  504 -0.00000000000E+00 -0.00000000000E+00 -0.13189170652E+03  0.13189170652E+03  0.00000000000E+00 0. -1.
          6    2    1    2  502    0 -0.94748704208E+02 -0.11212336079E+03  0.38148284355E+02  0.22783060788E+03  0.17000743897E+03 0.  0.
         24    2    3    3    0    0 -0.61223636006E+02 -0.13787201789E+03  0.48504366367E+02  0.18405547824E+03  0.93630756648E+02 0.  0.
         -6    2    1    2    0  503  0.94748704208E+02  0.11212336079E+03  0.30953256099E+03  0.38363365051E+03  0.17267138300E+03 0.  0.
        -24    2    5    5    0    0  0.13045698823E+03  0.68690168178E+02  0.19922233020E+03  0.25973062074E+03  0.77672990916E+02 0.  0.
          4    1    4    4  501    0 -0.82765034752E+02 -0.11070946260E+03  0.55031786576E+02  0.14877880770E+03  0.00000000000E+00 0. -1.
         -3    1    4    4    0  501  0.21541398746E+02 -0.27162555293E+02 -0.65274202084E+01  0.35276670542E+02  0.00000000000E+00 0.  1.
          5    1    3    3  502    0 -0.33525068201E+02  0.25748657102E+02 -0.10356082012E+02  0.43775129641E+02  0.47000000000E+01 0. -1.
         11    1    6    6    0    0  0.60536462660E+02  0.36810303029E+02  0.36328156947E+02  0.79620328482E+02  0.00000000000E+00 0. -1.
        -12    1    6    6    0    0  0.69920525573E+02  0.31879865149E+02  0.16289417325E+03  0.18011029226E+03  0.00000000000E+00 0.  1.
         -5    1    5    5    0  503 -0.35708284025E+02  0.43433192613E+02  0.11031023080E+03  0.12390302978E+03  0.47000000000E+01 0.  1.
<mgrwt>
<rscale>  2 0.22612964E+03</rscale>
<asrwt>0</asrwt>
<pdfrwt beam="1">  1       21 0.73780392E-01 0.22663709E+03</pdfrwt>
<pdfrwt beam="2">  1       21 0.20291032E-01 0.22663709E+03</pdfrwt>
<totfact> 0.36413876E+04</totfact>
</mgrwt>
</event>
<event>
12    1  0.2769346E-001  0.1809212E+03  0.7546771E-02  0.1167178E+00
         21   -1    0    0  504  503  0.00000000000E+00  0.00000000000E+00  0.39271915125E+03  0.39271915125E+03  0.00000000000E+00 0.  1.
         21   -1    0    0  502  504 -0.00000000000E+00 -0.00000000000E+00 -0.13279002838E+03  0.13279002838E+03  0.00000000000E+00 0.  1.
          6    2    1    2  502    0 -0.27077490252E+02 -0.44559395580E+02 -0.30932493796E+02  0.18354643899E+03  0.17324475715E+03 0.  0.
         24    2    3    3    0    0 -0.74567556486E+02 -0.66182311200E+02 -0.21144626567E+02  0.13024775968E+03  0.81098488729E+02 0.  0.
         -6    2    1    2    0  503  0.27077490252E+02  0.44559395580E+02  0.29086161667E+03  0.34196274064E+03  0.17210260232E+03 0.  0.
        -24    2    5    5    0    0 -0.46329995536E+02  0.47524081401E+02  0.19888785946E+03  0.22415480226E+03  0.79271608636E+02 0.  0.
          2    1    4    4  501    0 -0.78120822954E+02 -0.43335690324E+02  0.11681625189E+02  0.90096089826E+02  0.00000000000E+00 0. -1.
         -1    1    4    4    0  501  0.35532664679E+01 -0.22846620876E+02 -0.32826251757E+02  0.40151669859E+02  0.00000000000E+00 0.  1.
          5    1    3    3  502    0  0.47490066234E+02  0.21622915620E+02 -0.97878672289E+01  0.53298679305E+02  0.47000000000E+01 0. -1.
         13    1    6    6    0    0 -0.59381707898E+02  0.60054081340E+01  0.12151379919E+03  0.13538041052E+03  0.00000000000E+00 0. -1.
        -14    1    6    6    0    0  0.13051712362E+02  0.41518673267E+02  0.77374060273E+02  0.88774391738E+02  0.00000000000E+00 0.  1.
         -5    1    5    5    0  503  0.73407485788E+02 -0.29646858208E+01  0.91973757201E+02  0.11780793838E+03  0.47000000000E+01 0.  1.
<mgrwt>
<rscale>  2 0.18064722E+03</rscale>
<asrwt>0</asrwt>
<pdfrwt beam="1">  1       21 0.60418331E-01 0.18092119E+03</pdfrwt>
<pdfrwt beam="2">  1       21 0.20429235E-01 0.18092119E+03</pdfrwt>
<totfact> 0.56936951E+04</totfact>
</mgrwt>
</event>
<event>
12    1  0.2769346E-001  0.2547226E+03  0.7546771E-02  0.1110456E+00
         21   -1    0    0  504  503  0.00000000000E+00  0.00000000000E+00  0.11313451921E+03  0.11313451921E+03  0.00000000000E+00 0.  1.
         21   -1    0    0  502  504 -0.00000000000E+00 -0.00000000000E+00 -0.71398791576E+03  0.71398791576E+03  0.00000000000E+00 0.  1.
          6    2    1    2  502    0 -0.17403241655E+03  0.70358056219E+02 -0.11572523605E+03  0.27918727958E+03  0.17121819043E+03 0.  0.
         24    2    3    3    0    0 -0.14206351046E+03 -0.89042947259E+01 -0.45412370833E+02  0.16841489922E+03  0.77717227100E+02 0.  0.
         -6    2    1    2    0  503  0.17403241655E+03 -0.70358056219E+02 -0.48512816050E+03  0.54793515540E+03  0.17218032503E+03 0.  0.
        -24    2    5    5    0    0  0.19997213656E+03 -0.56140110297E+02 -0.40306436677E+03  0.46057626746E+03  0.80802518532E+02 0.  0.
          2    1    4    4  501    0 -0.38738549727E+02 -0.15510598298E+02  0.19660180047E+02  0.46127828629E+02  0.00000000000E+00 0. -1.
         -1    1    4    4    0  501 -0.10332496073E+03  0.66063035725E+01 -0.65072550880E+02  0.12228707059E+03  0.00000000000E+00 0.  1.
          5    1    3    3  502    0 -0.31968906091E+02  0.79262350945E+02 -0.70312865221E+02  0.11077238036E+03  0.47000000000E+01 0. -1.
         13    1    6    6    0    0  0.53777208105E+01 -0.37151056477E+00 -0.74259067232E+02  0.74454462374E+02  0.00000000000E+00 0. -1.
        -14    1    6    6    0    0  0.19459441575E+03 -0.55768599733E+02 -0.32880529954E+03  0.38612180508E+03  0.00000000000E+00 0.  1.
         -5    1    5    5    0  503 -0.25939720015E+02 -0.14217945921E+02 -0.82063793729E+02  0.87358887938E+02  0.47000000000E+01 0.  1.
<mgrwt>
<rscale>  2 0.25456010E+03</rscale>
<asrwt>0</asrwt>
<pdfrwt beam="1">  1       21 0.17405311E-01 0.25472260E+03</pdfrwt>
<pdfrwt beam="2">  1       21 0.10984429E+00 0.25472260E+03</pdfrwt>
<totfact> 0.18894834E+04</totfact>
</mgrwt>
</event>
<event>
12    1  0.2769346E-001  0.1810567E+03  0.7546771E-02  0.1166812E+00
         21   -1    0    0  504  503  0.00000000000E+00  0.00000000000E+00  0.31551052184E+03  0.31551052184E+03  0.00000000000E+00 0. -1.
         21   -1    0    0  502  504 -0.00000000000E+00 -0.00000000000E+00 -0.12306144148E+03  0.12306144148E+03  0.00000000000E+00 0. -1.
          6    2    1    2  502    0 -0.13549996611E+02  0.52058723342E+02  0.95183380934E+01  0.18119052926E+03  0.17275906937E+03 0.  0.
         24    2    3    3    0    0  0.20348238024E+02 -0.47217279353E+01  0.54573507849E+02  0.10103338185E+03  0.82420452463E+02 0.  0.
         -6    2    1    2    0  503  0.13549996611E+02 -0.52058723342E+02  0.18293074226E+03  0.25738143406E+03  0.17288097943E+03 0.  0.
        -24    2    5    5    0    0  0.50320537938E+01 -0.43198970456E+00  0.13699236812E+02  0.80183049720E+02  0.78842527818E+02 0.  0.
          2    1    4    4  501    0  0.25992985060E+02  0.28756132212E+02  0.54749553082E+02  0.67082516163E+02  0.00000000000E+00 0. -1.
         -1    1    4    4    0  501 -0.56447470357E+01 -0.33477860147E+02 -0.17604523217E+00  0.33950865690E+02  0.00000000000E+00 0.  1.
          5    1    3    3  502    0 -0.33898234636E+02  0.56780451277E+02 -0.45055169756E+02  0.80157147407E+02  0.47000000000E+01 0. -1.
         13    1    6    6    0    0  0.17758431434E+02 -0.32006606171E+02  0.24985902229E+02  0.44317942595E+02  0.00000000000E+00 0. -1.
        -14    1    6    6    0    0 -0.12726377640E+02  0.31574616467E+02 -0.11286665417E+02  0.35865107125E+02  0.00000000000E+00 0.  1.
         -5    1    5    5    0  503  0.85179428177E+01 -0.51626733638E+02  0.16923150545E+03  0.17719838434E+03  0.47000000000E+01 0.  1.
<mgrwt>
<rscale>  2 0.18102764E+03</rscale>
<asrwt>0</asrwt>
<pdfrwt beam="1">  1       21 0.48540080E-01 0.18105675E+03</pdfrwt>
<pdfrwt beam="2">  1       21 0.18932529E-01 0.18105675E+03</pdfrwt>
<totfact> 0.10406434E+05</totfact>
</mgrwt>
</event>
<event>
12    1  0.2769346E-001  0.2401978E+03  0.7546771E-02  0.1120592E+00
         21   -1    0    0  504  503  0.00000000000E+00  0.00000000000E+00  0.20749748173E+03  0.20749748173E+03  0.00000000000E+00 0.  1.
         21   -1    0    0  502  504 -0.00000000000E+00 -0.00000000000E+00 -0.37979955815E+03  0.37979955815E+03  0.00000000000E+00 0.  1.
          6    2    1    2  502    0  0.14528585238E+03 -0.82046316051E+02 -0.24209483798E+03  0.33716508294E+03  0.16501759209E+03 0.  0.
         24    2    3    3    0    0  0.55219190236E+02 -0.13067990823E+02 -0.18273539903E+03  0.20904152549E+03  0.84179581650E+02 0.  0.
         -6    2    1    2    0  503 -0.14528585238E+03  0.82046316051E+02  0.69792761561E+02  0.25013195693E+03  0.17278712172E+03 0.  0.
        -24    2    5    5    0    0 -0.11666785627E+03  0.56602787254E+02 -0.19229855007E+02  0.15310887143E+03  0.79102939109E+02 0.  0.
          2    1    4    4  501    0 -0.80264115407E+01 -0.33972736716E+02 -0.62645435786E+02  0.71714857226E+02  0.00000000000E+00 0. -1.
         -1    1    4    4    0  501  0.63245601776E+02  0.20904745893E+02 -0.12008996325E+03  0.13732666827E+03  0.00000000000E+00 0.  1.
          5    1    3    3  502    0  0.90066662143E+02 -0.68978325227E+02 -0.59359438949E+02  0.12812355745E+03  0.47000000000E+01 0. -1.
         11    1    6    6    0    0 -0.21123437751E+01  0.31878574750E+02 -0.16329474085E+02  0.35879760983E+02  0.00000000000E+00 0. -1.
        -12    1    6    6    0    0 -0.11455551250E+03  0.24724212504E+02 -0.29003809226E+01  0.11722911045E+03  0.00000000000E+00 0.  1.
         -5    1    5    5    0  503 -0.28617996108E+02  0.25443528796E+02  0.89022616569E+02  0.97023085498E+02  0.47000000000E+01 0.  1.
<mgrwt>
<rscale>  2 0.23880394E+03</rscale>
<asrwt>0</asrwt>
<pdfrwt beam="1">  1       21 0.31922690E-01 0.24019777E+03</pdfrwt>
<pdfrwt beam="2">  1       21 0.58430701E-01 0.24019777E+03</pdfrwt>
<totfact> 0.25235401E+04</totfact>
</mgrwt>
</event>
<event>
12    1  0.2769346E-001  0.2262205E+03  0.7546771E-02  0.1129385E+00
         21   -1    0    0  504  503  0.00000000000E+00  0.00000000000E+00  0.30721159449E+03  0.30721159449E+03  0.00000000000E+00 0.  1.
         21   -1    0    0  502  504 -0.00000000000E+00 -0.00000000000E+00 -0.39869172298E+03  0.39869172298E+03  0.00000000000E+00 0. -1.
          6    2    1    2  502    0 -0.14498857503E+03  0.11461360632E+02 -0.31519166676E+03  0.38797098456E+03  0.17327044870E+03 0.  0.
         24    2    3    3    0    0 -0.87874592460E+02 -0.13644223580E+02 -0.76716181696E+02  0.14142495572E+03  0.78787922482E+02 0.  0.
         -6    2    1    2    0  503  0.14498857503E+03 -0.11461360632E+02  0.22371153826E+03  0.31793233290E+03  0.17286140771E+03 0.  0.
        -24    2    5    5    0    0  0.28194998754E+02 -0.30330245466E+02  0.15879850274E+03  0.18290431190E+03  0.80759773992E+02 0.  0.
          2    1    4    4  501    0 -0.45801317056E+02  0.26180858730E+02 -0.62470397604E+02  0.81766427002E+02  0.00000000000E+00 0. -1.
         -1    1    4    4    0  501 -0.42073275404E+02 -0.39825082311E+02 -0.14245784092E+02  0.59658528717E+02  0.00000000000E+00 0.  1.
          5    1    3    3  502    0 -0.57113982572E+02  0.25105584212E+02 -0.23847548506E+03  0.24654602884E+03  0.47000000000E+01 0. -1.
         13    1    6    6    0    0  0.15143688259E+02  0.65802257330E+01  0.13720343350E+03  0.13819338924E+03  0.00000000000E+00 0. -1.
        -14    1    6    6    0    0  0.13051310494E+02 -0.36910471199E+02  0.21595069233E+02  0.44710922658E+02  0.00000000000E+00 0.  1.
         -5    1    5    5    0  503  0.11679357628E+03  0.18868884835E+02  0.64913035527E+02  0.13502802100E+03  0.47000000000E+01 0.  1.
<mgrwt>
<rscale>  2 0.22614214E+03</rscale>
<asrwt>0</asrwt>
<pdfrwt beam="1">  1       21 0.47263322E-01 0.22622046E+03</pdfrwt>
<pdfrwt beam="2">  1       21 0.61337189E-01 0.22622046E+03</pdfrwt>
<totfact> 0.10354131E+04</totfact>
</mgrwt>
</event>
<event>
12    1  0.2769346E-001  0.2424480E+03  0.7546771E-02  0.1118248E+00
         21   -1    0    0  504  503  0.00000000000E+00  0.00000000000E+00  0.12285671770E+03  0.12285671770E+03  0.00000000000E+00 0.  1.
         21   -1    0    0  502  504 -0.00000000000E+00 -0.00000000000E+00 -0.49713840543E+03  0.49713840543E+03  0.00000000000E+00 0.  1.
          6    2    1    2  502    0 -0.78784267445E+02  0.14951343005E+03 -0.12544454856E+03  0.27257471381E+03  0.17320338705E+03 0.  0.
         24    2    3    3    0    0 -0.83295779486E+02  0.27165233563E+02 -0.90365907972E+02  0.14513046738E+03  0.72254539262E+02 0.  0.
         -6    2    1    2    0  503  0.78784267445E+02 -0.14951343005E+03 -0.24883713917E+03  0.34742040932E+03  0.17383840893E+03 0.  0.
        -24    2    5    5    0    0  0.92679100629E+02 -0.11269743786E+03 -0.10221119318E+03  0.19553314287E+03  0.80597479849E+02 0.  0.
          2    1    4    4  501    0 -0.93185406021E+02  0.31877093907E+02 -0.91088270162E+02  0.13415193615E+03  0.00000000000E+00 0. -1.
         -1    1    4    4    0  501  0.98896265348E+01 -0.47118603439E+01  0.72236219000E+00  0.10978531233E+02  0.00000000000E+00 0.  1.
          5    1    3    3  502    0  0.45115120406E+01  0.12234819648E+03 -0.35078640587E+02  0.12744424643E+03  0.47000000000E+01 0. -1.
         11    1    6    6    0    0  0.16427203429E+02 -0.78397423830E+02 -0.68449014564E+02  0.10536259616E+03  0.00000000000E+00 0. -1.
        -12    1    6    6    0    0  0.76251897200E+02 -0.34300014027E+02 -0.33762178611E+02  0.90170546707E+02  0.00000000000E+00 0.  1.
         -5    1    5    5    0  503 -0.13894833184E+02 -0.36815992189E+02 -0.14662594600E+03  0.15188726645E+03  0.47000000000E+01 0.  1.
<mgrwt>
<rscale>  2 0.24233416E+03</rscale>
<asrwt>0</asrwt>
<pdfrwt beam="1">  1       21 0.18901033E-01 0.24244797E+03</pdfrwt>
<pdfrwt beam="2">  1       21 0.76482833E-01 0.24244797E+03</pdfrwt>
<totfact> 0.38086879E+04</totfact>
</mgrwt>
</event>
<event>
12    1  0.2769346E-001  0.2102371E+03  0.7546771E-02  0.1141487E+00
         21   -1    0    0  504  503  0.00000000000E+00  0.00000000000E+00  0.11260113689E+03  0.11260113689E+03  0.00000000000E+00 0.  1.
         21   -1    0    0  502  504 -0.00000000000E+00 -0.00000000000E+00 -0.40093274943E+03  0.40093274943E+03  0.00000000000E+00 0.  1.
          6    2    1    2  502    0  0.11935045732E+03  0.37328810854E+01 -0.10461877322E+03  0.23433849530E+03  0.17236872281E+03 0.  0.
         24    2    3    3    0    0  0.13773302570E+03 -0.20082571645E+02 -0.11979358663E+03  0.20031703779E+03  0.80016974315E+02 0.  0.
         -6    2    1    2    0  503 -0.11935045732E+03 -0.37328810854E+01 -0.18371283932E+03  0.27919539102E+03  0.17303523622E+03 0.  0.
        -24    2    5    5    0    0  0.92371547210E+00  0.35964977418E+02 -0.83236327038E+02  0.11745666304E+03  0.74655533630E+02 0.  0.
          4    1    4    4  501    0  0.49252877368E+02 -0.46751183644E+02 -0.56068401528E+02  0.88063526792E+02  0.00000000000E+00 0. -1.
         -3    1    4    4    0  501  0.88480148334E+02  0.26668611999E+02 -0.63725185099E+02  0.11225351100E+03  0.00000000000E+00 0.  1.
          5    1    3    3  502    0 -0.18382568380E+02  0.23815452731E+02  0.15174813408E+02  0.34021457508E+02  0.47000000000E+01 0. -1.
         11    1    6    6    0    0 -0.88678113891E+01  0.53879201713E+02 -0.34430134101E+02  0.64552618772E+02  0.00000000000E+00 0. -1.
        -12    1    6    6    0    0  0.97915268612E+01 -0.17914224296E+02 -0.48806192937E+02  0.52904044263E+02  0.00000000000E+00 0.  1.
         -5    1    5    5    0  503 -0.12027417279E+03 -0.39697858503E+02 -0.10047651228E+03  0.16173872799E+03  0.47000000000E+01 0.  1.
<mgrwt>
<rscale>  2 0.21009996E+03</rscale>
<asrwt>0</asrwt>
<pdfrwt beam="1">  1       21 0.17323252E-01 0.21023715E+03</pdfrwt>
<pdfrwt beam="2">  1       21 0.61681962E-01 0.21023715E+03</pdfrwt>
<totfact> 0.73001499E+04</totfact>
</mgrwt>
</event>
<event>
12    1  0.2769346E-001  0.1908041E+03  0.7546771E-02  0.1158030E+00
         21   -1    0    0  504  503  0.00000000000E+00  0.00000000000E+00  0.40133973452E+02  0.40133973452E+02  0.00000000000E+00 0. -1.
         21   -1    0    0  502  504 -0.00000000000E+00 -0.00000000000E+00 -0.12903869391E+04  0.12903869391E+04  0.00000000000E+00 0. -1.
          6    2    1    2  502    0  0.26410425182E+02  0.82132755038E+02 -0.98909780821E+03  0.10070889961E+04  0.16873195287E+03 0.  0.
         24    2    3    3    0    0  0.50192068263E+02  0.11088860344E+03 -0.64585891488E+03  0.66179565236E+03  0.77615858261E+02 0.  0.
         -6    2    1    2    0  503 -0.26410425182E+02 -0.82132755038E+02 -0.26115515742E+03  0.32343191640E+03  0.17018486505E+03 0.  0.
        -24    2    5    5    0    0 -0.20097102758E+02  0.22356083790E+02 -0.11927773659E+03  0.14705428737E+03  0.80585960113E+02 0.  0.
          4    1    4    4  501    0  0.45776683093E+02  0.16580881350E+02 -0.26294519769E+03  0.26741467299E+03  0.00000000000E+00 0. -1.
         -3    1    4    4    0  501  0.44153851699E+01  0.94307722090E+02 -0.38291371719E+03  0.39438097937E+03  0.00000000000E+00 0.  1.
          5    1    3    3  502    0 -0.23781643081E+02 -0.28755848403E+02 -0.34323889333E+03  0.34529334378E+03  0.47000000000E+01 0. -1.
         11    1    6    6    0    0 -0.10718909091E+02  0.52191308765E+02 -0.87659690286E+02  0.10258191373E+03  0.00000000000E+00 0. -1.
        -12    1    6    6    0    0 -0.93781936674E+01 -0.29835224975E+02 -0.31618046303E+02  0.44472373647E+02  0.00000000000E+00 0.  1.
         -5    1    5    5    0  503 -0.63133224238E+01 -0.10448883883E+03 -0.14187742083E+03  0.17637762903E+03  0.47000000000E+01 0.  1.
<mgrwt>
<rscale>  2 0.19047954E+03</rscale>
<asrwt>0</asrwt>
<pdfrwt beam="1">  1       21 0.61744569E-02 0.19080406E+03</pdfrwt>
<pdfrwt beam="2">  1       21 0.19852109E+00 0.19080406E+03</pdfrwt>
<totfact> 0.25799606E+04</totfact>
</mgrwt>
</event>
<event>
12    1  0.2769346E-001  0.1775275E+03  0.7546771E-02  0.1170608E+00
         21   -1    0    0  504  503  0.00000000000E+00  0.00000000000E+00  0.82082964197E+02  0.82082964197E+02  0.00000000000E+00 0. -1.
         21   -1    0    0  502  504 -0.00000000000E+00 -0.00000000000E+00 -0.41013014282E+03  0.41013014282E+03  0.00000000000E+00 0. -1.
          6    2    1    2  502    0  0.27656750317E+02 -0.27516822065E+02 -0.23079716980E+03  0.29117581183E+03  0.17318761063E+03 0.  0.
         24    2    3    3    0    0  0.29825805435E+02  0.41977100842E+01 -0.39233256553E+02  0.96935395832E+02  0.83366798581E+02 0.  0.
         -6    2    1    2    0  503 -0.27656750317E+02  0.27516822065E+02 -0.97250008823E+02  0.20103729518E+03  0.17157027279E+03 0.  0.
        -24    2    5    5    0    0 -0.37731554838E+02 -0.53117605248E+01  0.11089550182E+02  0.87288591602E+02  0.77745964978E+02 0.  0.
          4    1    4    4  501    0  0.16219629182E+01 -0.37878761959E+02 -0.14854070374E+02  0.40719464362E+02  0.00000000000E+00 0. -1.
         -3    1    4    4    0  501  0.28203842517E+02  0.42076472043E+02 -0.24379186179E+02  0.56215931470E+02  0.00000000000E+00 0.  1.
          5    1    3    3  502    0 -0.21690551178E+01 -0.31714532149E+02 -0.19156391325E+03  0.19424041600E+03  0.47000000000E+01 0. -1.
         11    1    6    6    0    0 -0.49483557260E+02  0.22450345155E+02 -0.21085767762E+01  0.54379100146E+02  0.00000000000E+00 0. -1.
        -12    1    6    6    0    0  0.11752002422E+02 -0.27762105680E+02  0.13198126958E+02  0.32909491456E+02  0.00000000000E+00 0.  1.
         -5    1    5    5    0  503  0.10074804521E+02  0.32828582590E+02 -0.10833955900E+03  0.11374870358E+03  0.47000000000E+01 0.  1.
<mgrwt>
<rscale>  2 0.17713184E+03</rscale>
<asrwt>0</asrwt>
<pdfrwt beam="1">  1       21 0.12628148E-01 0.17752752E+03</pdfrwt>
<pdfrwt beam="2">  1       21 0.63096945E-01 0.17752752E+03</pdfrwt>
<totfact> 0.12517059E+05</totfact>
</mgrwt>
</event>
<event>
12    1  0.2769346E-001  0.1931162E+03  0.7546771E-02  0.1156312E+00
         21   -1    0    0  504  503  0.00000000000E+00  0.00000000000E+00  0.77043785176E+02  0.77043785176E+02  0.00000000000E+00 0. -1.
         21   -1    0    0  502  504 -0.00000000000E+00 -0.00000000000E+00 -0.84904191195E+03  0.84904191195E+03  0.00000000000E+00 0. -1.
          6    2    1    2  502    0  0.77482978189E+02  0.29742430749E+02 -0.69412737028E+03  0.72049057906E+03  0.17437214297E+03 0.  0.
         24    2    3    3    0    0 -0.24819776230E+02  0.18012918023E+00 -0.24527197407E+03  0.25915226508E+03  0.79909332960E+02 0.  0.
         -6    2    1    2    0  503 -0.77482978189E+02 -0.29742430749E+02 -0.77870756492E+02  0.20559511807E+03  0.17122287744E+03 0.  0.
        -24    2    5    5    0    0 -0.83567220685E+02 -0.37178197052E+02 -0.11512284326E+03  0.16683796910E+03  0.78841234022E+02 0.  0.
          4    1    4    4  501    0  0.10991861965E+02  0.32997253762E+02 -0.11368724718E+03  0.11888830874E+03  0.00000000000E+00 0. -1.
         -3    1    4    4    0  501 -0.35811638196E+02 -0.32817124582E+02 -0.13158472690E+03  0.14026395634E+03  0.00000000000E+00 0.  1.
          5    1    3    3  502    0  0.10230275442E+03  0.29562301569E+02 -0.44885539620E+03  0.46133831397E+03  0.47000000000E+01 0. -1.
         11    1    6    6    0    0 -0.46436651776E+02 -0.33124068296E+02 -0.13567146521E+02  0.58631339686E+02  0.00000000000E+00 0. -1.
        -12    1    6    6    0    0 -0.37130568909E+02 -0.40541287561E+01 -0.10155569674E+03  0.10820662941E+03  0.00000000000E+00 0.  1.
         -5    1    5    5    0  503  0.60842424957E+01  0.74357663028E+01  0.37252086772E+02  0.38757148968E+02  0.47000000000E+01 0.  1.
<mgrwt>
<rscale>  2 0.19240256E+03</rscale>
<asrwt>0</asrwt>
<pdfrwt beam="1">  1       21 0.11852890E-01 0.19311620E+03</pdfrwt>
<pdfrwt beam="2">  1       21 0.13062183E+00 0.19311620E+03</pdfrwt>
<totfact> 0.25614836E+04</totfact>
</mgrwt>
</event>
<event>
12    1  0.2769346E-001  0.2304470E+03  0.7546771E-02  0.1126471E+00
         21   -1    0    0  504  503  0.00000000000E+00  0.00000000000E+00  0.34451605955E+03  0.34451605955E+03  0.00000000000E+00 0.  1.
         21   -1    0    0  502  504 -0.00000000000E+00 -0.00000000000E+00 -0.15802480066E+03  0.15802480066E+03  0.00000000000E+00 0. -1.
          6    2    1    2  502    0  0.14347821233E+03  0.52006269776E+02  0.13549279446E+03  0.26732770718E+03  0.17267065808E+03 0.  0.
         24    2    3    3    0    0  0.56480588389E+02  0.37565819140E+02  0.14395370315E+03  0.17861023335E+03  0.81103015812E+02 0.  0.
         -6    2    1    2    0  503 -0.14347821233E+03 -0.52006269776E+02  0.50998464429E+02  0.23521315304E+03  0.17156262553E+03 0.  0.
        -24    2    5    5    0    0 -0.77242800288E+02 -0.31067236615E+02 -0.38079061372E+02  0.12215357352E+03  0.80869383706E+02 0.  0.
          4    1    4    4  501    0  0.31983401152E+02  0.55072369195E+02  0.53169772517E+02  0.82963416682E+02  0.00000000000E+00 0. -1.
         -3    1    4    4    0  501  0.24497187237E+02 -0.17506550055E+02  0.90783930630E+02  0.95646816664E+02  0.00000000000E+00 0.  1.
          5    1    3    3  502    0  0.86997623946E+02  0.14440450636E+02 -0.84609086896E+01  0.88717473829E+02  0.47000000000E+01 0. -1.
         13    1    6    6    0    0 -0.56618449013E+02 -0.57662431206E+02 -0.35901500023E+02  0.88428063674E+02  0.00000000000E+00 0. -1.
        -14    1    6    6    0    0 -0.20624351275E+02  0.26595194590E+02 -0.21775613482E+01  0.33725509844E+02  0.00000000000E+00 0.  1.
         -5    1    5    5    0  503 -0.66235412047E+02 -0.20939033161E+02  0.89077525800E+02  0.11305957952E+03  0.47000000000E+01 0.  1.
<mgrwt>
<rscale>  2 0.23023942E+03</rscale>
<asrwt>0</asrwt>
<pdfrwt beam="1">  1       21 0.53002470E-01 0.23044697E+03</pdfrwt>
<pdfrwt beam="2">  1       21 0.24311508E-01 0.23044697E+03</pdfrwt>
<totfact> 0.52948089E+04</totfact>
</mgrwt>
</event>
<event>
12    1  0.2769346E-001  0.5196832E+03  0.7546771E-02  0.1008813E+00
         21   -1    0    0  504  503  0.00000000000E+00  0.00000000000E+00  0.15617582785E+04  0.15617582785E+04  0.00000000000E+00 0.  1.
         21   -1    0    0  502  504 -0.00000000000E+00 -0.00000000000E+00 -0.19508979974E+03  0.19508979974E+03  0.00000000000E+00 0. -1.
          6    2    1    2  502    0 -0.43994954307E+03  0.21427112004E+03  0.98066060714E+03  0.11094898459E+04  0.17264060454E+03 0.  0.
         24    2    3    3    0    0 -0.22709723465E+03  0.45685516514E+02  0.51052365966E+03  0.56655518100E+03  0.81792699208E+02 0.  0.
         -6    2    1    2    0  503  0.43994954307E+03 -0.21427112004E+03  0.38600787168E+03  0.64735823243E+03  0.17493681936E+03 0.  0.
        -24    2    5    5    0    0  0.20226957819E+03 -0.16848013369E+03  0.23784288369E+03  0.36352107172E+03  0.79245154745E+02 0.  0.
          4    1    4    4  501    0 -0.70180734458E+02  0.22448866253E+02  0.85360103761E+02  0.11276362179E+03  0.00000000000E+00 0. -1.
         -3    1    4    4    0  501 -0.15691650019E+03  0.23236650262E+02  0.42516355590E+03  0.45379155921E+03  0.00000000000E+00 0.  1.
          5    1    3    3  502    0 -0.21285230843E+03  0.16858560353E+03  0.47013694748E+03  0.54293466486E+03  0.47000000000E+01 0. -1.
         11    1    6    6    0    0  0.13581777398E+03 -0.63341985388E+02  0.11724377778E+03  0.19027553250E+03  0.00000000000E+00 0. -1.
        -12    1    6    6    0    0  0.66451804219E+02 -0.10513814830E+03  0.12059910592E+03  0.17324553922E+03  0.00000000000E+00 0.  1.
         -5    1    5    5    0  503  0.23767996488E+03 -0.45790986350E+02  0.14816498798E+03  0.28383716071E+03  0.47000000000E+01 0.  1.
<mgrwt>
<rscale>  2 0.51949096E+03</rscale>
<asrwt>0</asrwt>
<pdfrwt beam="1">  1       21 0.24027050E+00 0.51968318E+03</pdfrwt>
<pdfrwt beam="2">  1       21 0.30013816E-01 0.51968318E+03</pdfrwt>
<totfact> 0.63938313E+02</totfact>
</mgrwt>
</event>
<event>
12    1  0.2769346E-001  0.1819274E+03  0.7546771E-02  0.1166404E+00
         21   -1    0    0  504  503  0.00000000000E+00  0.00000000000E+00  0.21446572208E+03  0.21446572208E+03  0.00000000000E+00 0.  1.
         21   -1    0    0  502  504 -0.00000000000E+00 -0.00000000000E+00 -0.15367056318E+03  0.15367056318E+03  0.00000000000E+00 0.  1.
          6    2    1    2  502    0  0.89389147416E+01  0.54539579243E+02  0.16139572742E+02  0.18264190522E+03  0.17332948345E+03 0.  0.
         24    2    3    3    0    0  0.69839950896E+02  0.46004404299E+02  0.29633535509E+02  0.11950742616E+03  0.80061567083E+02 0.  0.
         -6    2    1    2    0  503 -0.89389147416E+01 -0.54539579243E+02  0.44655586156E+02  0.18549438004E+03  0.17134635610E+03 0.  0.
        -24    2    5    5    0    0 -0.71301822518E+02 -0.46578763602E+02  0.33312935779E+02  0.12143774440E+03  0.79898954695E+02 0.  0.
          2    1    4    4  501    0 -0.66027469500E+01  0.25854274337E+02  0.30399839729E+02  0.40449845789E+02  0.00000000000E+00 0. -1.
         -1    1    4    4    0  501  0.76442697846E+02  0.20150129962E+02 -0.76630422002E+00  0.79057580367E+02  0.00000000000E+00 0.  1.
          5    1    3    3  502    0 -0.60901036154E+02  0.85351749443E+01 -0.13493962767E+02  0.63134479067E+02  0.47000000000E+01 0. -1.
         13    1    6    6    0    0  0.16054453741E+01  0.16178979400E+02  0.17608482531E+02  0.23966549320E+02  0.00000000000E+00 0. -1.
        -14    1    6    6    0    0 -0.72907267892E+02 -0.62757743002E+02  0.15704453248E+02  0.97471195078E+02  0.00000000000E+00 0.  1.
         -5    1    5    5    0  503  0.62362907776E+02 -0.79608156414E+01  0.11342650377E+02  0.64056635641E+02  0.47000000000E+01 0.  1.
<mgrwt>
<rscale>  2 0.18145345E+03</rscale>
<asrwt>0</asrwt>
<pdfrwt beam="1">  1       21 0.32994726E-01 0.18192740E+03</pdfrwt>
<pdfrwt beam="2">  1       21 0.23641625E-01 0.18192740E+03</pdfrwt>
<totfact> 0.14949250E+05</totfact>
</mgrwt>
</event>
<event>
12    1  0.2769346E-001  0.4572657E+03  0.7546771E-02  0.1025661E+00
         21   -1    0    0  504  503  0.00000000000E+00  0.00000000000E+00  0.88532853011E+03  0.88532853011E+03  0.00000000000E+00 0.  1.
         21   -1    0    0  502  504 -0.00000000000E+00 -0.00000000000E+00 -0.27385923100E+03  0.27385923100E+03  0.00000000000E+00 0. -1.
          6    2    1    2  502    0 -0.24283376506E+03  0.34532648038E+03  0.88734185032E+02  0.46467794369E+03  0.17272295810E+03 0.  0.
         24    2    3    3    0    0 -0.19900783026E+03  0.18190907469E+03  0.19347909625E+02  0.28175034529E+03  0.79459974209E+02 0.  0.
         -6    2    1    2    0  503  0.24283376506E+03 -0.34532648038E+03  0.52273511408E+03  0.69450981742E+03  0.17570791531E+03 0.  0.
        -24    2    5    5    0    0  0.19232601848E+03 -0.31417550793E+03  0.36080866880E+03  0.52198828476E+03  0.81199302858E+02 0.  0.
          2    1    4    4  501    0 -0.20185009974E+03  0.18270034618E+03  0.10537453769E+02  0.27245901929E+03  0.00000000000E+00 0. -1.
         -1    1    4    4    0  501  0.28422694829E+01 -0.79127148625E+00  0.88104558558E+01  0.92913259961E+01  0.00000000000E+00 0.  1.
          5    1    3    3  502    0 -0.43825934794E+02  0.16341740568E+03  0.69386275408E+02  0.18292759840E+03  0.47000000000E+01 0. -1.
         11    1    6    6    0    0  0.30351037847E+02 -0.22279912208E+02  0.12830289087E+02  0.39776831252E+02  0.00000000000E+00 0. -1.
        -12    1    6    6    0    0  0.16197498064E+03 -0.29189559572E+03  0.34797837971E+03  0.48221145351E+03  0.00000000000E+00 0.  1.
         -5    1    5    5    0  503  0.50507746572E+02 -0.31150972448E+02  0.16192644528E+03  0.17252153266E+03  0.47000000000E+01 0.  1.
<mgrwt>
<rscale>  2 0.45698073E+03</rscale>
<asrwt>0</asrwt>
<pdfrwt beam="1">  1       21 0.13620439E+00 0.45726566E+03</pdfrwt>
<pdfrwt beam="2">  1       21 0.42132190E-01 0.45726566E+03</pdfrwt>
<totfact> 0.17782758E+03</totfact>
</mgrwt>
</event>
<event>
12    1  0.2769346E-001  0.2102837E+03  0.7546771E-02  0.1141857E+00
         21   -1    0    0  504  503  0.00000000000E+00  0.00000000000E+00  0.62559198478E+03  0.62559198478E+03  0.00000000000E+00 0. -1.
         21   -1    0    0  502  504 -0.00000000000E+00 -0.00000000000E+00 -0.70336485120E+02  0.70336485120E+02  0.00000000000E+00 0.  1.
          6    2    1    2  502    0  0.11647187939E+03 -0.25649121029E+02  0.24595346486E+03  0.32191380494E+03  0.17003474596E+03 0.  0.
         24    2    3    3    0    0  0.13548608345E+03 -0.43896738629E+02  0.24569221645E+03  0.29514304188E+03  0.80382507236E+02 0.  0.
         -6    2    1    2    0  503 -0.11647187939E+03  0.25649121029E+02  0.30930203480E+03  0.37401466496E+03  0.17319250786E+03 0.  0.
        -24    2    5    5    0    0 -0.95139386041E+02 -0.47707114944E+02  0.20492143592E+03  0.24457892009E+03  0.80613780833E+02 0.  0.
          2    1    4    4  501    0  0.40183630020E+02  0.23203284360E+02  0.59100553881E+02  0.75139816314E+02  0.00000000000E+00 0. -1.
         -1    1    4    4    0  501  0.95302453433E+02 -0.67100022989E+02  0.18659166257E+03  0.22000322556E+03  0.00000000000E+00 0.  1.
          5    1    3    3  502    0 -0.19014204060E+02  0.18247617600E+02  0.26124840764E+00  0.26770763061E+02  0.47000000000E+01 0. -1.
         11    1    6    6    0    0 -0.51845148707E+02 -0.81483968326E+01  0.30811995869E+02  0.60857989655E+02  0.00000000000E+00 0. -1.
        -12    1    6    6    0    0 -0.43294237334E+02 -0.39558718112E+02  0.17410944006E+03  0.18372093044E+03  0.00000000000E+00 0.  1.
         -5    1    5    5    0  503 -0.21332493352E+02  0.73356235973E+02  0.10438059887E+03  0.12943574487E+03  0.47000000000E+01 0.  1.
<mgrwt>
<rscale>  2 0.20963238E+03</rscale>
<asrwt>0</asrwt>
<pdfrwt beam="1">  1       21 0.96244917E-01 0.21028367E+03</pdfrwt>
<pdfrwt beam="2">  1       21 0.10820998E-01 0.21028367E+03</pdfrwt>
<totfact> 0.62865889E+04</totfact>
</mgrwt>
</event>
<event>
12    1  0.2769346E-001  0.2885994E+03  0.7546771E-02  0.1091223E+00
         21   -1    0    0  504  503  0.00000000000E+00  0.00000000000E+00  0.15544284178E+04  0.15544284178E+04  0.00000000000E+00 0.  1.
         21   -1    0    0  502  504 -0.00000000000E+00 -0.00000000000E+00 -0.16177662882E+03  0.16177662882E+03  0.00000000000E+00 0. -1.
          6    2    1    2  502    0  0.22821130697E+03  0.18031366952E+02 -0.56416603911E+01  0.28865455906E+03  0.17573871319E+03 0.  0.
         24    2    3    3    0    0  0.26760234705E+02  0.23429254365E+02  0.86583966913E+01  0.86569791360E+02  0.78449479420E+02 0.  0.
         -6    2    1    2    0  503 -0.22821130697E+03 -0.18031366952E+02  0.13982934493E+04  0.14275504875E+04  0.17398360025E+03 0.  0.
        -24    2    5    5    0    0 -0.75401614860E+02 -0.46644989637E+02  0.71030759146E+03  0.72220222457E+03  0.95801983899E+02 0.  0.
          2    1    4    4  501    0  0.39809867910E+01 -0.28348329425E+02  0.89801738072E+01  0.30001992577E+02  0.00000000000E+00 0. -1.
         -1    1    4    4    0  501  0.22779247914E+02  0.51777583790E+02 -0.32177711586E+00  0.56567798783E+02  0.00000000000E+00 0.  1.
          5    1    3    3  502    0  0.20145107226E+03 -0.53978874135E+01 -0.14300057082E+02  0.20208476770E+03  0.47000000000E+01 0. -1.
         13    1    6    6    0    0 -0.37774651249E+02  0.13861769026E+02  0.46551346977E+03  0.46724925195E+03  0.00000000000E+00 0. -1.
        -14    1    6    6    0    0 -0.37626963611E+02 -0.60506758662E+02  0.24479412169E+03  0.25495297262E+03  0.00000000000E+00 0.  1.
         -5    1    5    5    0  503 -0.15280969211E+03  0.28613622685E+02  0.68798585789E+03  0.70534826296E+03  0.47000000000E+01 0.  1.
<mgrwt>
<rscale>  2 0.28833271E+03</rscale>
<asrwt>0</asrwt>
<pdfrwt beam="1">  1       21 0.23914282E+00 0.28859942E+03</pdfrwt>
<pdfrwt beam="2">  1       21 0.24888713E-01 0.28859942E+03</pdfrwt>
<totfact> 0.10720573E+03</totfact>
</mgrwt>
</event>
<event>
12    1  0.2769346E-001  0.2346074E+03  0.7546771E-02  0.1124553E+00
         21   -1    0    0  504  503  0.00000000000E+00  0.00000000000E+00  0.10304398379E+03  0.10304398379E+03  0.00000000000E+00 0.  1.
         21   -1    0    0  502  504 -0.00000000000E+00 -0.00000000000E+00 -0.95552124795E+03  0.95552124795E+03  0.00000000000E+00 0. -1.
          6    2    1    2  502    0  0.93327274271E+02 -0.12608619171E+03 -0.78048073744E+03  0.81315913166E+03  0.16574041152E+03 0.  0.
         24    2    3    3    0    0  0.80655287745E+02 -0.15430723546E+03 -0.59976957171E+03  0.62975896270E+03  0.80974153858E+02 0.  0.
         -6    2    1    2    0  503 -0.93327274271E+02  0.12608619171E+03 -0.71996526713E+02  0.24540610009E+03  0.17445041198E+03 0.  0.
        -24    2    5    5    0    0  0.25153950087E+01  0.11261756940E+03 -0.37010174877E+02  0.14238495732E+03  0.78833234600E+02 0.  0.
          2    1    4    4  501    0  0.77944378169E+02 -0.79131200098E+02 -0.42917656307E+03  0.44331658575E+03  0.00000000000E+00 0. -1.
         -1    1    4    4    0  501  0.27109095758E+01 -0.75176035360E+02 -0.17059300864E+03  0.18644237694E+03  0.00000000000E+00 0.  1.
          5    1    3    3  502    0  0.12671986526E+02  0.28221043750E+02 -0.18071116574E+03  0.18340016896E+03  0.47000000000E+01 0. -1.
         11    1    6    6    0    0  0.85482602707E+00  0.48048528877E+02 -0.57204662017E+02  0.74711212085E+02  0.00000000000E+00 0. -1.
        -12    1    6    6    0    0  0.16605689816E+01  0.64569040526E+02  0.20194487140E+02  0.67673745238E+02  0.00000000000E+00 0.  1.
         -5    1    5    5    0  503 -0.95842669280E+02  0.13468622304E+02 -0.34986351836E+02  0.10302114276E+03  0.47000000000E+01 0.  1.
<mgrwt>
<rscale>  2 0.23299023E+03</rscale>
<asrwt>0</asrwt>
<pdfrwt beam="1">  1       21 0.15852921E-01 0.23460745E+03</pdfrwt>
<pdfrwt beam="2">  1       21 0.14700326E+00 0.23460745E+03</pdfrwt>
<totfact> 0.10854540E+04</totfact>
</mgrwt>
</event>
<event>
12    1  0.2769346E-001  0.2537299E+03  0.7546771E-02  0.1111132E+00
         21   -1    0    0  504  503  0.00000000000E+00  0.00000000000E+00  0.43298258726E+03  0.43298258726E+03  0.00000000000E+00 0. -1.
         21   -1    0    0  502  504 -0.00000000000E+00 -0.00000000000E+00 -0.20377013733E+03  0.20377013733E+03  0.00000000000E+00 0.  1.
          6    2    1    2  502    0  0.41980378063E+02 -0.18095979816E+03 -0.52011435991E+02  0.25798402245E+03  0.17129438308E+03 0.  0.
         24    2    3    3    0    0  0.87265971759E+02 -0.78842771455E+02 -0.21913194337E+02  0.14219686302E+03  0.76864994171E+02 0.  0.
         -6    2    1    2    0  503 -0.41980378063E+02  0.18095979816E+03  0.28122388592E+03  0.37876870215E+03  0.17282955483E+03 0.  0.
        -24    2    5    5    0    0 -0.41179755678E+02  0.20537907720E+03  0.26832732766E+03  0.35074454470E+03  0.84533089641E+02 0.  0.
          4    1    4    4  501    0  0.98826263133E+02 -0.78106512010E+02 -0.28104371555E+02  0.12906243917E+03  0.00000000000E+00 0. -1.
         -3    1    4    4    0  501 -0.11560291373E+02 -0.73625944515E+00  0.61911772184E+01  0.13134423853E+02  0.00000000000E+00 0.  1.
          5    1    3    3  502    0 -0.45285593696E+02 -0.10211702670E+03 -0.30098241655E+02  0.11578715943E+03  0.47000000000E+01 0. -1.
         11    1    6    6    0    0  0.17816625078E+02  0.16197899178E+02  0.12460458376E+02  0.27112120719E+02  0.00000000000E+00 0. -1.
        -12    1    6    6    0    0 -0.58996380756E+02  0.18918117802E+03  0.25586686928E+03  0.32363242399E+03  0.00000000000E+00 0.  1.
         -5    1    5    5    0  503 -0.80062238466E+00 -0.24419279044E+02  0.12896558267E+02  0.28024157443E+02  0.47000000000E+01 0.  1.
<mgrwt>
<rscale>  2 0.25346869E+03</rscale>
<asrwt>0</asrwt>
<pdfrwt beam="1">  1       21 0.66612706E-01 0.25372989E+03</pdfrwt>
<pdfrwt beam="2">  1       21 0.31349252E-01 0.25372989E+03</pdfrwt>
<totfact> 0.19540227E+04</totfact>
</mgrwt>
</event>
<event>
12    1  0.2769346E-001  0.2266037E+03  0.7546771E-02  0.1129829E+00
         21   -1    0    0  504  503  0.00000000000E+00  0.00000000000E+00  0.13592865402E+03  0.13592865402E+03  0.00000000000E+00 0.  1.
         21   -1    0    0  502  504 -0.00000000000E+00 -0.00000000000E+00 -0.89124380473E+03  0.89124380473E+03  0.00000000000E+00 0.  1.
          6    2    1    2  502    0 -0.13375484061E+03 -0.17971656212E+02 -0.77166249996E+03  0.80424639063E+03  0.18203270361E+03 0.  0.
         24    2    3    3    0    0 -0.12954318540E+03  0.17578509974E+02 -0.36222016556E+03  0.39321516608E+03  0.79525326783E+02 0.  0.
         -6    2    1    2    0  503  0.13375484061E+03  0.17971656212E+02  0.16347349261E+02  0.22292606812E+03  0.17667896933E+03 0.  0.
        -24    2    5    5    0    0  0.15198521536E+02  0.39483761778E+02 -0.29109293000E+02  0.94058819355E+02  0.78801954661E+02 0.  0.
          4    1    4    4  501    0 -0.16720475909E+02 -0.23534031524E+01 -0.15924400340E+03  0.16013670859E+03  0.00000000000E+00 0. -1.
         -3    1    4    4    0  501 -0.11282270949E+03  0.19931913127E+02 -0.20297616216E+03  0.23307845749E+03  0.00000000000E+00 0.  1.
          5    1    3    3  502    0 -0.42116552066E+01 -0.35550166186E+02 -0.40944233441E+03  0.41103122455E+03  0.47000000000E+01 0. -1.
         13    1    6    6    0    0  0.47874339068E+01 -0.12857667346E+02 -0.37596182251E+02  0.40021394939E+02  0.00000000000E+00 0. -1.
        -14    1    6    6    0    0  0.10411087629E+02  0.52341429124E+02  0.84868892506E+01  0.54037424416E+02  0.00000000000E+00 0.  1.
         -5    1    5    5    0  503  0.11855631907E+03 -0.21512105565E+02  0.45456642262E+02  0.12886724876E+03  0.47000000000E+01 0.  1.
<mgrwt>
<rscale>  2 0.22552660E+03</rscale>
<asrwt>0</asrwt>
<pdfrwt beam="1">  1       21 0.20912101E-01 0.22660371E+03</pdfrwt>
<pdfrwt beam="2">  1       21 0.13711443E+00 0.22660371E+03</pdfrwt>
<totfact> 0.78201442E+03</totfact>
</mgrwt>
</event>
<event>
12    1  0.2769346E-001  0.1784342E+03  0.7546771E-02  0.1169466E+00
         21   -1    0    0  504  503  0.00000000000E+00  0.00000000000E+00  0.13506047820E+03  0.13506047820E+03  0.00000000000E+00 0.  1.
         21   -1    0    0  502  504 -0.00000000000E+00 -0.00000000000E+00 -0.26172756741E+03  0.26172756741E+03  0.00000000000E+00 0.  1.
          6    2    1    2  502    0 -0.13197912310E+02 -0.40111112247E+02 -0.12896818892E-01  0.17843421804E+03  0.17336575148E+03 0.  0.
         24    2    3    3    0    0 -0.21279760712E+02  0.25515433023E+02 -0.34555522011E+02  0.10368501956E+03  0.91938205561E+02 0.  0.
         -6    2    1    2    0  503  0.13197912310E+02  0.40111112247E+02 -0.12665419239E+03  0.21835382758E+03  0.17278316860E+03 0.  0.
        -24    2    5    5    0    0  0.71715698128E+02  0.25868431672E+02 -0.10998309544E+03  0.15568644626E+03  0.79559230470E+02 0.  0.
          4    1    4    4  501    0 -0.92849655857E+01  0.51700484521E+02 -0.48671236788E+02  0.71610334283E+02  0.00000000000E+00 0. -1.
         -3    1    4    4    0  501 -0.11994795126E+02 -0.26185051498E+02  0.14115714777E+02  0.32074685279E+02  0.00000000000E+00 0.  1.
          5    1    3    3  502    0  0.80818484018E+01 -0.65626545270E+02  0.34542625192E+02  0.74749198476E+02  0.47000000000E+01 0. -1.
         11    1    6    6    0    0  0.23068263584E+02 -0.26434690684E+02 -0.56282358524E+02  0.66322255219E+02  0.00000000000E+00 0. -1.
        -12    1    6    6    0    0  0.48647434544E+02  0.52303122356E+02 -0.53700736913E+02  0.89364191044E+02  0.00000000000E+00 0.  1.
         -5    1    5    5    0  503 -0.58517785818E+02  0.14242680575E+02 -0.16671096954E+02  0.62667381313E+02  0.47000000000E+01 0.  1.
<mgrwt>
<rscale>  2 0.17829255E+03</rscale>
<asrwt>0</asrwt>
<pdfrwt beam="1">  1       21 0.20778535E-01 0.17843422E+03</pdfrwt>
<pdfrwt beam="2">  1       21 0.40265780E-01 0.17843422E+03</pdfrwt>
<totfact> 0.12835676E+05</totfact>
</mgrwt>
</event>
<event>
12    1  0.2769346E-001  0.2173813E+03  0.7546771E-02  0.1135942E+00
         21   -1    0    0  504  503  0.00000000000E+00  0.00000000000E+00  0.16061697485E+03  0.16061697485E+03  0.00000000000E+00 0.  1.
         21   -1    0    0  502  504 -0.00000000000E+00 -0.00000000000E+00 -0.10518476552E+04  0.10518476552E+04  0.00000000000E+00 0.  1.
          6    2    1    2  502    0 -0.60622699113E+02  0.11621951327E+03 -0.96020886188E+03  0.98440189743E+03  0.17281189290E+03 0.  0.
         24    2    3    3    0    0  0.30805603468E+02  0.83824796841E+02 -0.50509191846E+03  0.51903959304E+03  0.79427144462E+02 0.  0.
         -6    2    1    2    0  503  0.60622699113E+02 -0.11621951327E+03  0.68978181552E+02  0.22806273260E+03  0.17341434070E+03 0.  0.
        -24    2    5    5    0    0  0.96660616401E+02 -0.11981806006E+03  0.33156911684E+02  0.17690675156E+03  0.80603819237E+02 0.  0.
          2    1    4    4  501    0  0.41150397412E+02  0.77506695591E+02 -0.27572476108E+03  0.28935235776E+03  0.00000000000E+00 0. -1.
         -1    1    4    4    0  501 -0.10344793944E+02  0.63181012499E+01 -0.22936715739E+03  0.22968723528E+03  0.00000000000E+00 0.  1.
          5    1    3    3  502    0 -0.91428302580E+02  0.32394716428E+02 -0.45511694341E+03  0.46536230439E+03  0.47000000000E+01 0. -1.
         13    1    6    6    0    0  0.49905684283E+02 -0.11356697984E+02 -0.80591318583E+01  0.51812175394E+02  0.00000000000E+00 0. -1.
        -14    1    6    6    0    0  0.46754932119E+02 -0.10846136208E+03  0.41216043542E+02  0.12509457617E+03  0.00000000000E+00 0.  1.
         -5    1    5    5    0  503 -0.36037917289E+02  0.35985467901E+01  0.35821269868E+02  0.51155981043E+02  0.47000000000E+01 0.  1.
<mgrwt>
<rscale>  2 0.21726111E+03</rscale>
<asrwt>0</asrwt>
<pdfrwt beam="1">  1       21 0.24710304E-01 0.21738128E+03</pdfrwt>
<pdfrwt beam="2">  1       21 0.16182271E+00 0.21738128E+03</pdfrwt>
<totfact> 0.37005111E+03</totfact>
</mgrwt>
</event>
<event>
12    1  0.2769346E-001  0.2122633E+03  0.7546771E-02  0.1139930E+00
         21   -1    0    0  504  503  0.00000000000E+00  0.00000000000E+00  0.71097910183E+02  0.71097910183E+02  0.00000000000E+00 0. -1.
         21   -1    0    0  502  504 -0.00000000000E+00 -0.00000000000E+00 -0.69520248472E+03  0.69520248472E+03  0.00000000000E+00 0. -1.
          6    2    1    2  502    0  0.99644996364E+02 -0.70880628768E+02 -0.19559825925E+03  0.28810232971E+03  0.17260094011E+03 0.  0.
         24    2    3    3    0    0  0.89477297642E+01 -0.54399787523E+02 -0.15975430444E+03  0.18908469798E+03  0.84806759584E+02 0.  0.
         -6    2    1    2    0  503 -0.99644996364E+02  0.70880628768E+02 -0.42850631529E+03  0.47819806520E+03  0.17350083136E+03 0.  0.
        -24    2    5    5    0    0 -0.13090416685E+03  0.74435191221E+02 -0.39543243686E+03  0.43230969970E+03  0.88591002601E+02 0.  0.
          2    1    4    4  501    0  0.36583854854E+01 -0.66596389039E+02 -0.16237074467E+03  0.17553552786E+03  0.00000000000E+00 0. -1.
         -1    1    4    4    0  501  0.52893442788E+01  0.12196601516E+02  0.26164402243E+01  0.13549170118E+02  0.00000000000E+00 0.  1.
          5    1    3    3  502    0  0.90697266600E+02 -0.16480841245E+02 -0.35843954807E+02  0.99017631728E+02  0.47000000000E+01 0. -1.
         11    1    6    6    0    0 -0.10261566529E+03  0.36667020616E+02 -0.16952868741E+03  0.20153019877E+03  0.00000000000E+00 0. -1.
        -12    1    6    6    0    0 -0.28288501567E+02  0.37768170606E+02 -0.22590374946E+03  0.23077950093E+03  0.00000000000E+00 0.  1.
         -5    1    5    5    0  503  0.31259170488E+02 -0.35545624538E+01 -0.33073878428E+02  0.45888365498E+02  0.47000000000E+01 0.  1.
<mgrwt>
<rscale>  2 0.21207937E+03</rscale>
<asrwt>0</asrwt>
<pdfrwt beam="1">  1       21 0.10938140E-01 0.21226334E+03</pdfrwt>
<pdfrwt beam="2">  1       21 0.10695423E+00 0.21226334E+03</pdfrwt>
<totfact> 0.47893906E+04</totfact>
</mgrwt>
</event>
<event>
12    1  0.2769346E-001  0.2464930E+03  0.7546771E-02  0.1116106E+00
         21   -1    0    0  504  503  0.00000000000E+00  0.00000000000E+00  0.53008847865E+03  0.53008847865E+03  0.00000000000E+00 0.  1.
         21   -1    0    0  502  504 -0.00000000000E+00 -0.00000000000E+00 -0.12186219112E+03  0.12186219112E+03  0.00000000000E+00 0.  1.
          6    2    1    2  502    0 -0.16466646147E+03 -0.44746103650E+02  0.29333540872E+03  0.38315070266E+03  0.17788069490E+03 0.  0.
         24    2    3    3    0    0 -0.14079163295E+03  0.38978886599E+01  0.28558676484E+03  0.32821094559E+03  0.79530793467E+02 0.  0.
         -6    2    1    2    0  503  0.16466646147E+03  0.44746103650E+02  0.11489087881E+03  0.26879996710E+03  0.17302095525E+03 0.  0.
        -24    2    5    5    0    0  0.26186499512E+02  0.55202938020E+02  0.74717135109E+02  0.12415535112E+03  0.78094838564E+02 0.  0.
          2    1    4    4  501    0 -0.13392753884E+03  0.23714200991E+02  0.21356013963E+03  0.25319336924E+03  0.00000000000E+00 0. -1.
         -1    1    4    4    0  501 -0.68640941077E+01 -0.19816312331E+02  0.72026625210E+02  0.75017576350E+02  0.00000000000E+00 0.  1.
          5    1    3    3  502    0 -0.23874828523E+02 -0.48643992310E+02  0.77486438721E+01  0.54939757069E+02  0.47000000000E+01 0. -1.
         13    1    6    6    0    0 -0.17428503993E+02 -0.76431331223E+01  0.29408162694E+01  0.19256651726E+02  0.00000000000E+00 0. -1.
        -14    1    6    6    0    0  0.43615003505E+02  0.62846071142E+02  0.71776318840E+02  0.10489869940E+03  0.00000000000E+00 0.  1.
         -5    1    5    5    0  503  0.13847996196E+03 -0.10456834370E+02  0.40173743704E+02  0.14464461598E+03  0.47000000000E+01 0.  1.
<mgrwt>
<rscale>  2 0.24561741E+03</rscale>
<asrwt>0</asrwt>
<pdfrwt beam="1">  1       21 0.81552073E-01 0.24649300E+03</pdfrwt>
<pdfrwt beam="2">  1       21 0.18748030E-01 0.24649300E+03</pdfrwt>
<totfact> 0.33369394E+04</totfact>
</mgrwt>
</event>
<event>
12    1  0.2769346E-001  0.2203138E+03  0.7546771E-02  0.1133761E+00
         21   -1    0    0  504  503  0.00000000000E+00  0.00000000000E+00  0.31665649019E+02  0.31665649019E+02  0.00000000000E+00 0. -1.
         21   -1    0    0  502  504 -0.00000000000E+00 -0.00000000000E+00 -0.23474473161E+04  0.23474473161E+04  0.00000000000E+00 0.  1.
          6    2    1    2  502    0  0.44532264308E+02 -0.12846494251E+03 -0.18614631352E+04  0.18744554338E+04  0.17335456611E+03 0.  0.
         24    2    3    3    0    0 -0.38702498963E+02 -0.57998094288E+02 -0.88173339269E+03  0.88866333560E+03  0.86064428744E+02 0.  0.
         -6    2    1    2    0  503 -0.44532264308E+02  0.12846494251E+03 -0.45431853194E+03  0.50465753137E+03  0.17259064717E+03 0.  0.
        -24    2    5    5    0    0  0.27752058426E+02  0.36679798452E+02 -0.11816263555E+03  0.14874685064E+03  0.77766527336E+02 0.  0.
          2    1    4    4  501    0 -0.58414755727E+02 -0.15928713326E+02 -0.38121202348E+03  0.38599043309E+03  0.00000000000E+00 0. -1.
         -1    1    4    4    0  501  0.19712256764E+02 -0.42069380963E+02 -0.50052136921E+03  0.50267290251E+03  0.00000000000E+00 0.  1.
          5    1    3    3  502    0  0.83234763270E+02 -0.70466848217E+02 -0.97972974249E+03  0.98579209818E+03  0.47000000000E+01 0. -1.
         13    1    6    6    0    0 -0.26510516361E+02  0.54200200710E+01 -0.27693669647E+02  0.38718515387E+02  0.00000000000E+00 0. -1.
        -14    1    6    6    0    0  0.54262574787E+02  0.31259778381E+02 -0.90468965904E+02  0.11002833525E+03  0.00000000000E+00 0.  1.
         -5    1    5    5    0  503 -0.72284322734E+02  0.91785144053E+02 -0.33615589639E+03  0.35591068073E+03  0.47000000000E+01 0.  1.
<mgrwt>
<rscale>  2 0.22016350E+03</rscale>
<asrwt>0</asrwt>
<pdfrwt beam="1">  1       21 0.48716390E-02 0.22031380E+03</pdfrwt>
<pdfrwt beam="2">  1       21 0.36114569E+00 0.22031380E+03</pdfrwt>
<totfact> 0.40793161E+03</totfact>
</mgrwt>
</event>
<event>
12    1  0.2769346E-001  0.3397880E+03  0.7546771E-02  0.1067238E+00
         21   -1    0    0  504  503  0.00000000000E+00  0.00000000000E+00  0.21262554701E+03  0.21262554701E+03  0.00000000000E+00 0.  1.
         21   -1    0    0  502  504 -0.00000000000E+00 -0.00000000000E+00 -0.65162330346E+03  0.65162330346E+03  0.00000000000E+00 0. -1.
          6    2    1    2  502    0 -0.16884341681E+03  0.23596631901E+03 -0.39925061615E+03  0.52214403736E+03  0.17042634228E+03 0.  0.
         24    2    3    3    0    0 -0.18359513207E+03  0.19660030276E+03 -0.38708397063E+03  0.47812797664E+03  0.80084393978E+02 0.  0.
         -6    2    1    2    0  503  0.16884341681E+03 -0.23596631901E+03 -0.39747140300E+02  0.34210481311E+03  0.17682665208E+03 0.  0.
        -24    2    5    5    0    0  0.10257500287E+03 -0.22390480292E+03 -0.68661595455E+02  0.26865334224E+03  0.82493706555E+02 0.  0.
          4    1    4    4  501    0 -0.17342319619E+03  0.20051032202E+03 -0.34753306936E+03  0.43710322410E+03  0.00000000000E+00 0. -1.
         -3    1    4    4    0  501 -0.10171935882E+02 -0.39100192585E+01 -0.39550901266E+02  0.41024752542E+02  0.00000000000E+00 0.  1.
          5    1    3    3  502    0  0.14751715259E+02  0.39366016241E+02 -0.12166645524E+02  0.44016060717E+02  0.47000000000E+01 0. -1.
         11    1    6    6    0    0  0.87496290355E+02 -0.12990073198E+03 -0.74157368340E+02  0.17328911181E+03  0.00000000000E+00 0. -1.
        -12    1    6    6    0    0  0.15078712514E+02 -0.94004070942E+02  0.54957728853E+01  0.95364230424E+02  0.00000000000E+00 0.  1.
         -5    1    5    5    0  503  0.66268413942E+02 -0.12061516085E+02  0.28914455154E+02  0.73451470874E+02  0.47000000000E+01 0.  1.
<mgrwt>
<rscale>  2 0.33896339E+03</rscale>
<asrwt>0</asrwt>
<pdfrwt beam="1">  1       21 0.32711623E-01 0.33978798E+03</pdfrwt>
<pdfrwt beam="2">  1       21 0.10024974E+00 0.33978798E+03</pdfrwt>
<totfact> 0.67485461E+03</totfact>
</mgrwt>
</event>
<event>
12    1  0.2769346E-001  0.2095847E+03  0.7546771E-02  0.1143319E+00
         21   -1    0    0  504  503  0.00000000000E+00  0.00000000000E+00  0.23658577170E+04  0.23658577170E+04  0.00000000000E+00 0.  1.
         21   -1    0    0  502  504 -0.00000000000E+00 -0.00000000000E+00 -0.39387126721E+02  0.39387126721E+02  0.00000000000E+00 0. -1.
          6    2    1    2  502    0  0.94987224233E+02 -0.72293756935E+02  0.28507994246E+03  0.35383090195E+03  0.17226947938E+03 0.  0.
         24    2    3    3    0    0  0.10459686958E+03  0.20401159270E+01  0.14629696142E+03  0.19603142235E+03  0.77979807820E+02 0.  0.
         -6    2    1    2    0  503 -0.94987224233E+02  0.72293756935E+02  0.20413906478E+04  0.20514139417E+04  0.16362891984E+03 0.  0.
        -24    2    5    5    0    0 -0.60789219145E+02 -0.81382634928E+01  0.14636062995E+04  0.14670376446E+04  0.79337824542E+02 0.  0.
          2    1    4    4  501    0  0.67561076730E+02 -0.26834508995E+02  0.48056984163E+02  0.87143925140E+02  0.00000000000E+00 0. -1.
         -1    1    4    4    0  501  0.37035792848E+02  0.28874624922E+02  0.98239977258E+02  0.10888749721E+03  0.00000000000E+00 0.  1.
          5    1    3    3  502    0 -0.96096453455E+01 -0.74333872862E+02  0.13878298104E+03  0.15779947960E+03  0.47000000000E+01 0. -1.
         13    1    6    6    0    0 -0.77024083460E+02 -0.19956020827E+02  0.10969848583E+04  0.10998666881E+04  0.00000000000E+00 0. -1.
        -14    1    6    6    0    0  0.16234864316E+02  0.11817757335E+02  0.36662144114E+03  0.36717095652E+03  0.00000000000E+00 0.  1.
         -5    1    5    5    0  503 -0.34198005089E+02  0.80432020428E+02  0.57778434831E+03  0.58437629711E+03  0.47000000000E+01 0.  1.
<mgrwt>
<rscale>  2 0.20780145E+03</rscale>
<asrwt>0</asrwt>
<pdfrwt beam="1">  1       21 0.36397800E+00 0.20958467E+03</pdfrwt>
<pdfrwt beam="2">  1       21 0.60595598E-02 0.20958467E+03</pdfrwt>
<totfact> 0.27387507E+03</totfact>
</mgrwt>
</event>
<event>
12    1  0.2769346E-001  0.2074474E+03  0.7546771E-02  0.1143734E+00
         21   -1    0    0  504  503  0.00000000000E+00  0.00000000000E+00  0.36041863220E+03  0.36041863220E+03  0.00000000000E+00 0.  1.
         21   -1    0    0  502  504 -0.00000000000E+00 -0.00000000000E+00 -0.12215382096E+03  0.12215382096E+03  0.00000000000E+00 0.  1.
          6    2    1    2  502    0  0.33045848095E+02  0.10844455711E+03  0.15753939966E+03  0.25997191777E+03  0.17295804560E+03 0.  0.
         24    2    3    3    0    0  0.54373200800E+02  0.13837876305E+03  0.11709949413E+03  0.20512313821E+03  0.79108048118E+02 0.  0.
         -6    2    1    2    0  503 -0.33045848095E+02 -0.10844455711E+03  0.80725411572E+02  0.22260053539E+03  0.17373012474E+03 0.  0.
        -24    2    5    5    0    0 -0.16325034303E+01 -0.13869365125E+03  0.80243648864E+02  0.17873565178E+03  0.79175729033E+02 0.  0.
          2    1    4    4  501    0  0.71175829402E+02  0.13286603745E+03  0.10495006925E+03  0.18366790584E+03  0.00000000000E+00 0. -1.
         -1    1    4    4    0  501 -0.16802628602E+02  0.55127255986E+01  0.12149424881E+02  0.21455232378E+02  0.00000000000E+00 0.  1.
          5    1    3    3  502    0 -0.21327352705E+02 -0.29934205941E+02  0.40439905532E+02  0.54848779551E+02  0.47000000000E+01 0. -1.
         13    1    6    6    0    0 -0.67406622737E+01  0.65861907970E+01  0.18569814324E+02  0.20824323306E+02  0.00000000000E+00 0. -1.
        -14    1    6    6    0    0  0.51081588433E+01 -0.14527984205E+03  0.61673834540E+02  0.15791132847E+03  0.00000000000E+00 0.  1.
         -5    1    5    5    0  503 -0.31413344664E+02  0.30249094143E+02  0.48176270771E+00  0.43864883618E+02  0.47000000000E+01 0.  1.
<mgrwt>
<rscale>  2 0.20728563E+03</rscale>
<asrwt>0</asrwt>
<pdfrwt beam="1">  1       21 0.55449020E-01 0.20744736E+03</pdfrwt>
<pdfrwt beam="2">  1       21 0.18792896E-01 0.20744736E+03</pdfrwt>
<totfact> 0.78964561E+04</totfact>
</mgrwt>
</event>
<event>
12    1  0.2769346E-001  0.2779597E+03  0.7546771E-02  0.1096832E+00
         21   -1    0    0  504  503  0.00000000000E+00  0.00000000000E+00  0.10337700645E+03  0.10337700645E+03  0.00000000000E+00 0. -1.
         21   -1    0    0  502  504 -0.00000000000E+00 -0.00000000000E+00 -0.86925352266E+03  0.86925352266E+03  0.00000000000E+00 0.  1.
          6    2    1    2  502    0 -0.15897773939E+02  0.21622579184E+03 -0.56527700032E+03  0.62984522311E+03  0.17366803306E+03 0.  0.
         24    2    3    3    0    0 -0.15514636129E+01  0.21521914831E+03 -0.38025634769E+03  0.44420696776E+03  0.80020318704E+02 0.  0.
         -6    2    1    2    0  503  0.15897773939E+02 -0.21622579184E+03 -0.20059951589E+03  0.34278530600E+03  0.17394041498E+03 0.  0.
        -24    2    5    5    0    0  0.59824896285E+02 -0.21010045381E+03 -0.16621278038E+03  0.28646790707E+03  0.81950927466E+02 0.  0.
          4    1    4    4  501    0 -0.40569345278E+02  0.12136808397E+03 -0.21412633184E+03  0.24945173796E+03  0.00000000000E+00 0. -1.
         -3    1    4    4    0  501  0.39017881665E+02  0.93851064342E+02 -0.16613001585E+03  0.19475522980E+03  0.00000000000E+00 0.  1.
          5    1    3    3  502    0 -0.14346310326E+02  0.10066435343E+01 -0.18502065263E+03  0.18563825535E+03  0.47000000000E+01 0. -1.
         11    1    6    6    0    0  0.36636853844E+02 -0.68595357485E+02 -0.17155570623E+02  0.79636020314E+02  0.00000000000E+00 0. -1.
        -12    1    6    6    0    0  0.23188042442E+02 -0.14150509632E+03 -0.14905720976E+03  0.20683188676E+03  0.00000000000E+00 0.  1.
         -5    1    5    5    0  503 -0.43927122346E+02 -0.61253380329E+01 -0.34386735505E+02  0.56317398931E+02  0.47000000000E+01 0.  1.
<mgrwt>
<rscale>  2 0.27791711E+03</rscale>
<asrwt>0</asrwt>
<pdfrwt beam="1">  1       21 0.15904155E-01 0.27795971E+03</pdfrwt>
<pdfrwt beam="2">  1       21 0.13373131E+00 0.27795971E+03</pdfrwt>
<totfact> 0.13479176E+04</totfact>
</mgrwt>
</event>
<event>
12    1  0.2769346E-001  0.1891961E+03  0.7546771E-02  0.1159385E+00
         21   -1    0    0  504  503  0.00000000000E+00  0.00000000000E+00  0.12943247617E+03  0.12943247617E+03  0.00000000000E+00 0.  1.
         21   -1    0    0  502  504 -0.00000000000E+00 -0.00000000000E+00 -0.50245110080E+03  0.50245110080E+03  0.00000000000E+00 0.  1.
          6    2    1    2  502    0 -0.57420030941E+02  0.31343146905E+02 -0.39917696379E+03  0.44174362075E+03  0.17752668881E+03 0.  0.
         24    2    3    3    0    0 -0.18224907470E+02 -0.74255169379E+01 -0.36865053962E+03  0.37855169426E+03  0.83730993752E+02 0.  0.
         -6    2    1    2    0  503  0.57420030941E+02 -0.31343146905E+02  0.26158339161E+02  0.19013995622E+03  0.17660546830E+03 0.  0.
        -24    2    5    5    0    0 -0.30658885766E+02  0.16530400610E+02  0.18643946731E+02  0.89500360570E+02  0.80308756507E+02 0.  0.
          4    1    4    4  501    0 -0.17611806715E+02 -0.16588676030E+01 -0.10950886375E+02  0.20805035205E+02  0.00000000000E+00 0. -1.
         -3    1    4    4    0  501 -0.61310075531E+00 -0.57666493349E+01 -0.35769965324E+03  0.35774665906E+03  0.00000000000E+00 0.  1.
          5    1    3    3  502    0 -0.39195123471E+02  0.38768663843E+02 -0.30526424175E+02  0.63191926486E+02  0.47000000000E+01 0. -1.
         13    1    6    6    0    0  0.54445863151E+01 -0.56517720766E+01 -0.26468971348E+02  0.27607833888E+02  0.00000000000E+00 0. -1.
        -14    1    6    6    0    0 -0.36103472081E+02  0.22182172687E+02  0.45112918079E+02  0.61892526682E+02  0.00000000000E+00 0.  1.
         -5    1    5    5    0  503  0.88078916708E+02 -0.47873547515E+02  0.75143924303E+01  0.10063959566E+03  0.47000000000E+01 0.  1.
<mgrwt>
<rscale>  2 0.18897973E+03</rscale>
<asrwt>0</asrwt>
<pdfrwt beam="1">  1       21 0.19912689E-01 0.18919614E+03</pdfrwt>
<pdfrwt beam="2">  1       21 0.77300169E-01 0.18919614E+03</pdfrwt>
<totfact> 0.34645093E+04</totfact>
</mgrwt>
</event>
<event>
12    1  0.2769346E-001  0.2047154E+03  0.7546771E-02  0.1145867E+00
         21   -1    0    0  504  503  0.00000000000E+00  0.00000000000E+00  0.36713767109E+03  0.36713767109E+03  0.00000000000E+00 0.  1.
         21   -1    0    0  502  504 -0.00000000000E+00 -0.00000000000E+00 -0.11490034283E+03  0.11490034283E+03  0.00000000000E+00 0.  1.
          6    2    1    2  502    0  0.10442927771E+03 -0.30858125207E+02  0.14725892183E+03  0.25217768554E+03  0.17335136889E+03 0.  0.
         24    2    3    3    0    0  0.59948870465E+02 -0.11105929955E+01  0.16751228120E+03  0.19476940333E+03  0.79244278234E+02 0.  0.
         -6    2    1    2    0  503 -0.10442927771E+03  0.30858125207E+02  0.10497840644E+03  0.22986032837E+03  0.17308265889E+03 0.  0.
        -24    2    5    5    0    0 -0.83643357639E+02 -0.85127831840E+01  0.13364931191E+03  0.17669799470E+03  0.79318119013E+02 0.  0.
          4    1    4    4  501    0  0.42020242697E+02  0.35561147179E+02  0.12069403945E+03  0.13265499291E+03  0.00000000000E+00 0. -1.
         -3    1    4    4    0  501  0.17928627768E+02 -0.36671740175E+02  0.46818241753E+02  0.62114410421E+02  0.00000000000E+00 0.  1.
          5    1    3    3  502    0  0.44480407242E+02 -0.29747532212E+02 -0.20253359375E+02  0.57408282217E+02  0.47000000000E+01 0. -1.
         11    1    6    6    0    0 -0.54996055184E+02 -0.38487351171E+02  0.51245356853E+02  0.84450748280E+02  0.00000000000E+00 0. -1.
        -12    1    6    6    0    0 -0.28647302456E+02  0.29974567987E+02  0.82403955056E+02  0.92247246424E+02  0.00000000000E+00 0.  1.
         -5    1    5    5    0  503 -0.20785920068E+02  0.39370908391E+02 -0.28670905473E+02  0.53162333670E+02  0.47000000000E+01 0.  1.
<mgrwt>
<rscale>  2 0.20465850E+03</rscale>
<asrwt>0</asrwt>
<pdfrwt beam="1">  1       21 0.56482718E-01 0.20471540E+03</pdfrwt>
<pdfrwt beam="2">  1       21 0.17676976E-01 0.20471540E+03</pdfrwt>
<totfact> 0.85148266E+04</totfact>
</mgrwt>
</event>
<event>
12    1  0.2769346E-001  0.2044720E+03  0.7546771E-02  0.1146034E+00
         21   -1    0    0  504  503  0.00000000000E+00  0.00000000000E+00  0.35676746261E+02  0.35676746261E+02  0.00000000000E+00 0.  1.
         21   -1    0    0  502  504 -0.00000000000E+00 -0.00000000000E+00 -0.16166753523E+04  0.16166753523E+04  0.00000000000E+00 0. -1.
          6    2    1    2  502    0 -0.73489456025E+02 -0.79035166936E+02 -0.12241431896E+04  0.12411024750E+04  0.17367080108E+03 0.  0.
         24    2    3    3    0    0  0.28789784367E+02 -0.18903599346E+02 -0.58749834014E+03  0.59347943439E+03  0.76663822143E+02 0.  0.
         -6    2    1    2    0  503  0.73489456025E+02  0.79035166936E+02 -0.35685541654E+03  0.41124962362E+03  0.17358918991E+03 0.  0.
        -24    2    5    5    0    0  0.31590158720E+02  0.30061923380E+02 -0.32843278053E+03  0.34065312273E+03  0.79213643641E+02 0.  0.
          2    1    4    4  501    0 -0.66856170055E+01 -0.41352227270E+02 -0.31252243788E+03  0.31531726619E+03  0.00000000000E+00 0. -1.
         -1    1    4    4    0  501  0.35475401373E+02  0.22448627924E+02 -0.27497590226E+03  0.27816216821E+03  0.00000000000E+00 0.  1.
          5    1    3    3  502    0 -0.10227924039E+03 -0.60131567590E+02 -0.63664484941E+03  0.64762304060E+03  0.47000000000E+01 0. -1.
         13    1    6    6    0    0  0.53385212162E+02  0.21563890492E+00 -0.18693496713E+03  0.19440861430E+03  0.00000000000E+00 0. -1.
        -14    1    6    6    0    0 -0.21795053442E+02  0.29846284476E+02 -0.14149781340E+03  0.14624450844E+03  0.00000000000E+00 0.  1.
         -5    1    5    5    0  503  0.41899297305E+02  0.48973243556E+02 -0.28422636009E+02  0.70596500882E+02  0.47000000000E+01 0.  1.
<mgrwt>
<rscale>  2 0.20445468E+03</rscale>
<asrwt>0</asrwt>
<pdfrwt beam="1">  1       21 0.54887307E-02 0.20447201E+03</pdfrwt>
<pdfrwt beam="2">  1       21 0.24871926E+00 0.20447201E+03</pdfrwt>
<totfact> 0.15369853E+04</totfact>
</mgrwt>
</event>
<event>
12    1  0.2769346E-001  0.1808131E+03  0.7546771E-02  0.1167064E+00
         21   -1    0    0  504  503  0.00000000000E+00  0.00000000000E+00  0.15034428921E+03  0.15034428921E+03  0.00000000000E+00 0. -1.
         21   -1    0    0  502  504 -0.00000000000E+00 -0.00000000000E+00 -0.23084478706E+03  0.23084478706E+03  0.00000000000E+00 0. -1.
          6    2    1    2  502    0 -0.44852136382E+02 -0.13366823611E+02  0.60577281791E+01  0.18072531416E+03  0.17445502857E+03 0.  0.
         24    2    3    3    0    0 -0.52366080756E+02  0.30790394084E+02  0.56525662287E+02  0.11308345132E+03  0.76827480007E+02 0.  0.
         -6    2    1    2    0  503  0.44852136382E+02  0.13366823611E+02 -0.86558226026E+02  0.20046376212E+03  0.17465110168E+03 0.  0.
        -24    2    5    5    0    0 -0.97401442666E+01  0.38163443896E+02  0.90944942188E+01  0.87473840556E+02  0.77573475469E+02 0.  0.
          4    1    4    4  501    0 -0.64083714129E+02  0.35281753887E+01  0.22676499582E+02  0.68069039008E+02  0.00000000000E+00 0. -1.
         -3    1    4    4    0  501  0.11717633373E+02  0.27262218696E+02  0.33849162705E+02  0.45014412314E+02  0.00000000000E+00 0.  1.
          5    1    3    3  502    0  0.75139443734E+01 -0.44157217696E+02 -0.50467934108E+02  0.67641862835E+02  0.47000000000E+01 0. -1.
         13    1    6    6    0    0 -0.23262810580E+01  0.59923268850E+02  0.18318897107E+02  0.62704000865E+02  0.00000000000E+00 0. -1.
        -14    1    6    6    0    0 -0.74138632086E+01 -0.21759824954E+02 -0.92244028881E+01  0.24769839692E+02  0.00000000000E+00 0.  1.
         -5    1    5    5    0  503  0.54592280649E+02 -0.24796620284E+02 -0.95652720245E+02  0.11298992156E+03  0.47000000000E+01 0.  1.
<mgrwt>
<rscale>  2 0.18076578E+03</rscale>
<asrwt>0</asrwt>
<pdfrwt beam="1">  1       21 0.23129891E-01 0.18081315E+03</pdfrwt>
<pdfrwt beam="2">  1       21 0.35514582E-01 0.18081315E+03</pdfrwt>
<totfact> 0.13477233E+05</totfact>
</mgrwt>
</event>
<event>
12    1  0.2769346E-001  0.1884053E+03  0.7546771E-02  0.1159930E+00
         21   -1    0    0  504  503  0.00000000000E+00  0.00000000000E+00  0.10350700134E+03  0.10350700134E+03  0.00000000000E+00 0.  1.
         21   -1    0    0  502  504 -0.00000000000E+00 -0.00000000000E+00 -0.35947864270E+03  0.35947864270E+03  0.00000000000E+00 0. -1.
          6    2    1    2  502    0  0.74024643298E+02  0.14192091657E+02 -0.78030009749E+02  0.20383356582E+03  0.17256412389E+03 0.  0.
         24    2    3    3    0    0  0.83569262105E+02  0.65244116977E+02 -0.40642168914E+02  0.13966698823E+03  0.81329363327E+02 0.  0.
         -6    2    1    2    0  503 -0.74024643298E+02 -0.14192091657E+02 -0.17794163161E+03  0.25915207822E+03  0.17267168877E+03 0.  0.
        -24    2    5    5    0    0 -0.25007382534E+02 -0.49173022879E+01 -0.18929897519E+03  0.20777316402E+03  0.81768188433E+02 0.  0.
          2    1    4    4  501    0  0.98256504398E+02  0.66490006500E+02 -0.33442098070E+02  0.12326246608E+03  0.00000000000E+00 0. -1.
         -1    1    4    4    0  501 -0.14687242293E+02 -0.12458895232E+01 -0.72000708440E+01  0.16404522152E+02  0.00000000000E+00 0.  1.
          5    1    3    3  502    0 -0.95446188071E+01 -0.51052025320E+02 -0.37387840835E+02  0.64166577591E+02  0.47000000000E+01 0. -1.
         13    1    6    6    0    0  0.42095076691E+01 -0.34193424756E+02 -0.13607001340E+03  0.14036366623E+03  0.00000000000E+00 0. -1.
        -14    1    6    6    0    0 -0.29216890203E+02  0.29276122468E+02 -0.53228961785E+02  0.67409497792E+02  0.00000000000E+00 0.  1.
         -5    1    5    5    0  503 -0.49017260764E+02 -0.92747893691E+01  0.11357343573E+02  0.51378914193E+02  0.47000000000E+01 0.  1.
<mgrwt>
<rscale>  2 0.18838070E+03</rscale>
<asrwt>0</asrwt>
<pdfrwt beam="1">  1       21 0.15924154E-01 0.18840535E+03</pdfrwt>
<pdfrwt beam="2">  1       21 0.55304408E-01 0.18840535E+03</pdfrwt>
<totfact> 0.10860709E+05</totfact>
</mgrwt>
</event>
<event>
12    1  0.2769346E-001  0.1807275E+03  0.7546771E-02  0.1167398E+00
         21   -1    0    0  504  503  0.00000000000E+00  0.00000000000E+00  0.98519819056E+03  0.98519819056E+03  0.00000000000E+00 0. -1.
         21   -1    0    0  502  504 -0.00000000000E+00 -0.00000000000E+00 -0.83358299397E+02  0.83358299397E+02  0.00000000000E+00 0.  1.
          6    2    1    2  502    0 -0.50791419648E+02 -0.20276887798E+02  0.34746041045E+02  0.18282844706E+03  0.17096208117E+03 0.  0.
         24    2    3    3    0    0 -0.30770830851E+01 -0.38651105262E+01 -0.38439224255E+02  0.93810598264E+02  0.85430947938E+02 0.  0.
         -6    2    1    2    0  503  0.50791419648E+02  0.20276887798E+02  0.86709385012E+03  0.88572804290E+03  0.17225417434E+03 0.  0.
        -24    2    5    5    0    0 -0.70344058031E+01  0.62898445366E+02  0.34556249481E+03  0.35925157825E+03  0.75116984518E+02 0.  0.
          2    1    4    4  501    0 -0.41110569393E+01 -0.39988142651E+02 -0.41206811442E+02  0.57566949294E+02  0.00000000000E+00 0. -1.
         -1    1    4    4    0  501  0.10339738541E+01  0.36123032124E+02  0.27675871877E+01  0.36243648970E+02  0.00000000000E+00 0.  1.
          5    1    3    3  502    0 -0.47714336563E+02 -0.16411777272E+02  0.73185265300E+02  0.89017848794E+02  0.47000000000E+01 0. -1.
         13    1    6    6    0    0 -0.24381600770E+02  0.73809298516E+02  0.27380294620E+03  0.28462313391E+03  0.00000000000E+00 0. -1.
        -14    1    6    6    0    0  0.17347194967E+02 -0.10910853150E+02  0.71759548606E+02  0.74628444348E+02  0.00000000000E+00 0.  1.
         -5    1    5    5    0  503  0.57825825451E+02 -0.42621557568E+02  0.52153135531E+03  0.52647646465E+03  0.47000000000E+01 0.  1.
<mgrwt>
<rscale>  2 0.18041892E+03</rscale>
<asrwt>0</asrwt>
<pdfrwt beam="1">  1       21 0.15156894E+00 0.18072748E+03</pdfrwt>
<pdfrwt beam="2">  1       21 0.12824354E-01 0.18072748E+03</pdfrwt>
<totfact> 0.15278231E+04</totfact>
</mgrwt>
</event>
<event>
12    1  0.2769346E-001  0.2144429E+03  0.7546771E-02  0.1138686E+00
         21   -1    0    0  504  503  0.00000000000E+00  0.00000000000E+00  0.18867692193E+03  0.18867692193E+03  0.00000000000E+00 0. -1.
         21   -1    0    0  502  504 -0.00000000000E+00 -0.00000000000E+00 -0.39264667934E+03  0.39264667934E+03  0.00000000000E+00 0. -1.
          6    2    1    2  502    0  0.12441760739E+03 -0.26852275128E+02 -0.28349265460E+03  0.35546283920E+03  0.17258319482E+03 0.  0.
         24    2    3    3    0    0  0.67445432465E+02  0.10509166549E+02 -0.58020911300E+02  0.11987569383E+03  0.79651910715E+02 0.  0.
         -6    2    1    2    0  503 -0.12441760739E+03  0.26852275128E+02  0.79522897194E+02  0.22586076207E+03  0.16878509103E+03 0.  0.
        -24    2    5    5    0    0 -0.96659170776E+02  0.12679632627E+02  0.12504801260E+03  0.17048910206E+03  0.62655886288E+02 0.  0.
          4    1    4    4  501    0  0.79768476151E+02 -0.10045363935E+02 -0.49633065768E+02  0.94484709565E+02  0.00000000000E+00 0. -1.
         -3    1    4    4    0  501 -0.12323043686E+02  0.20554530484E+02 -0.83878455318E+01  0.25390984262E+02  0.00000000000E+00 0.  1.
          5    1    3    3  502    0  0.56972174927E+02 -0.37361441677E+02 -0.22547174330E+03  0.23558714538E+03  0.47000000000E+01 0. -1.
         11    1    6    6    0    0 -0.99154706034E+02  0.17163281484E+02  0.89805509531E+02  0.13487499213E+03  0.00000000000E+00 0. -1.
        -12    1    6    6    0    0  0.24955352583E+01 -0.44836488566E+01  0.35242503072E+02  0.35614109930E+02  0.00000000000E+00 0.  1.
         -5    1    5    5    0  503 -0.27758436616E+02  0.14172642501E+02 -0.45525115409E+02  0.55371660007E+02  0.47000000000E+01 0.  1.
<mgrwt>
<rscale>  2 0.21367761E+03</rscale>
<asrwt>0</asrwt>
<pdfrwt beam="1">  1       21 0.29027219E-01 0.21444287E+03</pdfrwt>
<pdfrwt beam="2">  1       21 0.60407181E-01 0.21444287E+03</pdfrwt>
<totfact> 0.28671985E+04</totfact>
</mgrwt>
</event>
<event>
12    1  0.2769346E-001  0.1953750E+03  0.7546771E-02  0.1153897E+00
         21   -1    0    0  504  503  0.00000000000E+00  0.00000000000E+00  0.12743467152E+04  0.12743467152E+04  0.00000000000E+00 0. -1.
         21   -1    0    0  502  504 -0.00000000000E+00 -0.00000000000E+00 -0.37975411983E+02  0.37975411983E+02  0.00000000000E+00 0. -1.
          6    2    1    2  502    0  0.89130554339E+02 -0.82438545472E+01  0.31515760209E+03  0.37080410869E+03  0.17366391685E+03 0.  0.
         24    2    3    3    0    0  0.76452246102E+02 -0.69606721028E+02  0.23782395427E+03  0.27116112617E+03  0.79234345916E+02 0.  0.
         -6    2    1    2    0  503 -0.89130554339E+02  0.82438545472E+01  0.92121370110E+03  0.94151801846E+03  0.17265363921E+03 0.  0.
        -24    2    5    5    0    0 -0.20888989563E+02 -0.12998751258E+02  0.22016911094E+03  0.23682392394E+03  0.83700753382E+02 0.  0.
          4    1    4    4  501    0  0.61839172009E+02 -0.87898842902E+01  0.80721066402E+02  0.10206486086E+03  0.00000000000E+00 0. -1.
         -3    1    4    4    0  501  0.14613074094E+02 -0.60816836738E+02  0.15710288787E+03  0.16909626531E+03  0.00000000000E+00 0.  1.
          5    1    3    3  502    0  0.12678308237E+02  0.61362866481E+02  0.77333647816E+02  0.99642982528E+02  0.47000000000E+01 0. -1.
         13    1    6    6    0    0 -0.74329682287E+01 -0.14853329516E+02  0.22243392553E+03  0.22305318119E+03  0.00000000000E+00 0. -1.
        -14    1    6    6    0    0 -0.13456021334E+02  0.18545782571E+01 -0.22648145847E+01  0.13770742746E+02  0.00000000000E+00 0.  1.
         -5    1    5    5    0  503 -0.68241564776E+02  0.21242605806E+02  0.70104459016E+03  0.70469409452E+03  0.47000000000E+01 0.  1.
<mgrwt>
<rscale>  2 0.19515020E+03</rscale>
<asrwt>0</asrwt>
<pdfrwt beam="1">  1       21 0.19605331E+00 0.19537495E+03</pdfrwt>
<pdfrwt beam="2">  1       21 0.58423721E-02 0.19537495E+03</pdfrwt>
<totfact> 0.29325664E+04</totfact>
</mgrwt>
</event>
<event>
12    1  0.2769346E-001  0.1766659E+03  0.7546771E-02  0.1171780E+00
         21   -1    0    0  504  503  0.00000000000E+00  0.00000000000E+00  0.31691813033E+03  0.31691813033E+03  0.00000000000E+00 0. -1.
         21   -1    0    0  502  504 -0.00000000000E+00 -0.00000000000E+00 -0.18988803327E+03  0.18988803327E+03  0.00000000000E+00 0. -1.
          6    2    1    2  502    0  0.15635814556E+02  0.97450339093E+01 -0.11354318768E+03  0.21000686284E+03  0.17570254007E+03 0.  0.
         24    2    3    3    0    0 -0.15068541026E+02  0.16730680872E+02 -0.14312435111E+03  0.16654777926E+03  0.82137727538E+02 0.  0.
         -6    2    1    2    0  503 -0.15635814556E+02 -0.97450339093E+01  0.24057328474E+03  0.29679930076E+03  0.17284349922E+03 0.  0.
        -24    2    5    5    0    0 -0.51883211028E+02 -0.57506262462E+02  0.17380949419E+03  0.20694106557E+03  0.81338960771E+02 0.  0.
          4    1    4    4  501    0 -0.19211222605E+02  0.47699045719E+02 -0.10748196848E+03  0.11914966884E+03  0.00000000000E+00 0. -1.
         -3    1    4    4    0  501  0.41426815792E+01 -0.30968364847E+02 -0.35642382634E+02  0.47398110424E+02  0.00000000000E+00 0.  1.
          5    1    3    3  502    0  0.30704355582E+02 -0.69856469629E+01  0.29581163433E+02  0.43459083576E+02  0.47000000000E+01 0. -1.
         11    1    6    6    0    0 -0.43215702551E+02 -0.62458981731E+02  0.72038832163E+02  0.10468196925E+03  0.00000000000E+00 0. -1.
        -12    1    6    6    0    0 -0.86675084769E+01  0.49527192688E+01  0.10177066203E+03  0.10225909632E+03  0.00000000000E+00 0.  1.
         -5    1    5    5    0  503  0.36247396472E+02  0.47761228553E+02  0.66763790549E+02  0.89858235196E+02  0.47000000000E+01 0.  1.
<mgrwt>
<rscale>  2 0.17595073E+03</rscale>
<asrwt>0</asrwt>
<pdfrwt beam="1">  1       21 0.48756635E-01 0.17666586E+03</pdfrwt>
<pdfrwt beam="2">  1       21 0.29213544E-01 0.17666586E+03</pdfrwt>
<totfact> 0.45412179E+04</totfact>
</mgrwt>
</event>
<event>
12    1  0.2769346E-001  0.2237996E+03  0.7546771E-02  0.1131253E+00
         21   -1    0    0  504  503  0.00000000000E+00  0.00000000000E+00  0.38786345086E+03  0.38786345086E+03  0.00000000000E+00 0. -1.
         21   -1    0    0  502  504 -0.00000000000E+00 -0.00000000000E+00 -0.14069034802E+03  0.14069034802E+03  0.00000000000E+00 0.  1.
          6    2    1    2  502    0  0.47281088800E+02  0.13360153338E+03  0.46329254803E+02  0.22854469875E+03  0.17320914640E+03 0.  0.
         24    2    3    3    0    0  0.21736015235E+02 -0.30319670694E+01  0.17831043420E+02  0.86574623448E+02  0.81826475746E+02 0.  0.
         -6    2    1    2    0  503 -0.47281088800E+02 -0.13360153338E+03  0.20084384804E+03  0.30000910014E+03  0.17199516793E+03 0.  0.
        -24    2    5    5    0    0 -0.14403873669E+02 -0.15205780885E+03  0.11949697399E+03  0.21022631060E+03  0.81157415355E+02 0.  0.
          2    1    4    4  501    0  0.26668670457E+02 -0.30003746167E+02  0.35803915976E+02  0.53789991329E+02  0.00000000000E+00 0. -1.
         -1    1    4    4    0  501 -0.49326552215E+01  0.26971779098E+02 -0.17972872556E+02  0.32784632119E+02  0.00000000000E+00 0.  1.
          5    1    3    3  502    0  0.25545073565E+02  0.13663350045E+03  0.28498211383E+02  0.14197007530E+03  0.47000000000E+01 0. -1.
         11    1    6    6    0    0 -0.37091270369E+02 -0.28127057612E+02  0.25862258733E+02  0.53251761795E+02  0.00000000000E+00 0. -1.
        -12    1    6    6    0    0  0.22687396700E+02 -0.12393075124E+03  0.93634715255E+02  0.15697454881E+03  0.00000000000E+00 0.  1.
         -5    1    5    5    0  503 -0.32877215131E+02  0.18456275471E+02  0.81346874050E+02  0.89782789535E+02  0.47000000000E+01 0.  1.
<mgrwt>
<rscale>  2 0.22356471E+03</rscale>
<asrwt>0</asrwt>
<pdfrwt beam="1">  1       21 0.59671300E-01 0.22379964E+03</pdfrwt>
<pdfrwt beam="2">  1       21 0.21644669E-01 0.22379964E+03</pdfrwt>
<totfact> 0.51429409E+04</totfact>
</mgrwt>
</event>
<event>
12    1  0.2769346E-001  0.2465008E+03  0.7546771E-02  0.1115570E+00
         21   -1    0    0  504  503  0.00000000000E+00  0.00000000000E+00  0.33645369379E+03  0.33645369379E+03  0.00000000000E+00 0. -1.
         21   -1    0    0  502  504 -0.00000000000E+00 -0.00000000000E+00 -0.24053488720E+03  0.24053488720E+03  0.00000000000E+00 0. -1.
          6    2    1    2  502    0  0.14510816379E+03 -0.97460529128E+02 -0.96222824119E+02  0.26461572122E+03  0.17380366538E+03 0.  0.
         24    2    3    3    0    0  0.29866491175E+02  0.92325806720E+01 -0.42971742460E+02  0.98718673377E+02  0.83195901235E+02 0.  0.
         -6    2    1    2    0  503 -0.14510816379E+03  0.97460529128E+02  0.19214163070E+03  0.31237285977E+03  0.17350349661E+03 0.  0.
        -24    2    5    5    0    0 -0.93479637350E+02  0.63653326929E+01  0.39410723728E+02  0.12713609371E+03  0.76363742173E+02 0.  0.
          4    1    4    4  501    0 -0.87961684786E+01 -0.29466522960E+02 -0.28577176372E+01  0.30883897186E+02  0.00000000000E+00 0. -1.
         -3    1    4    4    0  501  0.38662659653E+02  0.38699103632E+02 -0.40114024822E+02  0.67834776191E+02  0.00000000000E+00 0.  1.
          5    1    3    3  502    0  0.11524167261E+03 -0.10669310980E+03 -0.53251081659E+02  0.16589704784E+03  0.47000000000E+01 0. -1.
         11    1    6    6    0    0 -0.31409976528E+02  0.12628634141E+02  0.53376643517E+02  0.63207081082E+02  0.00000000000E+00 0. -1.
        -12    1    6    6    0    0 -0.62069660822E+02 -0.62633014483E+01 -0.13965919788E+02  0.63929012624E+02  0.00000000000E+00 0.  1.
         -5    1    5    5    0  503 -0.51628526436E+02  0.91095196435E+02  0.15273090698E+03  0.18523676606E+03  0.47000000000E+01 0.  1.
<mgrwt>
<rscale>  2 0.24644790E+03</rscale>
<asrwt>0</asrwt>
<pdfrwt beam="1">  1       21 0.51762107E-01 0.24650081E+03</pdfrwt>
<pdfrwt beam="2">  1       21 0.37005367E-01 0.24650081E+03</pdfrwt>
<totfact> 0.24262312E+04</totfact>
</mgrwt>
</event>
<event>
12    1  0.2769346E-001  0.2193485E+03  0.7546771E-02  0.1134454E+00
         21   -1    0    0  504  503  0.00000000000E+00  0.00000000000E+00  0.45387321574E+03  0.45387321574E+03  0.00000000000E+00 0. -1.
         21   -1    0    0  502  504 -0.00000000000E+00 -0.00000000000E+00 -0.11748602190E+03  0.11748602190E+03  0.00000000000E+00 0. -1.
          6    2    1    2  502    0  0.13175054332E+03 -0.23347362349E+02  0.78208123031E+02  0.23287397182E+03  0.17381159699E+03 0.  0.
         24    2    3    3    0    0  0.13377090736E+03  0.35641845203E+02  0.60704480587E+02  0.17113034075E+03  0.80221959455E+02 0.  0.
         -6    2    1    2    0  503 -0.13175054332E+03  0.23347362349E+02  0.25817907081E+03  0.33848526581E+03  0.17324126983E+03 0.  0.
        -24    2    5    5    0    0 -0.16322403924E+03  0.25703727391E+02  0.24072990962E+03  0.30211636938E+03  0.77592800389E+02 0.  0.
          2    1    4    4  501    0  0.11776178693E+03  0.11681247970E+02  0.18130172700E+02  0.11972047936E+03  0.00000000000E+00 0. -1.
         -1    1    4    4    0  501  0.16009120422E+02  0.23960597233E+02  0.42574307887E+02  0.51409861393E+02  0.00000000000E+00 0.  1.
          5    1    3    3  502    0 -0.20203640334E+01 -0.58989207552E+02  0.17503642444E+02  0.61743631066E+02  0.47000000000E+01 0. -1.
         13    1    6    6    0    0 -0.33431187281E+02  0.39315749177E+02  0.77859672559E+02  0.93410390360E+02  0.00000000000E+00 0. -1.
        -14    1    6    6    0    0 -0.12979285196E+03 -0.13612021786E+02  0.16287023706E+03  0.20870597902E+03  0.00000000000E+00 0.  1.
         -5    1    5    5    0  503  0.31473495920E+02 -0.23563650422E+01  0.17449161188E+02  0.36368896434E+02  0.47000000000E+01 0.  1.
<mgrwt>
<rscale>  2 0.21923553E+03</rscale>
<asrwt>0</asrwt>
<pdfrwt beam="1">  1       21 0.69826648E-01 0.21934853E+03</pdfrwt>
<pdfrwt beam="2">  1       21 0.18074773E-01 0.21934853E+03</pdfrwt>
<totfact> 0.51248783E+04</totfact>
</mgrwt>
</event>
<event>
12    1  0.2769346E-001  0.2139918E+03  0.7546771E-02  0.1139119E+00
         21   -1    0    0  504  503  0.00000000000E+00  0.00000000000E+00  0.48084418813E+02  0.48084418813E+02  0.00000000000E+00 0. -1.
         21   -1    0    0  502  504 -0.00000000000E+00 -0.00000000000E+00 -0.12487837829E+04  0.12487837829E+04  0.00000000000E+00 0. -1.
          6    2    1    2  502    0  0.12143600565E+03 -0.33067936902E+02 -0.92803948276E+03  0.95239160564E+03  0.17306731931E+03 0.  0.
         24    2    3    3    0    0  0.19648829334E+01 -0.94798692361E+01 -0.52811377577E+03  0.53430978684E+03  0.80554698618E+02 0.  0.
         -6    2    1    2    0  503 -0.12143600565E+03  0.33067936902E+02 -0.27265988136E+03  0.34447659611E+03  0.16876173276E+03 0.  0.
        -24    2    5    5    0    0 -0.77468002238E+02  0.44173594772E+02 -0.72812537137E+02  0.13949471410E+03  0.78768723808E+02 0.  0.
          4    1    4    4  501    0  0.33177480713E+02 -0.23971807950E+02 -0.38254981618E+03  0.38473335527E+03  0.00000000000E+00 0. -1.
         -3    1    4    4    0  501 -0.31212597780E+02  0.14491938714E+02 -0.14556395959E+03  0.14957643157E+03  0.00000000000E+00 0.  1.
          5    1    3    3  502    0  0.11947112271E+03 -0.23588067666E+02 -0.39992570699E+03  0.41808181880E+03  0.47000000000E+01 0. -1.
         13    1    6    6    0    0 -0.23839099680E+02  0.44244700656E+02 -0.69494094317E+02  0.85763193473E+02  0.00000000000E+00 0. -1.
        -14    1    6    6    0    0 -0.53628902558E+02 -0.71105884377E-01 -0.33184428198E+01  0.53731520622E+02  0.00000000000E+00 0.  1.
         -5    1    5    5    0  503 -0.43968003409E+02 -0.11105657870E+02 -0.19984734422E+03  0.20498188201E+03  0.47000000000E+01 0.  1.
<mgrwt>
<rscale>  2 0.21311974E+03</rscale>
<asrwt>0</asrwt>
<pdfrwt beam="1">  1       21 0.73976047E-02 0.21399180E+03</pdfrwt>
<pdfrwt beam="2">  1       21 0.19212053E+00 0.21399180E+03</pdfrwt>
<totfact> 0.20447076E+04</totfact>
</mgrwt>
</event>
<event>
12    1  0.2769346E-001  0.1913723E+03  0.7546771E-02  0.1157270E+00
         21   -1    0    0  504  503  0.00000000000E+00  0.00000000000E+00  0.17052717251E+04  0.17052717251E+04  0.00000000000E+00 0. -1.
         21   -1    0    0  502  504 -0.00000000000E+00 -0.00000000000E+00 -0.31277245553E+02  0.31277245553E+02  0.00000000000E+00 0. -1.
          6    2    1    2  502    0 -0.70710010035E+02 -0.38512831534E+02  0.35072633598E+03  0.39954014884E+03  0.17360940087E+03 0.  0.
         24    2    3    3    0    0  0.15712512835E+02  0.19529524034E+02  0.12536153247E+03  0.15124767581E+03  0.80821162123E+02 0.  0.
         -6    2    1    2    0  503  0.70710010035E+02  0.38512831534E+02  0.13232681436E+04  0.13370088218E+04  0.17340953298E+03 0.  0.
        -24    2    5    5    0    0  0.69940362817E+02  0.87405770122E+02  0.10901839115E+04  0.10988041598E+04  0.79612797665E+02 0.  0.
          4    1    4    4  501    0  0.26102629199E+02 -0.22298167097E+02  0.87078276700E+02  0.93601184715E+02  0.00000000000E+00 0. -1.
         -3    1    4    4    0  501 -0.10390116364E+02  0.41827691131E+02  0.38283255765E+02  0.57646491093E+02  0.00000000000E+00 0.  1.
          5    1    3    3  502    0 -0.86422522870E+02 -0.58042355567E+02  0.22536480352E+03  0.24829247303E+03  0.47000000000E+01 0. -1.
         13    1    6    6    0    0  0.15918421544E+02  0.53761087453E+02  0.78794744686E+03  0.78993976333E+03  0.00000000000E+00 0. -1.
        -14    1    6    6    0    0  0.54021941272E+02  0.33644682669E+02  0.30223646466E+03  0.30886439643E+03  0.00000000000E+00 0.  1.
         -5    1    5    5    0  503  0.76964721787E+00 -0.48892938589E+02  0.23308423207E+03  0.23820466209E+03  0.47000000000E+01 0.  1.
<mgrwt>
<rscale>  2 0.19132699E+03</rscale>
<asrwt>0</asrwt>
<pdfrwt beam="1">  1       21 0.26234942E+00 0.19137233E+03</pdfrwt>
<pdfrwt beam="2">  1       21 0.48118853E-02 0.19137233E+03</pdfrwt>
<totfact> 0.16181773E+04</totfact>
</mgrwt>
</event>
<event>
12    1  0.2769346E-001  0.1853625E+03  0.7546771E-02  0.1162982E+00
         21   -1    0    0  504  503  0.00000000000E+00  0.00000000000E+00  0.15364173740E+03  0.15364173740E+03  0.00000000000E+00 0.  1.
         21   -1    0    0  502  504 -0.00000000000E+00 -0.00000000000E+00 -0.25447006162E+03  0.25447006162E+03  0.00000000000E+00 0.  1.
          6    2    1    2  502    0 -0.43009435593E+02  0.50172166368E+02 -0.12289724197E+03  0.22144022111E+03  0.17194470511E+03 0.  0.
         24    2    3    3    0    0  0.14542058147E+02  0.12459124816E+02 -0.12880330225E+03  0.15222014106E+03  0.78828798206E+02 0.  0.
         -6    2    1    2    0  503  0.43009435593E+02 -0.50172166368E+02  0.22068917748E+02  0.18667157791E+03  0.17318251367E+03 0.  0.
        -24    2    5    5    0    0 -0.22256838520E+01  0.15825381145E+01 -0.45647007258E+02  0.90067737576E+02  0.77595682773E+02 0.  0.
          2    1    4    4  501    0  0.27483551270E+02 -0.26448466080E+02 -0.78868594799E+02  0.87607774734E+02  0.00000000000E+00 0. -1.
         -1    1    4    4    0  501 -0.12941493123E+02  0.38907590896E+02 -0.49934707449E+02  0.64612366321E+02  0.00000000000E+00 0.  1.
          5    1    3    3  502    0 -0.57551493740E+02  0.37713041551E+02  0.59060602820E+01  0.69220080055E+02  0.47000000000E+01 0. -1.
         13    1    6    6    0    0  0.35014892303E+02 -0.13385715000E+02 -0.23099646621E+02  0.44031962517E+02  0.00000000000E+00 0. -1.
        -14    1    6    6    0    0 -0.37240576155E+02  0.14968253115E+02 -0.22547360637E+02  0.46035775060E+02  0.00000000000E+00 0.  1.
         -5    1    5    5    0  503  0.45235119445E+02 -0.51754704482E+02  0.67715925006E+02  0.96603840331E+02  0.47000000000E+01 0.  1.
<mgrwt>
<rscale>  2 0.18507279E+03</rscale>
<asrwt>0</asrwt>
<pdfrwt beam="1">  1       21 0.23637190E-01 0.18536246E+03</pdfrwt>
<pdfrwt beam="2">  1       21 0.39149240E-01 0.18536246E+03</pdfrwt>
<totfact> 0.10629355E+05</totfact>
</mgrwt>
</event>
<event>
12    1  0.2769346E-001  0.2299177E+03  0.7546771E-02  0.1127139E+00
         21   -1    0    0  504  503  0.00000000000E+00  0.00000000000E+00  0.32098627886E+03  0.32098627886E+03  0.00000000000E+00 0. -1.
         21   -1    0    0  502  504 -0.00000000000E+00 -0.00000000000E+00 -0.20358651275E+03  0.20358651275E+03  0.00000000000E+00 0. -1.
          6    2    1    2  502    0 -0.49211367351E+02  0.14224047100E+03  0.17568812117E+03  0.28738153238E+03  0.17049257744E+03 0.  0.
         24    2    3    3    0    0 -0.67997557074E+02  0.57362508808E+02  0.40743235267E+02  0.12679074303E+03  0.80633467702E+02 0.  0.
         -6    2    1    2    0  503  0.49211367351E+02 -0.14224047100E+03 -0.58288355069E+02  0.23719125923E+03  0.17380463415E+03 0.  0.
        -24    2    5    5    0    0 -0.60044609676E+01 -0.62433317740E+02 -0.88990794759E+02  0.13529572836E+03  0.80321851605E+02 0.  0.
          2    1    4    4  501    0 -0.21333273947E+02 -0.17818217386E+02  0.24025146921E+02  0.36739694238E+02  0.00000000000E+00 0. -1.
         -1    1    4    4    0  501 -0.46664283127E+02  0.75180726194E+02  0.16718088346E+02  0.90051048794E+02  0.00000000000E+00 0.  1.
          5    1    3    3  502    0  0.18786189722E+02  0.84877962193E+02  0.13494488591E+03  0.16059078935E+03  0.47000000000E+01 0. -1.
         11    1    6    6    0    0  0.22249416274E+02 -0.62677907678E+02 -0.36963369484E+02  0.76091046248E+02  0.00000000000E+00 0. -1.
        -12    1    6    6    0    0 -0.28253877241E+02  0.24458993816E+00 -0.52027425275E+02  0.59204682113E+02  0.00000000000E+00 0.  1.
         -5    1    5    5    0  503  0.55215828319E+02 -0.79807153261E+02  0.30702439690E+02  0.10189553087E+03  0.47000000000E+01 0.  1.
<mgrwt>
<rscale>  2 0.22929183E+03</rscale>
<asrwt>0</asrwt>
<pdfrwt beam="1">  1       21 0.49382505E-01 0.22991773E+03</pdfrwt>
<pdfrwt beam="2">  1       21 0.31321002E-01 0.22991773E+03</pdfrwt>
<totfact> 0.37601703E+04</totfact>
</mgrwt>
</event>
<event>
12    1  0.2769346E-001  0.1712436E+03  0.7546771E-02  0.1176966E+00
         21   -1    0    0  504  503  0.00000000000E+00  0.00000000000E+00  0.55069549230E+03  0.55069549230E+03  0.00000000000E+00 0. -1.
         21   -1    0    0  502  504 -0.00000000000E+00 -0.00000000000E+00 -0.97054835693E+02  0.97054835693E+02  0.00000000000E+00 0. -1.
          6    2    1    2  502    0 -0.79857847347E+01  0.46682497547E+01  0.74542519531E+01  0.16983120599E+03  0.16941519218E+03 0.  0.
         24    2    3    3    0    0  0.35879798035E+02 -0.46271042637E+02  0.19691018747E+02  0.10134157668E+03  0.80336851138E+02 0.  0.
         -6    2    1    2    0  503  0.79857847347E+01 -0.46682497547E+01  0.44618640466E+03  0.47791912201E+03  0.17099360856E+03 0.  0.
        -24    2    5    5    0    0  0.15231998362E+02 -0.67961820737E+02  0.30194223724E+03  0.32016281129E+03  0.80525078381E+02 0.  0.
          2    1    4    4  501    0 -0.14077112550E+02  0.49305851479E+01 -0.15592674341E+02  0.21577934580E+02  0.00000000000E+00 0. -1.
         -1    1    4    4    0  501  0.49956910585E+02 -0.51201627785E+02  0.35283693087E+02  0.79763642099E+02  0.00000000000E+00 0.  1.
          5    1    3    3  502    0 -0.43865582769E+02  0.50939292392E+02 -0.12236766794E+02  0.68489629307E+02  0.47000000000E+01 0. -1.
         11    1    6    6    0    0  0.19332941822E+02  0.12503736894E+02  0.10264568368E+03  0.10519620931E+03  0.00000000000E+00 0. -1.
        -12    1    6    6    0    0 -0.41009434597E+01 -0.80465557631E+02  0.19929655356E+03  0.21496660197E+03  0.00000000000E+00 0.  1.
         -5    1    5    5    0  503 -0.72462136278E+01  0.63293570982E+02  0.14424416741E+03  0.15775631072E+03  0.47000000000E+01 0.  1.
<mgrwt>
<rscale>  2 0.17084824E+03</rscale>
<asrwt>0</asrwt>
<pdfrwt beam="1">  1       21 0.84722382E-01 0.17124363E+03</pdfrwt>
<pdfrwt beam="2">  1       21 0.14931513E-01 0.17124363E+03</pdfrwt>
<totfact> 0.48270081E+04</totfact>
</mgrwt>
</event>
<event>
12    1  0.2769346E-001  0.2425780E+03  0.7546771E-02  0.1118294E+00
         21   -1    0    0  504  503  0.00000000000E+00  0.00000000000E+00  0.45043255743E+03  0.45043255743E+03  0.00000000000E+00 0. -1.
         21   -1    0    0  502  504 -0.00000000000E+00 -0.00000000000E+00 -0.45494073536E+03  0.45494073536E+03  0.00000000000E+00 0.  1.
          6    2    1    2  502    0 -0.14966370536E+03 -0.80970109572E+02 -0.38485345860E+03  0.45425619242E+03  0.17111727092E+03 0.  0.
         24    2    3    3    0    0 -0.17421831754E+03 -0.86603143965E+02 -0.36810584091E+03  0.42364193505E+03  0.78220536338E+02 0.  0.
         -6    2    1    2    0  503  0.14966370536E+03  0.80970109572E+02  0.38034528068E+03  0.45111710037E+03  0.17288355145E+03 0.  0.
        -24    2    5    5    0    0  0.15352056254E+03  0.70298767502E+02  0.21103837039E+03  0.28136530284E+03  0.78222503379E+02 0.  0.
          2    1    4    4  501    0 -0.16535234768E+03 -0.52479706563E+02 -0.28964248617E+03  0.33762151632E+03  0.00000000000E+00 0. -1.
         -1    1    4    4    0  501 -0.88659698669E+01 -0.34123437402E+02 -0.78463354741E+02  0.86020418733E+02  0.00000000000E+00 0.  1.
          5    1    3    3  502    0  0.24554612188E+02  0.56330343929E+01 -0.16747617691E+02  0.30614257373E+02  0.47000000000E+01 0. -1.
         11    1    6    6    0    0  0.82511474250E+02  0.45517368255E+02  0.17319663177E+03  0.19717263363E+03  0.00000000000E+00 0. -1.
        -12    1    6    6    0    0  0.71009088290E+02  0.24781399247E+02  0.37841738619E+02  0.84192669218E+02  0.00000000000E+00 0.  1.
         -5    1    5    5    0  503 -0.38568571819E+01  0.10671342070E+02  0.16930691030E+03  0.16975179752E+03  0.47000000000E+01 0.  1.
<mgrwt>
<rscale>  2 0.24226352E+03</rscale>
<asrwt>0</asrwt>
<pdfrwt beam="1">  1       21 0.69297316E-01 0.24257804E+03</pdfrwt>
<pdfrwt beam="2">  1       21 0.69990883E-01 0.24257804E+03</pdfrwt>
<totfact> 0.33805625E+03</totfact>
</mgrwt>
</event>
<event>
12    1  0.2769346E-001  0.2391352E+03  0.7546771E-02  0.1120375E+00
         21   -1    0    0  504  503  0.00000000000E+00  0.00000000000E+00  0.15476481827E+04  0.15476481827E+04  0.00000000000E+00 0.  1.
         21   -1    0    0  502  504 -0.00000000000E+00 -0.00000000000E+00 -0.37068879453E+02  0.37068879453E+02  0.00000000000E+00 0. -1.
          6    2    1    2  502    0  0.16440454756E+03 -0.20528799254E+02  0.70953941688E+03  0.74874425057E+03  0.17239919312E+03 0.  0.
         24    2    3    3    0    0  0.11622348487E+03 -0.59283430441E+02  0.64128420878E+03  0.65652603288E+03  0.52522108253E+02 0.  0.
         -6    2    1    2    0  503 -0.16440454756E+03  0.20528799254E+02  0.80103988641E+03  0.83597281163E+03  0.17243942504E+03 0.  0.
        -24    2    5    5    0    0 -0.18082462505E+03  0.50937759253E+02  0.69223297121E+03  0.72171276354E+03  0.79941392857E+02 0.  0.
          4    1    4    4  501    0  0.69094198881E+01 -0.24481338100E+02  0.96712994285E+02  0.10000239628E+03  0.00000000000E+00 0. -1.
         -3    1    4    4    0  501  0.10931406498E+03 -0.34802092340E+02  0.54457121450E+03  0.55652363660E+03  0.00000000000E+00 0.  1.
          5    1    3    3  502    0  0.48181062691E+02  0.38754631187E+02  0.68255208101E+02  0.92218217687E+02  0.47000000000E+01 0. -1.
         11    1    6    6    0    0 -0.69051937010E+02  0.59348012474E+02  0.34652976304E+03  0.35829210606E+03  0.00000000000E+00 0. -1.
        -12    1    6    6    0    0 -0.11177268804E+03 -0.84102532202E+01  0.34570320816E+03  0.36342065748E+03  0.00000000000E+00 0.  1.
         -5    1    5    5    0  503  0.16420077492E+02 -0.30408959999E+02  0.10880691521E+03  0.11426004809E+03  0.47000000000E+01 0.  1.
<mgrwt>
<rscale>  2 0.23912794E+03</rscale>
<asrwt>0</asrwt>
<pdfrwt beam="1">  1       21 0.23809967E+00 0.23913520E+03</pdfrwt>
<pdfrwt beam="2">  1       21 0.57029057E-02 0.23913520E+03</pdfrwt>
<totfact> 0.16203518E+04</totfact>
</mgrwt>
</event>
<event>
12    1  0.2769346E-001  0.1836725E+03  0.7546771E-02  0.1164306E+00
         21   -1    0    0  504  503  0.00000000000E+00  0.00000000000E+00  0.28530519744E+04  0.28530519744E+04  0.00000000000E+00 0.  1.
         21   -1    0    0  502  504 -0.00000000000E+00 -0.00000000000E+00 -0.17603307475E+02  0.17603307475E+02  0.00000000000E+00 0.  1.
          6    2    1    2  502    0 -0.18317825544E+02 -0.58685195363E+02  0.59499970709E+03  0.62269017706E+03  0.17302864005E+03 0.  0.
         24    2    3    3    0    0 -0.59440770429E+02  0.10057530488E+02  0.39641597274E+03  0.40850743148E+03  0.78091862727E+02 0.  0.
         -6    2    1    2    0  503  0.18317825544E+02  0.58685195363E+02  0.22404489599E+04  0.22479651048E+04  0.17307823655E+03 0.  0.
        -24    2    5    5    0    0  0.80281117146E+01 -0.24071785507E+02  0.15854006419E+04  0.15876129375E+04  0.79848246361E+02 0.  0.
          4    1    4    4  501    0 -0.69570304225E+02  0.15391199802E+02  0.38750185492E+03  0.39399822820E+03  0.00000000000E+00 0. -1.
         -3    1    4    4    0  501  0.10129533796E+02 -0.53336693142E+01  0.89141178202E+01  0.14509203279E+02  0.00000000000E+00 0.  1.
          5    1    3    3  502    0  0.41122944885E+02 -0.68742725851E+02  0.19858373435E+03  0.21418274558E+03  0.47000000000E+01 0. -1.
         13    1    6    6    0    0  0.42398997032E+02 -0.25208110545E+02  0.90269281056E+03  0.90403950911E+03  0.00000000000E+00 0. -1.
        -14    1    6    6    0    0 -0.34370885317E+02  0.11363250378E+01  0.68270783132E+03  0.68357342834E+03  0.00000000000E+00 0.  1.
         -5    1    5    5    0  503  0.10289713830E+02  0.82756980870E+02  0.65504831798E+03  0.66035216740E+03  0.47000000000E+01 0.  1.
<mgrwt>
<rscale>  2 0.18366077E+03</rscale>
<asrwt>0</asrwt>
<pdfrwt beam="1">  1       21 0.43893071E+00 0.18367246E+03</pdfrwt>
<pdfrwt beam="2">  1       21 0.27082034E-02 0.18367246E+03</pdfrwt>
<totfact> 0.37363622E+03</totfact>
</mgrwt>
</event>
<event>
12    1  0.2769346E-001  0.2632100E+03  0.7546771E-02  0.1105262E+00
         21   -1    0    0  504  503  0.00000000000E+00  0.00000000000E+00  0.42619684008E+03  0.42619684008E+03  0.00000000000E+00 0. -1.
         21   -1    0    0  502  504 -0.00000000000E+00 -0.00000000000E+00 -0.19234543657E+03  0.19234543657E+03  0.00000000000E+00 0. -1.
          6    2    1    2  502    0 -0.74720194961E+02 -0.18406930568E+03 -0.50226004292E+01  0.26325789019E+03  0.17266983931E+03 0.  0.
         24    2    3    3    0    0 -0.10075943250E+03 -0.11337837383E+03  0.48634010777E+02  0.17064918832E+03  0.61227114740E+02 0.  0.
         -6    2    1    2    0  503  0.74720194961E+02  0.18406930568E+03  0.23887400394E+03  0.35528438647E+03  0.17234148857E+03 0.  0.
        -24    2    5    5    0    0  0.66790297597E+02  0.19647253781E+03  0.25130143849E+03  0.33545373925E+03  0.79463175235E+02 0.  0.
          4    1    4    4  501    0 -0.53944066410E+02 -0.95146335801E+02  0.15501941492E+02  0.11046763194E+03  0.00000000000E+00 0. -1.
         -3    1    4    4    0  501 -0.46815366088E+02 -0.18232038033E+02  0.33132069285E+02  0.60181556376E+02  0.00000000000E+00 0.  1.
          5    1    3    3  502    0  0.26039237537E+02 -0.70690931843E+02 -0.53656611206E+02  0.92608701872E+02  0.47000000000E+01 0. -1.
         11    1    6    6    0    0  0.53752866363E+02  0.13071385424E+03  0.11013969730E+03  0.17918212873E+03  0.00000000000E+00 0. -1.
        -12    1    6    6    0    0  0.13037431235E+02  0.65758683566E+02  0.14116174119E+03  0.15627161052E+03  0.00000000000E+00 0.  1.
         -5    1    5    5    0  503  0.79298973634E+01 -0.12403232133E+02 -0.12427434555E+02  0.19830647220E+02  0.47000000000E+01 0.  1.
<mgrwt>
<rscale>  2 0.26315614E+03</rscale>
<asrwt>0</asrwt>
<pdfrwt beam="1">  1       21 0.65568744E-01 0.26320997E+03</pdfrwt>
<pdfrwt beam="2">  1       21 0.29591606E-01 0.26320997E+03</pdfrwt>
<totfact> 0.22562160E+04</totfact>
</mgrwt>
</event>
<event>
12    1  0.2769346E-001  0.2073068E+03  0.7546771E-02  0.1145069E+00
         21   -1    0    0  504  503  0.00000000000E+00  0.00000000000E+00  0.51800719811E+03  0.51800719811E+03  0.00000000000E+00 0. -1.
         21   -1    0    0  502  504 -0.00000000000E+00 -0.00000000000E+00 -0.19368686731E+03  0.19368686731E+03  0.00000000000E+00 0.  1.
          6    2    1    2  502    0  0.97795335577E+02  0.28933297037E+02 -0.10895178937E+03  0.23419348760E+03  0.18048555037E+03 0.  0.
         24    2    3    3    0    0  0.73191244655E+02  0.67235576067E+02 -0.13456918355E+02  0.12829832124E+03  0.80011184210E+02 0.  0.
         -6    2    1    2    0  503 -0.97795335577E+02 -0.28933297037E+02  0.43327212016E+03  0.47750057782E+03  0.17286124021E+03 0.  0.
        -24    2    5    5    0    0  0.67116337660E+01 -0.86403996802E+01  0.25203197552E+03  0.26725408354E+03  0.88232227397E+02 0.  0.
          4    1    4    4  501    0  0.66771396666E+02  0.71486582631E+01 -0.78334701208E+01  0.67608327755E+02  0.00000000000E+00 0. -1.
         -3    1    4    4    0  501  0.64198479883E+01  0.60086917804E+02 -0.56234482343E+01  0.60689993487E+02  0.00000000000E+00 0.  1.
          5    1    3    3  502    0  0.24604090922E+02 -0.38302279031E+02 -0.95494871013E+02  0.10589516636E+03  0.47000000000E+01 0. -1.
         13    1    6    6    0    0 -0.14420300479E+02  0.29741333959E+02  0.17948318118E+03  0.18250124476E+03  0.00000000000E+00 0. -1.
        -14    1    6    6    0    0  0.21131934245E+02 -0.38381733639E+02  0.72548794343E+02  0.84752838788E+02  0.00000000000E+00 0.  1.
         -5    1    5    5    0  503 -0.10450696934E+03 -0.20292897356E+02  0.18124014464E+03  0.21024649427E+03  0.47000000000E+01 0.  1.
<mgrwt>
<rscale>  2 0.20563597E+03</rscale>
<asrwt>0</asrwt>
<pdfrwt beam="1">  1       21 0.79693415E-01 0.20730677E+03</pdfrwt>
<pdfrwt beam="2">  1       21 0.29797980E-01 0.20730677E+03</pdfrwt>
<totfact> 0.14839571E+04</totfact>
</mgrwt>
</event>
<event>
12    1  0.2769346E-001  0.1769309E+03  0.7546771E-02  0.1170929E+00
         21   -1    0    0  504  503  0.00000000000E+00  0.00000000000E+00  0.75611283953E+03  0.75611283953E+03  0.00000000000E+00 0. -1.
         21   -1    0    0  502  504 -0.00000000000E+00 -0.00000000000E+00 -0.11220047972E+03  0.11220047972E+03  0.00000000000E+00 0. -1.
          6    2    1    2  502    0 -0.36840405882E+02 -0.39279119583E+01 -0.23033490142E+02  0.17842387136E+03  0.17300835877E+03 0.  0.
         24    2    3    3    0    0 -0.13839119659E+02 -0.63621982852E+02  0.33961335930E+02  0.92616287386E+02  0.56436924225E+02 0.  0.
         -6    2    1    2    0  503  0.36840405882E+02  0.39279119583E+01  0.66694584994E+03  0.68988944789E+03  0.17250518706E+03 0.  0.
        -24    2    5    5    0    0 -0.47362370686E+02  0.67569410163E+01  0.29962270610E+03  0.31299888952E+03  0.76848477033E+02 0.  0.
          2    1    4    4  501    0  0.25990651458E+01 -0.43138158485E+02 -0.71775917971E+01  0.43808374555E+02  0.00000000000E+00 0. -1.
         -1    1    4    4    0  501 -0.16438184805E+02 -0.20483824367E+02  0.41138927727E+02  0.48807912831E+02  0.00000000000E+00 0.  1.
          5    1    3    3  502    0 -0.23001286223E+02  0.59694070894E+02 -0.56994826072E+02  0.85807583970E+02  0.47000000000E+01 0. -1.
         11    1    6    6    0    0 -0.33208231711E+02 -0.27156858205E+02  0.23296992117E+03  0.23688660952E+03  0.00000000000E+00 0. -1.
        -12    1    6    6    0    0 -0.14154138975E+02  0.33913799222E+02  0.66652784926E+02  0.76112279996E+02  0.00000000000E+00 0.  1.
         -5    1    5    5    0  503  0.84202776568E+02 -0.28290290580E+01  0.36732314385E+03  0.37689055838E+03  0.47000000000E+01 0.  1.
<mgrwt>
<rscale>  2 0.17680776E+03</rscale>
<asrwt>0</asrwt>
<pdfrwt beam="1">  1       21 0.11632505E+00 0.17693088E+03</pdfrwt>
<pdfrwt beam="2">  1       21 0.17261613E-01 0.17693088E+03</pdfrwt>
<totfact> 0.17471556E+04</totfact>
</mgrwt>
</event>
<event>
12    1  0.2769346E-001  0.2223182E+03  0.7546771E-02  0.1132264E+00
         21   -1    0    0  504  503  0.00000000000E+00  0.00000000000E+00  0.47579835466E+03  0.47579835466E+03  0.00000000000E+00 0.  1.
         21   -1    0    0  502  504 -0.00000000000E+00 -0.00000000000E+00 -0.11072805309E+03  0.11072805309E+03  0.00000000000E+00 0. -1.
          6    2    1    2  502    0 -0.84137164394E+02 -0.11059016904E+03  0.10850037872E+03  0.24738171589E+03  0.17354000476E+03 0.  0.
         24    2    3    3    0    0  0.19997281634E+02 -0.22370766476E+02  0.35053719959E+02  0.92323186549E+02  0.79965398930E+02 0.  0.
         -6    2    1    2    0  503  0.84137164394E+02  0.11059016904E+03  0.25656992284E+03  0.33914469186E+03  0.17286338186E+03 0.  0.
        -24    2    5    5    0    0  0.18300826205E+01  0.80441917691E+02  0.71256014563E+02  0.13409175389E+03  0.80180593191E+02 0.  0.
          4    1    4    4  501    0 -0.31545022577E+00 -0.27696098131E+01  0.56689182163E+02  0.56757674562E+02  0.00000000000E+00 0. -1.
         -3    1    4    4    0  501  0.20312731860E+02 -0.19601156663E+02 -0.21635462203E+02  0.35565511987E+02  0.00000000000E+00 0.  1.
          5    1    3    3  502    0 -0.10413444603E+03 -0.88219402560E+02  0.73446658765E+02  0.15505852934E+03  0.47000000000E+01 0. -1.
         11    1    6    6    0    0  0.29084465532E+02  0.77011771133E+02  0.37193673189E+02  0.90333207370E+02  0.00000000000E+00 0. -1.
        -12    1    6    6    0    0 -0.27254382912E+02  0.34301465574E+01  0.34062341373E+02  0.43758546515E+02  0.00000000000E+00 0.  1.
         -5    1    5    5    0  503  0.82307081773E+02  0.30148251346E+02  0.18531390828E+03  0.20505293797E+03  0.47000000000E+01 0.  1.
<mgrwt>
<rscale>  2 0.22218614E+03</rscale>
<asrwt>0</asrwt>
<pdfrwt beam="1">  1       21 0.73199746E-01 0.22231820E+03</pdfrwt>
<pdfrwt beam="2">  1       21 0.17035085E-01 0.22231820E+03</pdfrwt>
<totfact> 0.51428985E+04</totfact>
</mgrwt>
</event>
<event>
12    1  0.2769346E-001  0.2421916E+03  0.7546771E-02  0.1118468E+00
         21   -1    0    0  504  503  0.00000000000E+00  0.00000000000E+00  0.78980593930E+02  0.78980593930E+02  0.00000000000E+00 0. -1.
         21   -1    0    0  502  504 -0.00000000000E+00 -0.00000000000E+00 -0.74176722269E+03  0.74176722269E+03  0.00000000000E+00 0.  1.
          6    2    1    2  502    0 -0.63638498756E+02 -0.15609319242E+03 -0.31375882301E+03  0.39636013840E+03  0.17390174540E+03 0.  0.
         24    2    3    3    0    0 -0.63026995592E+02 -0.11778511803E+03 -0.31765268348E+03  0.35756407353E+03  0.95410183713E+02 0.  0.
         -6    2    1    2    0  503  0.63638498756E+02  0.15609319242E+03 -0.34902780575E+03  0.42438767822E+03  0.17282809086E+03 0.  0.
        -24    2    5    5    0    0  0.59552030397E+02  0.56783576891E+02 -0.85476573139E+02  0.14267782541E+03  0.79245809844E+02 0.  0.
          4    1    4    4  501    0 -0.74398207596E+02 -0.48995983102E+02 -0.22192436810E+03  0.23913620556E+03  0.00000000000E+00 0. -1.
         -3    1    4    4    0  501  0.11371212004E+02 -0.68789134929E+02 -0.95728315377E+02  0.11842786797E+03  0.00000000000E+00 0.  1.
          5    1    3    3  502    0 -0.61150316466E+00 -0.38308074393E+02  0.38938604727E+01  0.38796064867E+02  0.47000000000E+01 0. -1.
         11    1    6    6    0    0  0.11856792311E+02  0.36248515471E+02  0.48932204549E+01  0.38451033850E+02  0.00000000000E+00 0. -1.
        -12    1    6    6    0    0  0.47695238086E+02  0.20535061420E+02 -0.90369793594E+02  0.10422679155E+03  0.00000000000E+00 0.  1.
         -5    1    5    5    0  503  0.40864683595E+01  0.99309615532E+02 -0.26355123261E+03  0.28170985282E+03  0.47000000000E+01 0.  1.
<mgrwt>
<rscale>  2 0.24199891E+03</rscale>
<asrwt>0</asrwt>
<pdfrwt beam="1">  1       21 0.12150860E-01 0.24219158E+03</pdfrwt>
<pdfrwt beam="2">  1       21 0.11411804E+00 0.24219158E+03</pdfrwt>
<totfact> 0.33391269E+04</totfact>
</mgrwt>
</event>
<event>
12    1  0.2769346E-001  0.2208598E+03  0.7546771E-02  0.1133320E+00
         21   -1    0    0  504  503  0.00000000000E+00  0.00000000000E+00  0.11767753584E+03  0.11767753584E+03  0.00000000000E+00 0. -1.
         21   -1    0    0  502  504 -0.00000000000E+00 -0.00000000000E+00 -0.56727941827E+03  0.56727941827E+03  0.00000000000E+00 0.  1.
          6    2    1    2  502    0  0.61852017625E+02  0.12314033424E+03 -0.40312371356E+03  0.45966052257E+03  0.17259737419E+03 0.  0.
         24    2    3    3    0    0  0.35957702462E+02  0.10799723976E+03 -0.15010182698E+03  0.20482333150E+03  0.80409442856E+02 0.  0.
         -6    2    1    2    0  503 -0.61852017625E+02 -0.12314033424E+03 -0.46478168875E+02  0.22529643155E+03  0.17207279821E+03 0.  0.
        -24    2    5    5    0    0 -0.32997317599E+02 -0.34775670400E-02 -0.46569867449E+02  0.98736652812E+02  0.80568921263E+02 0.  0.
          2    1    4    4  501    0 -0.16023427557E+02 -0.33304918443E+01 -0.14881069811E+02  0.22119869921E+02  0.00000000000E+00 0. -1.
         -1    1    4    4    0  501  0.51981130019E+02  0.11132773160E+03 -0.13522075717E+03  0.18270346158E+03  0.00000000000E+00 0.  1.
          5    1    3    3  502    0  0.25894315163E+02  0.15143094481E+02 -0.25302188658E+03  0.25483719107E+03  0.47000000000E+01 0. -1.
         13    1    6    6    0    0 -0.51856751670E+02 -0.13797167605E+02 -0.88783435487E+01  0.54390343921E+02  0.00000000000E+00 0. -1.
        -14    1    6    6    0    0  0.18859434071E+02  0.13793690038E+02 -0.37691523900E+02  0.44346308891E+02  0.00000000000E+00 0.  1.
         -5    1    5    5    0  503 -0.28854700025E+02 -0.12313685667E+03  0.91698573568E-01  0.12655977874E+03  0.47000000000E+01 0.  1.
<mgrwt>
<rscale>  2 0.22075734E+03</rscale>
<asrwt>0</asrwt>
<pdfrwt beam="1">  1       21 0.18104237E-01 0.22085984E+03</pdfrwt>
<pdfrwt beam="2">  1       21 0.87273755E-01 0.22085984E+03</pdfrwt>
<totfact> 0.30852328E+04</totfact>
</mgrwt>
</event>
<event>
12    1  0.2769346E-001  0.2414206E+03  0.7546771E-02  0.1118977E+00
         21   -1    0    0  504  503  0.00000000000E+00  0.00000000000E+00  0.24626305951E+03  0.24626305951E+03  0.00000000000E+00 0. -1.
         21   -1    0    0  502  504 -0.00000000000E+00 -0.00000000000E+00 -0.24473175300E+03  0.24473175300E+03  0.00000000000E+00 0. -1.
          6    2    1    2  502    0  0.30802847093E+01  0.16732650542E+03 -0.45809290890E+02  0.24572834273E+03  0.17400080379E+03 0.  0.
         24    2    3    3    0    0  0.42670881608E+01  0.20276934901E+02  0.22816195401E+02  0.83381393080E+02  0.77475904700E+02 0.  0.
         -6    2    1    2    0  503 -0.30802847093E+01 -0.16732650542E+03  0.47340597403E+02  0.24526646978E+03  0.17293600397E+03 0.  0.
        -24    2    5    5    0    0  0.34888430352E+02 -0.10255373693E+03  0.87258176175E+02  0.16010404875E+03  0.79277018022E+02 0.  0.
          2    1    4    4  501    0  0.28483930956E+02  0.32708782042E+02  0.32808657170E+02  0.54383883005E+02  0.00000000000E+00 0. -1.
         -1    1    4    4    0  501 -0.24216842796E+02 -0.12431847141E+02 -0.99924617691E+01  0.28997510075E+02  0.00000000000E+00 0.  1.
          5    1    3    3  502    0 -0.11868034516E+01  0.14704957052E+03 -0.68625486290E+02  0.16234694965E+03  0.47000000000E+01 0. -1.
         11    1    6    6    0    0 -0.11055534740E+02 -0.83396753615E+02  0.60203169056E+02  0.10344885174E+03  0.00000000000E+00 0. -1.
        -12    1    6    6    0    0  0.45943965092E+02 -0.19156983313E+02  0.27055007119E+02  0.56655197010E+02  0.00000000000E+00 0.  1.
         -5    1    5    5    0  503 -0.37968715061E+02 -0.64772768490E+02 -0.39917578772E+02  0.85162421033E+02  0.47000000000E+01 0.  1.
<mgrwt>
<rscale>  2 0.24122884E+03</rscale>
<asrwt>0</asrwt>
<pdfrwt beam="1">  1       21 0.37886625E-01 0.24142064E+03</pdfrwt>
<pdfrwt beam="2">  1       21 0.37651039E-01 0.24142064E+03</pdfrwt>
<totfact> 0.44685838E+04</totfact>
</mgrwt>
</event>
<event>
12    1  0.2769346E-001  0.1797143E+03  0.7546771E-02  0.1168113E+00
         21   -1    0    0  504  503  0.00000000000E+00  0.00000000000E+00  0.12046377413E+04  0.12046377413E+04  0.00000000000E+00 0.  1.
         21   -1    0    0  502  504 -0.00000000000E+00 -0.00000000000E+00 -0.44397007510E+02  0.44397007510E+02  0.00000000000E+00 0.  1.
          6    2    1    2  502    0 -0.42090388696E+02  0.19493058134E+02  0.18670410159E+03  0.25904950264E+03  0.17348384113E+03 0.  0.
         24    2    3    3    0    0  0.42113586931E+02  0.22513726081E+02  0.11659209062E+03  0.14933524637E+03  0.80167812414E+02 0.  0.
         -6    2    1    2    0  503  0.42090388696E+02 -0.19493058134E+02  0.97353663225E+03  0.98998524622E+03  0.17362497880E+03 0.  0.
        -24    2    5    5    0    0 -0.13461722255E+02 -0.47868452479E+02  0.34161335396E+03  0.35497318360E+03  0.82666019367E+02 0.  0.
          2    1    4    4  501    0  0.34359288227E+02  0.30232304490E+02  0.12653125647E+03  0.13455375055E+03  0.00000000000E+00 0. -1.
         -1    1    4    4    0  501  0.77542987047E+01 -0.77185784089E+01 -0.99391658491E+01  0.14781495825E+02  0.00000000000E+00 0.  1.
          5    1    3    3  502    0 -0.84203975628E+02 -0.30206679469E+01  0.70112010964E+02  0.10971425627E+03  0.47000000000E+01 0. -1.
         11    1    6    6    0    0  0.20357018189E+01 -0.56541085588E+02  0.32732783488E+03  0.33218150149E+03  0.00000000000E+00 0. -1.
        -12    1    6    6    0    0 -0.15497424074E+02  0.86726331097E+01  0.14285519081E+02  0.22791682110E+02  0.00000000000E+00 0.  1.
         -5    1    5    5    0  503  0.55552110951E+02  0.28375394345E+02  0.63192327829E+03  0.63501206262E+03  0.47000000000E+01 0.  1.
<mgrwt>
<rscale>  2 0.17968016E+03</rscale>
<asrwt>0</asrwt>
<pdfrwt beam="1">  1       21 0.18532886E+00 0.17971425E+03</pdfrwt>
<pdfrwt beam="2">  1       21 0.68303097E-02 0.17971425E+03</pdfrwt>
<totfact> 0.26677062E+04</totfact>
</mgrwt>
</event>
<event>
12    1  0.2769346E-001  0.2132985E+03  0.7546771E-02  0.1139651E+00
         21   -1    0    0  504  503  0.00000000000E+00  0.00000000000E+00  0.15437979937E+04  0.15437979937E+04  0.00000000000E+00 0.  1.
         21   -1    0    0  502  504 -0.00000000000E+00 -0.00000000000E+00 -0.53636787770E+02  0.53636787770E+02  0.00000000000E+00 0. -1.
          6    2    1    2  502    0 -0.73298500054E+02  0.96304043371E+02  0.20701784348E+03  0.29724174407E+03  0.17563919842E+03 0.  0.
         24    2    3    3    0    0 -0.87003015914E+02  0.33359051249E+02  0.62993556223E+02  0.13939697505E+03  0.82346690576E+02 0.  0.
         -6    2    1    2    0  503  0.73298500054E+02 -0.96304043371E+02  0.12831433624E+04  0.13001930374E+04  0.17145817863E+03 0.  0.
        -24    2    5    5    0    0 -0.14046079492E+02 -0.26919579254E+02  0.35768197239E+03  0.36802129682E+03  0.81125368694E+02 0.  0.
          4    1    4    4  501    0 -0.21218629428E+01  0.16281209095E+02 -0.15464194714E+02  0.22554852917E+02  0.00000000000E+00 0. -1.
         -3    1    4    4    0  501 -0.84881152971E+02  0.17077842154E+02  0.78457750937E+02  0.11684212213E+03  0.00000000000E+00 0.  1.
          5    1    3    3  502    0  0.13704515859E+02  0.62944992122E+02  0.14402428726E+03  0.15784476902E+03  0.47000000000E+01 0. -1.
         11    1    6    6    0    0  0.26055921544E+02 -0.32119353929E+02  0.12008523827E+03  0.12700798556E+03  0.00000000000E+00 0. -1.
        -12    1    6    6    0    0 -0.40102001036E+02  0.51997746745E+01  0.23759673412E+03  0.24101331127E+03  0.00000000000E+00 0.  1.
         -5    1    5    5    0  503  0.87344579546E+02 -0.69384464117E+02  0.92546139005E+03  0.93217174057E+03  0.47000000000E+01 0.  1.
<mgrwt>
<rscale>  2 0.21243597E+03</rscale>
<asrwt>0</asrwt>
<pdfrwt beam="1">  1       21 0.23750735E+00 0.21329854E+03</pdfrwt>
<pdfrwt beam="2">  1       21 0.82518147E-02 0.21329854E+03</pdfrwt>
<totfact> 0.87965174E+03</totfact>
</mgrwt>
</event>
<event>
12    1  0.2769346E-001  0.1903353E+03  0.7546771E-02  0.1158230E+00
         21   -1    0    0  504  503  0.00000000000E+00  0.00000000000E+00  0.26685988969E+03  0.26685988969E+03  0.00000000000E+00 0. -1.
         21   -1    0    0  502  504 -0.00000000000E+00 -0.00000000000E+00 -0.17934194853E+03  0.17934194853E+03  0.00000000000E+00 0. -1.
          6    2    1    2  502    0 -0.61520528559E+02  0.48935602725E+02 -0.66482626507E+02  0.20161217017E+03  0.17334375929E+03 0.  0.
         24    2    3    3    0    0  0.30467766734E+02  0.22217661698E+02 -0.79019766580E+01  0.89231222587E+02  0.80485157315E+02 0.  0.
         -6    2    1    2    0  503  0.61520528559E+02 -0.48935602725E+02  0.15400056767E+03  0.24458966805E+03  0.17299844574E+03 0.  0.
        -24    2    5    5    0    0  0.36496752820E+02 -0.10669189543E+02  0.65098091996E+01  0.90103029264E+02  0.81426861015E+02 0.  0.
          4    1    4    4  501    0  0.57671417508E+02  0.21755212442E+02 -0.43307729597E+01  0.61790268329E+02  0.00000000000E+00 0. -1.
         -3    1    4    4    0  501 -0.27203650773E+02  0.46244925508E+00 -0.35712036983E+01  0.27440954257E+02  0.00000000000E+00 0.  1.
          5    1    3    3  502    0 -0.91988295293E+02  0.26717941027E+02 -0.58580649849E+02  0.11238094759E+03  0.47000000000E+01 0. -1.
         13    1    6    6    0    0  0.73880950857E+01  0.47883519177E+01  0.41271900279E+02  0.42200497814E+02  0.00000000000E+00 0. -1.
        -14    1    6    6    0    0  0.29108657734E+02 -0.15457541461E+02 -0.34762091080E+02  0.47902531450E+02  0.00000000000E+00 0.  1.
         -5    1    5    5    0  503  0.25023775739E+02 -0.38266413181E+02  0.14749075847E+03  0.15448663879E+03  0.47000000000E+01 0.  1.
<mgrwt>
<rscale>  2 0.19025665E+03</rscale>
<asrwt>0</asrwt>
<pdfrwt beam="1">  1       21 0.41055368E-01 0.19033530E+03</pdfrwt>
<pdfrwt beam="2">  1       21 0.27591069E-01 0.19033530E+03</pdfrwt>
<totfact> 0.71698708E+04</totfact>
</mgrwt>
</event>
<event>
12    1  0.2769346E-001  0.2027027E+03  0.7546771E-02  0.1147539E+00
         21   -1    0    0  504  503  0.00000000000E+00  0.00000000000E+00  0.81010360225E+03  0.81010360225E+03  0.00000000000E+00 0. -1.
         21   -1    0    0  502  504 -0.00000000000E+00 -0.00000000000E+00 -0.28180013867E+03  0.28180013867E+03  0.00000000000E+00 0. -1.
          6    2    1    2  502    0 -0.91487496673E+01  0.10527742077E+03 -0.23027657201E+03  0.30678279143E+03  0.17297787881E+03 0.  0.
         24    2    3    3    0    0 -0.44922045205E+02  0.14079683640E+02 -0.16307525068E+03  0.18789265929E+03  0.80584653599E+02 0.  0.
         -6    2    1    2    0  503  0.91487496673E+01 -0.10527742077E+03  0.75858003559E+03  0.78512094949E+03  0.17263892955E+03 0.  0.
        -24    2    5    5    0    0 -0.44887323495E+02 -0.80524833365E+02  0.65258540952E+03  0.66350870282E+03  0.76661342271E+02 0.  0.
          2    1    4    4  501    0 -0.40617790007E+02  0.35811418352E+02 -0.15520846675E+03  0.16438348671E+03  0.00000000000E+00 0. -1.
         -1    1    4    4    0  501 -0.43042551973E+01 -0.21731734712E+02 -0.78667839227E+01  0.23509172586E+02  0.00000000000E+00 0.  1.
          5    1    3    3  502    0  0.35773295537E+02  0.91197737125E+02 -0.67201321333E+02  0.11889013214E+03  0.47000000000E+01 0. -1.
         13    1    6    6    0    0  0.98995818396E+01 -0.36260575754E+02  0.38422532905E+03  0.38605949614E+03  0.00000000000E+00 0. -1.
        -14    1    6    6    0    0 -0.54786905334E+02 -0.44264257611E+02  0.26836008047E+03  0.27744920668E+03  0.00000000000E+00 0.  1.
         -5    1    5    5    0  503  0.54036073162E+02 -0.24752587400E+02  0.10599462607E+03  0.12161224667E+03  0.47000000000E+01 0.  1.
<mgrwt>
<rscale>  2 0.20263036E+03</rscale>
<asrwt>0</asrwt>
<pdfrwt beam="1">  1       21 0.12463132E+00 0.20270269E+03</pdfrwt>
<pdfrwt beam="2">  1       21 0.43353868E-01 0.20270269E+03</pdfrwt>
<totfact> 0.24357676E+03</totfact>
</mgrwt>
</event>
<event>
12    1  0.2769346E-001  0.1734574E+03  0.7546771E-02  0.1175054E+00
         21   -1    0    0  504  503  0.00000000000E+00  0.00000000000E+00  0.27898994477E+02  0.27898994477E+02  0.00000000000E+00 0.  1.
         21   -1    0    0  502  504 -0.00000000000E+00 -0.00000000000E+00 -0.12142037443E+04  0.12142037443E+04  0.00000000000E+00 0.  1.
          6    2    1    2  502    0  0.19110166258E+02 -0.35766654627E+01 -0.80998934609E+03  0.82773482504E+03  0.16936413085E+03 0.  0.
         24    2    3    3    0    0  0.37103595659E+02 -0.40812769595E+02 -0.70874313916E+03  0.71826713405E+03  0.10270579139E+03 0.  0.
         -6    2    1    2    0  503 -0.19110166258E+02  0.35766654627E+01 -0.37631540378E+03  0.41436791378E+03  0.17236442167E+03 0.  0.
        -24    2    5    5    0    0  0.25352174519E+02 -0.11536632231E+02 -0.10098221602E+03  0.13501908920E+03  0.85187556950E+02 0.  0.
          4    1    4    4  501    0  0.73150024938E+02 -0.27134886762E+02 -0.47740683668E+03  0.48374013265E+03  0.00000000000E+00 0. -1.
         -3    1    4    4    0  501 -0.36046429279E+02 -0.13677882833E+02 -0.23133630247E+03  0.23452700140E+03  0.00000000000E+00 0.  1.
          5    1    3    3  502    0 -0.17993429401E+02  0.37236104133E+02 -0.10124620693E+03  0.10946769099E+03  0.47000000000E+01 0. -1.
         13    1    6    6    0    0  0.54402110121E+01  0.61649596199E+00 -0.10990632391E+03  0.11004260992E+03  0.00000000000E+00 0. -1.
        -14    1    6    6    0    0  0.19911963507E+02 -0.12153128193E+02  0.89241078856E+01  0.24976479278E+02  0.00000000000E+00 0.  1.
         -5    1    5    5    0  503 -0.44462340777E+02  0.15113297693E+02 -0.27533318776E+03  0.27934882458E+03  0.47000000000E+01 0.  1.
<mgrwt>
<rscale>  2 0.17270733E+03</rscale>
<asrwt>0</asrwt>
<pdfrwt beam="1">  1       21 0.42921526E-02 0.17345744E+03</pdfrwt>
<pdfrwt beam="2">  1       21 0.18680059E+00 0.17345744E+03</pdfrwt>
<totfact> 0.57691548E+04</totfact>
</mgrwt>
</event>
<event>
12    1  0.2769346E-001  0.2048020E+03  0.7546771E-02  0.1145862E+00
         21   -1    0    0  504  503  0.00000000000E+00  0.00000000000E+00  0.87702627367E+03  0.87702627367E+03  0.00000000000E+00 0. -1.
         21   -1    0    0  502  504 -0.00000000000E+00 -0.00000000000E+00 -0.52591419813E+02  0.52591419813E+02  0.00000000000E+00 0.  1.
          6    2    1    2  502    0  0.44081123035E+02 -0.99676238416E+02  0.26991647794E+03  0.33848785450E+03  0.17274439114E+03 0.  0.
         24    2    3    3    0    0 -0.57758682157E+01 -0.68319137324E+02  0.62947798062E+02  0.12325051616E+03  0.80792321880E+02 0.  0.
         -6    2    1    2    0  503 -0.44081123035E+02  0.99676238416E+02  0.55451837592E+03  0.59112983898E+03  0.17339365442E+03 0.  0.
        -24    2    5    5    0    0 -0.43647529610E+02  0.33820272160E+02  0.49482704041E+03  0.50212230093E+03  0.64992980570E+02 0.  0.
          2    1    4    4  501    0  0.12609339241E+02  0.12438517314E+02 -0.22359943910E+01  0.17852501785E+02  0.00000000000E+00 0. -1.
         -1    1    4    4    0  501 -0.18385207457E+02 -0.80757654637E+02  0.65183792453E+02  0.10539801438E+03  0.00000000000E+00 0.  1.
          5    1    3    3  502    0  0.49856991251E+02 -0.31357101092E+02  0.20696867988E+03  0.21523733834E+03  0.47000000000E+01 0. -1.
         13    1    6    6    0    0 -0.44633736975E+02  0.48625433421E+02  0.32416799956E+03  0.33081942988E+03  0.00000000000E+00 0. -1.
        -14    1    6    6    0    0  0.98620736461E+00 -0.14805161261E+02  0.17065904085E+03  0.17130287105E+03  0.00000000000E+00 0.  1.
         -5    1    5    5    0  503 -0.43359342476E+00  0.65855966256E+02  0.59691335507E+02  0.89007538048E+02  0.47000000000E+01 0.  1.
<mgrwt>
<rscale>  2 0.20466451E+03</rscale>
<asrwt>0</asrwt>
<pdfrwt beam="1">  1       21 0.13492711E+00 0.20480200E+03</pdfrwt>
<pdfrwt beam="2">  1       21 0.80909883E-02 0.20480200E+03</pdfrwt>
<totfact> 0.45973527E+04</totfact>
</mgrwt>
</event>
<event>
12    1  0.2769346E-001  0.1741900E+03  0.7546771E-02  0.1173707E+00
         21   -1    0    0  504  503  0.00000000000E+00  0.00000000000E+00  0.17511934860E+03  0.17511934860E+03  0.00000000000E+00 0. -1.
         21   -1    0    0  502  504 -0.00000000000E+00 -0.00000000000E+00 -0.35933671161E+03  0.35933671161E+03  0.00000000000E+00 0. -1.
          6    2    1    2  502    0 -0.16020050036E+02 -0.10343576741E+02 -0.28464819882E+03  0.33338760980E+03  0.17250817283E+03 0.  0.
         24    2    3    3    0    0  0.42745787388E+01  0.39080078744E+02 -0.74565275909E+02  0.11656626819E+03  0.80512048356E+02 0.  0.
         -6    2    1    2    0  503  0.16020050036E+02  0.10343576741E+02  0.10043083580E+03  0.20106845042E+03  0.17314311245E+03 0.  0.
        -24    2    5    5    0    0 -0.16779518755E+02  0.58808993840E+02  0.22894950439E+02  0.10381305526E+03  0.80702674560E+02 0.  0.
          4    1    4    4  501    0 -0.14011849800E+02 -0.17041508477E+02 -0.77927223328E+00  0.22076055155E+02  0.00000000000E+00 0. -1.
         -3    1    4    4    0  501  0.18286428539E+02  0.56121587222E+02 -0.73786003676E+02  0.94490213035E+02  0.00000000000E+00 0.  1.
          5    1    3    3  502    0 -0.20294628775E+02 -0.49423655486E+02 -0.21008292291E+03  0.21682134161E+03  0.47000000000E+01 0. -1.
         13    1    6    6    0    0 -0.39597547390E+02  0.30794514515E+01  0.17340301843E+02  0.43337453185E+02  0.00000000000E+00 0. -1.
        -14    1    6    6    0    0  0.22818028634E+02  0.55729542389E+02  0.55546485957E+01  0.60475602078E+02  0.00000000000E+00 0.  1.
         -5    1    5    5    0  503  0.32799568792E+02 -0.48465417099E+02  0.77535885365E+02  0.97255395155E+02  0.47000000000E+01 0.  1.
<mgrwt>
<rscale>  2 0.17403204E+03</rscale>
<asrwt>0</asrwt>
<pdfrwt beam="1">  1       21 0.26941438E-01 0.17419004E+03</pdfrwt>
<pdfrwt beam="2">  1       21 0.55282571E-01 0.17419004E+03</pdfrwt>
<totfact> 0.40874689E+04</totfact>
</mgrwt>
</event>
<event>
12    1  0.2769346E-001  0.2246074E+03  0.7546771E-02  0.1131849E+00
         21   -1    0    0  504  503  0.00000000000E+00  0.00000000000E+00  0.16771998206E+04  0.16771998206E+04  0.00000000000E+00 0.  1.
         21   -1    0    0  502  504 -0.00000000000E+00 -0.00000000000E+00 -0.94415572111E+02  0.94415572111E+02  0.00000000000E+00 0.  1.
          6    2    1    2  502    0  0.14104249785E+03  0.25498294435E+02  0.50641281264E+02  0.22309656840E+03  0.16329234595E+03 0.  0.
         24    2    3    3    0    0  0.14949039438E+03  0.16978112117E+02 -0.11119525909E+00  0.17073375397E+03  0.80711635321E+02 0.  0.
         -6    2    1    2    0  503 -0.14104249785E+03 -0.25498294435E+02  0.15321429672E+04  0.15485188243E+04  0.17293157026E+03 0.  0.
        -24    2    5    5    0    0 -0.16913505849E+03 -0.25701538243E+02  0.14313588179E+04  0.14437869379E+04  0.80407832004E+02 0.  0.
          4    1    4    4  501    0  0.97697347854E+02  0.23373871963E+02 -0.36754531201E+02  0.10696730918E+03  0.00000000000E+00 0. -1.
         -3    1    4    4    0  501  0.51793046526E+02 -0.63957598456E+01  0.36643335942E+02  0.63766444792E+02  0.00000000000E+00 0.  1.
          5    1    3    3  502    0 -0.84478965286E+01  0.85201823182E+01  0.50752476524E+02  0.52362814437E+02  0.47000000000E+01 0. -1.
         11    1    6    6    0    0 -0.91027342022E+01 -0.11744629821E+02  0.37400244245E+03  0.37429750608E+03  0.00000000000E+00 0. -1.
        -12    1    6    6    0    0 -0.16003232429E+03 -0.13956908422E+02  0.10573563754E+04  0.10694894318E+04  0.00000000000E+00 0.  1.
         -5    1    5    5    0  503  0.28092560636E+02  0.20324380776E+00  0.10078414934E+03  0.10473188640E+03  0.47000000000E+01 0.  1.
<mgrwt>
<rscale>  2 0.22275089E+03</rscale>
<asrwt>0</asrwt>
<pdfrwt beam="1">  1       21 0.25803072E+00 0.22460738E+03</pdfrwt>
<pdfrwt beam="2">  1       21 0.14525474E-01 0.22460738E+03</pdfrwt>
<totfact> 0.23975291E+03</totfact>
</mgrwt>
</event>
<event>
12    1  0.2769346E-001  0.1882765E+03  0.7546771E-02  0.1160664E+00
         21   -1    0    0  504  503  0.00000000000E+00  0.00000000000E+00  0.72887689270E+03  0.72887689270E+03  0.00000000000E+00 0. -1.
         21   -1    0    0  502  504 -0.00000000000E+00 -0.00000000000E+00 -0.59905624629E+02  0.59905624629E+02  0.00000000000E+00 0. -1.
          6    2    1    2  502    0 -0.32173289651E+02 -0.56806002949E+02  0.16006091381E+03  0.24711846060E+03  0.17659556874E+03 0.  0.
         24    2    3    3    0    0 -0.55011778018E+01  0.35898530922E+02  0.95234723459E+02  0.13079968694E+03  0.81975228396E+02 0.  0.
         -6    2    1    2    0  503  0.32173289651E+02  0.56806002949E+02  0.50891035426E+03  0.54166405673E+03  0.17363225261E+03 0.  0.
        -24    2    5    5    0    0  0.30091840649E+01  0.49953385572E+01  0.45002969394E+03  0.45785527342E+03  0.84087557830E+02 0.  0.
          2    1    4    4  501    0  0.27220531989E+02  0.17618193357E+02  0.46368541643E+01  0.32754519009E+02  0.00000000000E+00 0. -1.
         -1    1    4    4    0  501 -0.32721709791E+02  0.18280337565E+02  0.90597869295E+02  0.98045167927E+02  0.00000000000E+00 0.  1.
          5    1    3    3  502    0 -0.26672111849E+02 -0.92704533871E+02  0.64826190355E+02  0.11631877366E+03  0.47000000000E+01 0. -1.
         13    1    6    6    0    0  0.40634692142E+02  0.16688015810E+02  0.27138539553E+03  0.27491762582E+03  0.00000000000E+00 0. -1.
        -14    1    6    6    0    0 -0.37625508077E+02 -0.11692677252E+02  0.17864429840E+03  0.18293764761E+03  0.00000000000E+00 0.  1.
         -5    1    5    5    0  503  0.29164105586E+02  0.51810664392E+02  0.58880660319E+02  0.83808783305E+02  0.47000000000E+01 0.  1.
<mgrwt>
<rscale>  2 0.18757846E+03</rscale>
<asrwt>0</asrwt>
<pdfrwt beam="1">  1       21 0.11213490E+00 0.18827649E+03</pdfrwt>
<pdfrwt beam="2">  1       21 0.92162505E-02 0.18827649E+03</pdfrwt>
<totfact> 0.58531527E+04</totfact>
</mgrwt>
</event>
<event>
12    1  0.2769346E-001  0.1731892E+03  0.7546771E-02  0.1174693E+00
         21   -1    0    0  504  503  0.00000000000E+00  0.00000000000E+00  0.23906740059E+03  0.23906740059E+03  0.00000000000E+00 0. -1.
         21   -1    0    0  502  504 -0.00000000000E+00 -0.00000000000E+00 -0.12569472618E+03  0.12569472618E+03  0.00000000000E+00 0. -1.
          6    2    1    2  502    0 -0.13685785304E+02  0.37057705040E+01  0.69228590946E+02  0.18603547789E+03  0.17209174232E+03 0.  0.
         24    2    3    3    0    0  0.39395935529E+02  0.51366564018E+02  0.47253475051E+02  0.11124098583E+03  0.77143388491E+02 0.  0.
         -6    2    1    2    0  503  0.13685785304E+02 -0.37057705040E+01  0.44144083462E+02  0.17872664888E+03  0.17260788354E+03 0.  0.
        -24    2    5    5    0    0  0.28191307633E+02 -0.57273551055E+01  0.93065401214E+02  0.12744427069E+03  0.82178590921E+02 0.  0.
          4    1    4    4  501    0  0.31640824826E+02  0.16021318784E+01 -0.11636842884E+02  0.33750921981E+02  0.00000000000E+00 0. -1.
         -3    1    4    4    0  501  0.77551107028E+01  0.49764432139E+02  0.58890317935E+02  0.77490063845E+02  0.00000000000E+00 0.  1.
          5    1    3    3  502    0 -0.53081720833E+02 -0.47660793514E+02  0.21975115895E+02  0.74794492067E+02  0.47000000000E+01 0. -1.
         11    1    6    6    0    0 -0.17813662677E+02 -0.25258915730E+02  0.60070748686E+02  0.67556156267E+02  0.00000000000E+00 0. -1.
        -12    1    6    6    0    0  0.46004970310E+02  0.19531560625E+02  0.32994652528E+02  0.59888114422E+02  0.00000000000E+00 0.  1.
         -5    1    5    5    0  503 -0.14505522329E+02  0.20215846015E+01 -0.48921317751E+02  0.51282378190E+02  0.47000000000E+01 0.  1.
<mgrwt>
<rscale>  2 0.17306050E+03</rscale>
<asrwt>0</asrwt>
<pdfrwt beam="1">  1       21 0.36779600E-01 0.17318925E+03</pdfrwt>
<pdfrwt beam="2">  1       21 0.19337650E-01 0.17318925E+03</pdfrwt>
<totfact> 0.17627804E+05</totfact>
</mgrwt>
</event>
<event>
12    1  0.2769346E-001  0.2232437E+03  0.7546771E-02  0.1131890E+00
         21   -1    0    0  504  503  0.00000000000E+00  0.00000000000E+00  0.48746605706E+03  0.48746605706E+03  0.00000000000E+00 0.  1.
         21   -1    0    0  502  504 -0.00000000000E+00 -0.00000000000E+00 -0.11349065871E+03  0.11349065871E+03  0.00000000000E+00 0. -1.
          6    2    1    2  502    0 -0.73784203797E+02 -0.12002203214E+03  0.89081462635E+02  0.24036072589E+03  0.17317151797E+03 0.  0.
         24    2    3    3    0    0  0.26308126056E+01 -0.11953830145E+03  0.38917131858E+02  0.14882909852E+03  0.79619286136E+02 0.  0.
         -6    2    1    2    0  503  0.73784203797E+02  0.12002203214E+03  0.28489393571E+03  0.36059598987E+03  0.17033941521E+03 0.  0.
        -24    2    5    5    0    0  0.44427555473E+02  0.75983119628E+02  0.68938924984E+02  0.13820018218E+03  0.81237139437E+02 0.  0.
          2    1    4    4  501    0  0.36349607317E+02 -0.74638927599E+02  0.41099285234E+02  0.92635925601E+02  0.00000000000E+00 0. -1.
         -1    1    4    4    0  501 -0.33718794712E+02 -0.44899373854E+02 -0.21821533752E+01  0.56193172919E+02  0.00000000000E+00 0.  1.
          5    1    3    3  502    0 -0.76415016403E+02 -0.48373068519E+00  0.50164330777E+02  0.91531627373E+02  0.47000000000E+01 0. -1.
         11    1    6    6    0    0  0.26795840944E+02 -0.10708826628E+02  0.29737734144E+02  0.41437047333E+02  0.00000000000E+00 0. -1.
        -12    1    6    6    0    0  0.17631714529E+02  0.86691946256E+02  0.39201190840E+02  0.96763134851E+02  0.00000000000E+00 0.  1.
         -5    1    5    5    0  503  0.29356648324E+02  0.44038912510E+02  0.21595501073E+03  0.22239580768E+03  0.47000000000E+01 0.  1.
<mgrwt>
<rscale>  2 0.22269431E+03</rscale>
<asrwt>0</asrwt>
<pdfrwt beam="1">  1       21 0.74994777E-01 0.22324375E+03</pdfrwt>
<pdfrwt beam="2">  1       21 0.17460102E-01 0.22324375E+03</pdfrwt>
<totfact> 0.46527985E+04</totfact>
</mgrwt>
</event>
<event>
12    1  0.2769346E-001  0.2300440E+03  0.7546771E-02  0.1126619E+00
         21   -1    0    0  504  503  0.00000000000E+00  0.00000000000E+00  0.80038168874E+03  0.80038168874E+03  0.00000000000E+00 0. -1.
         21   -1    0    0  502  504 -0.00000000000E+00 -0.00000000000E+00 -0.11451202276E+03  0.11451202276E+03  0.00000000000E+00 0. -1.
          6    2    1    2  502    0  0.13453848031E+03  0.69823167904E+02  0.45530730382E+02  0.23450650480E+03  0.17304443338E+03 0.  0.
         24    2    3    3    0    0  0.48101629339E+02  0.54382659091E+02  0.85788682507E+02  0.13779801899E+03  0.79733027259E+02 0.  0.
         -6    2    1    2    0  503 -0.13453848031E+03 -0.69823167904E+02  0.64033893560E+03  0.68038720670E+03  0.17296508646E+03 0.  0.
        -24    2    5    5    0    0 -0.15675530453E+03 -0.90305577521E+02  0.52093497201E+03  0.55712929457E+03  0.79325172394E+02 0.  0.
          4    1    4    4  501    0  0.45397006739E+02  0.74660095722E+02  0.69373668380E+02  0.11156936846E+03  0.00000000000E+00 0. -1.
         -3    1    4    4    0  501  0.27046226002E+01 -0.20277436631E+02  0.16415014127E+02  0.26228650528E+02  0.00000000000E+00 0.  1.
          5    1    3    3  502    0  0.86436850971E+02  0.15440508813E+02 -0.40257952125E+02  0.96708485810E+02  0.47000000000E+01 0. -1.
         11    1    6    6    0    0 -0.15774578047E+02 -0.17771962325E+02  0.17484385949E+03  0.17645128267E+03  0.00000000000E+00 0. -1.
        -12    1    6    6    0    0 -0.14098072648E+03 -0.72533615196E+02  0.34609111253E+03  0.38067801190E+03  0.00000000000E+00 0.  1.
         -5    1    5    5    0  503  0.22216824216E+02  0.20482409616E+02  0.11940396359E+03  0.12325791213E+03  0.47000000000E+01 0.  1.
<mgrwt>
<rscale>  2 0.23002910E+03</rscale>
<asrwt>0</asrwt>
<pdfrwt beam="1">  1       21 0.12313564E+00 0.23004402E+03</pdfrwt>
<pdfrwt beam="2">  1       21 0.17617235E-01 0.23004402E+03</pdfrwt>
<totfact> 0.14122148E+04</totfact>
</mgrwt>
</event>
<event>
12    1  0.2769346E-001  0.2325870E+03  0.7546771E-02  0.1125096E+00
         21   -1    0    0  504  503  0.00000000000E+00  0.00000000000E+00  0.25916313308E+03  0.25916313308E+03  0.00000000000E+00 0.  1.
         21   -1    0    0  502  504 -0.00000000000E+00 -0.00000000000E+00 -0.21590840658E+03  0.21590840658E+03  0.00000000000E+00 0. -1.
          6    2    1    2  502    0  0.15321732011E+03 -0.24144070119E+02 -0.25518727701E+02  0.23398274189E+03  0.17331541978E+03 0.  0.
         24    2    3    3    0    0  0.18239685471E+03 -0.28588166333E+02 -0.30457574672E+02  0.20368955057E+03  0.80472810910E+02 0.  0.
         -6    2    1    2    0  503 -0.15321732011E+03  0.24144070119E+02  0.68773454198E+02  0.24108879777E+03  0.17127620122E+03 0.  0.
        -24    2    5    5    0    0 -0.11055468132E+03  0.15510477380E+02  0.11368102200E+03  0.17837181987E+03  0.80188645648E+02 0.  0.
          4    1    4    4  501    0  0.47380084577E+02  0.21211769698E+02  0.12712904250E+02  0.53445575334E+02  0.00000000000E+00 0. -1.
         -3    1    4    4    0  501  0.13501677013E+03 -0.49799936031E+02 -0.43170478922E+02  0.15024397524E+03  0.00000000000E+00 0.  1.
          5    1    3    3  502    0 -0.29179534600E+02  0.44440962138E+01  0.49388469712E+01  0.30293191315E+02  0.47000000000E+01 0. -1.
         11    1    6    6    0    0 -0.35591680077E+02 -0.99397391003E+01 -0.33224804652E+01  0.37102627677E+02  0.00000000000E+00 0. -1.
        -12    1    6    6    0    0 -0.74963001243E+02  0.25450216480E+02  0.11700350246E+03  0.14126919219E+03  0.00000000000E+00 0.  1.
         -5    1    5    5    0  503 -0.42662638786E+02  0.86335927388E+01 -0.44907567798E+02  0.62716977903E+02  0.47000000000E+01 0.  1.
<mgrwt>
<rscale>  2 0.23220719E+03</rscale>
<asrwt>0</asrwt>
<pdfrwt beam="1">  1       21 0.39871251E-01 0.23258701E+03</pdfrwt>
<pdfrwt beam="2">  1       21 0.33216678E-01 0.23258701E+03</pdfrwt>
<totfact> 0.51956955E+04</totfact>
</mgrwt>
</event>
<event>
12    1  0.2769346E-001  0.1744041E+03  0.7546771E-02  0.1173395E+00
         21   -1    0    0  504  503  0.00000000000E+00  0.00000000000E+00  0.16915706937E+04  0.16915706937E+04  0.00000000000E+00 0. -1.
         21   -1    0    0  502  504 -0.00000000000E+00 -0.00000000000E+00 -0.19310055889E+02  0.19310055889E+02  0.00000000000E+00 0. -1.
          6    2    1    2  502    0 -0.41853397596E+01  0.22692029202E+02  0.61012285735E+03  0.63456022977E+03  0.17287087346E+03 0.  0.
         24    2    3    3    0    0 -0.10908545175E+02  0.65289142373E+02  0.28812467133E+03  0.30965310868E+03  0.92127916577E+02 0.  0.
         -6    2    1    2    0  503  0.41853397596E+01 -0.22692029202E+02  0.10621377804E+04  0.10763205198E+04  0.17261735553E+03 0.  0.
        -24    2    5    5    0    0  0.39821577506E+01  0.13001868355E+02  0.23476212003E+03  0.24816191841E+03  0.79285424808E+02 0.  0.
          2    1    4    4  501    0 -0.17302519339E+02  0.63933580533E+02  0.91692937322E+02  0.11311266353E+03  0.00000000000E+00 0. -1.
         -1    1    4    4    0  501  0.63939741642E+01  0.13555618400E+01  0.19643173401E+03  0.19654044515E+03  0.00000000000E+00 0.  1.
          5    1    3    3  502    0  0.67232054152E+01 -0.42597113171E+02  0.32199818601E+03  0.32490712109E+03  0.47000000000E+01 0. -1.
         11    1    6    6    0    0 -0.22483517039E+02 -0.10214686753E+02  0.18807111632E+03  0.18968551120E+03  0.00000000000E+00 0. -1.
        -12    1    6    6    0    0  0.26465674790E+02  0.23216555108E+02  0.46691003708E+02  0.58476407212E+02  0.00000000000E+00 0.  1.
         -5    1    5    5    0  503  0.20318200892E+00 -0.35693897557E+02  0.82737566041E+03  0.82815860139E+03  0.47000000000E+01 0.  1.
<mgrwt>
<rscale>  2 0.17434123E+03</rscale>
<asrwt>0</asrwt>
<pdfrwt beam="1">  1       21 0.26024153E+00 0.17440408E+03</pdfrwt>
<pdfrwt beam="2">  1       21 0.29707792E-02 0.17440408E+03</pdfrwt>
<totfact> 0.37833584E+04</totfact>
</mgrwt>
</event>
<event>
12    1  0.2769346E-001  0.2125920E+03  0.7546771E-02  0.1142412E+00
         21   -1    0    0  504  503  0.00000000000E+00  0.00000000000E+00  0.44823341056E+02  0.44823341056E+02  0.00000000000E+00 0.  1.
         21   -1    0    0  502  504 -0.00000000000E+00 -0.00000000000E+00 -0.10125020987E+04  0.10125020987E+04  0.00000000000E+00 0.  1.
          6    2    1    2  502    0  0.29411332672E+01  0.97127409048E+02 -0.63904628875E+03  0.67348016620E+03  0.18908461399E+03 0.  0.
         24    2    3    3    0    0  0.24424622998E+02  0.12995266093E+03 -0.58979196848E+03  0.61033655562E+03  0.84687004568E+02 0.  0.
         -6    2    1    2    0  503 -0.29411332672E+01 -0.97127409048E+02 -0.32863246888E+03  0.38384527354E+03  0.17290318263E+03 0.  0.
        -24    2    5    5    0    0 -0.68281947311E+02 -0.60465740024E+02 -0.23108792807E+03  0.26075779490E+03  0.79211533620E+02 0.  0.
          2    1    4    4  501    0 -0.48335141116E+01  0.11793719727E+03 -0.52665193290E+03  0.53971733693E+03  0.00000000000E+00 0. -1.
         -1    1    4    4    0  501  0.29258137109E+02  0.12015463668E+02 -0.63140035586E+02  0.70619218687E+02  0.00000000000E+00 0.  1.
          5    1    3    3  502    0 -0.21483489730E+02 -0.32825251886E+02 -0.49254320263E+02  0.63143610579E+02  0.47000000000E+01 0. -1.
         11    1    6    6    0    0  0.14318073176E+02 -0.22778100057E+02 -0.80936490591E+02  0.85291057977E+02  0.00000000000E+00 0. -1.
        -12    1    6    6    0    0 -0.82600020487E+02 -0.37687639967E+02 -0.15015143748E+03  0.17546673693E+03  0.00000000000E+00 0.  1.
         -5    1    5    5    0  503  0.65340814044E+02 -0.36661669024E+02 -0.97544540805E+02  0.12308747863E+03  0.47000000000E+01 0.  1.
<mgrwt>
<rscale>  2 0.20893521E+03</rscale>
<asrwt>0</asrwt>
<pdfrwt beam="1">  1       21 0.68958989E-02 0.21259204E+03</pdfrwt>
<pdfrwt beam="2">  1       21 0.15576955E+00 0.21259204E+03</pdfrwt>
<totfact> 0.41495986E+04</totfact>
</mgrwt>
</event>
<event>
12    1  0.2769346E-001  0.1807863E+03  0.7546771E-02  0.1167297E+00
         21   -1    0    0  504  503  0.00000000000E+00  0.00000000000E+00  0.15420218496E+03  0.15420218496E+03  0.00000000000E+00 0.  1.
         21   -1    0    0  502  504 -0.00000000000E+00 -0.00000000000E+00 -0.21221953213E+03  0.21221953213E+03  0.00000000000E+00 0.  1.
          6    2    1    2  502    0  0.47480656354E+02 -0.17395651019E+02 -0.44299196133E+02  0.18511572505E+03  0.17247722018E+03 0.  0.
         24    2    3    3    0    0  0.22835003170E+02  0.60695684698E+02 -0.33479806821E+02  0.10238233324E+03  0.71804186402E+02 0.  0.
         -6    2    1    2    0  503 -0.47480656354E+02  0.17395651019E+02 -0.13718151034E+02  0.18130599204E+03  0.17357031336E+03 0.  0.
        -24    2    5    5    0    0 -0.33284322891E+02 -0.84863861148E+01 -0.75832506586E+02  0.11237342430E+03  0.75480809042E+02 0.  0.
          2    1    4    4  501    0  0.23566969506E+02  0.75979204689E+02 -0.20085095924E+02  0.82046649384E+02  0.00000000000E+00 0. -1.
         -1    1    4    4    0  501 -0.73196633630E+00 -0.15283519991E+02 -0.13394710897E+02  0.20335683859E+02  0.00000000000E+00 0.  1.
          5    1    3    3  502    0  0.24645653185E+02 -0.78091335717E+02 -0.10819389312E+02  0.82733391808E+02  0.47000000000E+01 0. -1.
         11    1    6    6    0    0 -0.29454605506E+02  0.29341588723E+02 -0.55228977285E+02  0.69128449615E+02  0.00000000000E+00 0. -1.
        -12    1    6    6    0    0 -0.38297173852E+01 -0.37827974838E+02 -0.20603529301E+02  0.43244974682E+02  0.00000000000E+00 0.  1.
         -5    1    5    5    0  503 -0.14196333463E+02  0.25882037133E+02  0.62114355552E+02  0.68932567743E+02  0.47000000000E+01 0.  1.
<mgrwt>
<rscale>  2 0.18052340E+03</rscale>
<asrwt>0</asrwt>
<pdfrwt beam="1">  1       21 0.23723413E-01 0.18078627E+03</pdfrwt>
<pdfrwt beam="2">  1       21 0.32649159E-01 0.18078627E+03</pdfrwt>
<totfact> 0.15167996E+05</totfact>
</mgrwt>
</event>
<event>
12    1  0.2769346E-001  0.1953303E+03  0.7546771E-02  0.1153978E+00
         21   -1    0    0  504  503  0.00000000000E+00  0.00000000000E+00  0.22813375526E+03  0.22813375526E+03  0.00000000000E+00 0. -1.
         21   -1    0    0  502  504 -0.00000000000E+00 -0.00000000000E+00 -0.31500289295E+03  0.31500289295E+03  0.00000000000E+00 0. -1.
          6    2    1    2  502    0  0.45115508015E+02  0.73851069902E+02 -0.22995083255E+03  0.30100796241E+03  0.17389369873E+03 0.  0.
         24    2    3    3    0    0  0.16989304725E+02 -0.30372946568E+02 -0.89360963576E+02  0.12369092945E+03  0.78121135804E+02 0.  0.
         -6    2    1    2    0  503 -0.45115508015E+02 -0.73851069902E+02  0.14308169486E+03  0.24212868580E+03  0.17511293354E+03 0.  0.
        -24    2    5    5    0    0 -0.50529083231E+02 -0.11743096564E+03  0.11361726872E+03  0.18903672296E+03  0.80515706132E+02 0.  0.
          4    1    4    4  501    0 -0.19673977192E+02 -0.26742047258E+02 -0.78576675967E+02  0.85302382593E+02  0.00000000000E+00 0. -1.
         -3    1    4    4    0  501  0.36663281917E+02 -0.36308993101E+01 -0.10784287609E+02  0.38388546859E+02  0.00000000000E+00 0.  1.
          5    1    3    3  502    0  0.28126203290E+02  0.10422401647E+03 -0.14058986897E+03  0.17731703296E+03  0.47000000000E+01 0. -1.
         13    1    6    6    0    0 -0.66747310476E+02 -0.11716248425E+03  0.10043564017E+03  0.16813556729E+03  0.00000000000E+00 0. -1.
        -14    1    6    6    0    0  0.16218227245E+02 -0.26848138918E+00  0.13181628550E+02  0.20901155673E+02  0.00000000000E+00 0.  1.
         -5    1    5    5    0  503  0.54135752160E+01  0.43579895743E+02  0.29464426146E+02  0.53091962835E+02  0.47000000000E+01 0.  1.
<mgrwt>
<rscale>  2 0.19505666E+03</rscale>
<asrwt>0</asrwt>
<pdfrwt beam="1">  1       21 0.35097501E-01 0.19533031E+03</pdfrwt>
<pdfrwt beam="2">  1       21 0.48461984E-01 0.19533031E+03</pdfrwt>
<totfact> 0.31778054E+04</totfact>
</mgrwt>
</event>
<event>
12    1  0.2769346E-001  0.1810433E+03  0.7546771E-02  0.1167442E+00
         21   -1    0    0  504  503  0.00000000000E+00  0.00000000000E+00  0.83565128175E+02  0.83565128175E+02  0.00000000000E+00 0. -1.
         21   -1    0    0  502  504 -0.00000000000E+00 -0.00000000000E+00 -0.42175753381E+03  0.42175753381E+03  0.00000000000E+00 0. -1.
          6    2    1    2  502    0 -0.42794804683E+02  0.23864358179E+02 -0.24332075849E+03  0.30328482411E+03  0.17428651734E+03 0.  0.
         24    2    3    3    0    0  0.15489911820E+02  0.15334509538E+02 -0.30673240394E+02  0.82579311161E+02  0.73507893484E+02 0.  0.
         -6    2    1    2    0  503  0.42794804683E+02 -0.23864358179E+02 -0.94871647149E+02  0.20203783788E+03  0.17151605057E+03 0.  0.
        -24    2    5    5    0    0  0.38814327784E+01  0.49726434402E+02 -0.51258921191E+02  0.10794206150E+03  0.80846940827E+02 0.  0.
          2    1    4    4  501    0 -0.28948466487E+02  0.12124981705E+02 -0.71201101596E+01  0.32182679534E+02  0.00000000000E+00 0. -1.
         -1    1    4    4    0  501  0.44438378307E+02  0.32095278326E+01 -0.23553130235E+02  0.50396631627E+02  0.00000000000E+00 0.  1.
          5    1    3    3  502    0 -0.58284716503E+02  0.85298486415E+01 -0.21264751810E+03  0.22070551295E+03  0.47000000000E+01 0. -1.
         13    1    6    6    0    0  0.33475399212E+02  0.42349974923E+02 -0.73512232244E+01  0.54480851786E+02  0.00000000000E+00 0. -1.
        -14    1    6    6    0    0 -0.29593966433E+02  0.73764594780E+01 -0.43907697967E+02  0.53461209717E+02  0.00000000000E+00 0.  1.
         -5    1    5    5    0  503  0.38913371905E+02 -0.73590792581E+02 -0.43612725957E+02  0.94095776372E+02  0.47000000000E+01 0.  1.
<mgrwt>
<rscale>  2 0.18037326E+03</rscale>
<asrwt>0</asrwt>
<pdfrwt beam="1">  1       21 0.12856173E-01 0.18104335E+03</pdfrwt>
<pdfrwt beam="2">  1       21 0.64885775E-01 0.18104335E+03</pdfrwt>
<totfact> 0.11394467E+05</totfact>
</mgrwt>
</event>
<event>
12    1  0.2769346E-001  0.1910325E+03  0.7546771E-02  0.1157693E+00
         21   -1    0    0  504  503  0.00000000000E+00  0.00000000000E+00  0.22830845857E+02  0.22830845857E+02  0.00000000000E+00 0.  1.
         21   -1    0    0  502  504 -0.00000000000E+00 -0.00000000000E+00 -0.16432204884E+04  0.16432204884E+04  0.00000000000E+00 0.  1.
          6    2    1    2  502    0  0.78198009040E+02  0.37452957876E+00 -0.95510220513E+03  0.97388025579E+03  0.17351501807E+03 0.  0.
         24    2    3    3    0    0  0.47371359381E+02  0.36981068382E+02 -0.87341146731E+03  0.87908686120E+03  0.79589403872E+02 0.  0.
         -6    2    1    2    0  503 -0.78198009040E+02 -0.37452957876E+00 -0.66528743744E+03  0.69217107849E+03  0.17429388569E+03 0.  0.
        -24    2    5    5    0    0 -0.93333203458E+00  0.22497195034E+02 -0.51379110166E+03  0.52051393225E+03  0.80289866287E+02 0.  0.
          2    1    4    4  501    0 -0.53368686611E+01  0.48331661654E+01 -0.53754313772E+03  0.53759135649E+03  0.00000000000E+00 0. -1.
         -1    1    4    4    0  501  0.52708228042E+02  0.32147902217E+02 -0.33586832959E+03  0.34149550472E+03  0.00000000000E+00 0.  1.
          5    1    3    3  502    0  0.30826649659E+02 -0.36606538803E+02 -0.81690737818E+02  0.94793394589E+02  0.47000000000E+01 0. -1.
         11    1    6    6    0    0  0.21050253266E+02  0.43573939124E+02 -0.39186944284E+03  0.39484612391E+03  0.00000000000E+00 0. -1.
        -12    1    6    6    0    0 -0.21983585301E+02 -0.21076744090E+02 -0.12192165882E+03  0.12566780834E+03  0.00000000000E+00 0.  1.
         -5    1    5    5    0  503 -0.77264677005E+02 -0.22871724613E+02 -0.15149633578E+03  0.17165714624E+03  0.47000000000E+01 0.  1.
<mgrwt>
<rscale>  2 0.19085469E+03</rscale>
<asrwt>0</asrwt>
<pdfrwt beam="1">  1       21 0.35124370E-02 0.19103253E+03</pdfrwt>
<pdfrwt beam="2">  1       21 0.25280321E+00 0.19103253E+03</pdfrwt>
<totfact> 0.31215949E+04</totfact>
</mgrwt>
</event>
<event>
12    1  0.2769346E-001  0.1938949E+03  0.7546771E-02  0.1155414E+00
         21   -1    0    0  504  503  0.00000000000E+00  0.00000000000E+00  0.16437215113E+03  0.16437215113E+03  0.00000000000E+00 0.  1.
         21   -1    0    0  502  504 -0.00000000000E+00 -0.00000000000E+00 -0.29860913004E+03  0.29860913004E+03  0.00000000000E+00 0.  1.
          6    2    1    2  502    0  0.58613758767E+02 -0.65760645574E+02 -0.18063659999E+03  0.26361188548E+03  0.17059193910E+03 0.  0.
         24    2    3    3    0    0  0.10000008773E+03 -0.45355929567E+02 -0.17259370600E+03  0.21653791386E+03  0.71013399392E+02 0.  0.
         -6    2    1    2    0  503 -0.58613758767E+02  0.65760645574E+02  0.46399621075E+02  0.19936939570E+03  0.17272867707E+03 0.  0.
        -24    2    5    5    0    0 -0.14336118149E+00  0.97133063009E+02  0.28404102966E+02  0.13045680874E+03  0.82324561338E+02 0.  0.
          4    1    4    4  501    0  0.74910363442E+02 -0.52770372604E+01 -0.66196335916E+02  0.10010676581E+03  0.00000000000E+00 0. -1.
         -3    1    4    4    0  501  0.25089724290E+02 -0.40078892306E+02 -0.10639737008E+03  0.11643114804E+03  0.00000000000E+00 0.  1.
          5    1    3    3  502    0 -0.41386328965E+02 -0.20404716007E+02 -0.80428939872E+01  0.47073971621E+02  0.47000000000E+01 0. -1.
         13    1    6    6    0    0  0.16831113359E+02 -0.75578470454E+01 -0.52581414956E+01  0.19184772109E+02  0.00000000000E+00 0. -1.
        -14    1    6    6    0    0 -0.16974474541E+02  0.10469091005E+03  0.33662244461E+02  0.11127203663E+03  0.00000000000E+00 0.  1.
         -5    1    5    5    0  503 -0.58470397586E+02 -0.31372417434E+02  0.17995518109E+02  0.68912586960E+02  0.47000000000E+01 0.  1.
<mgrwt>
<rscale>  2 0.19341788E+03</rscale>
<asrwt>0</asrwt>
<pdfrwt beam="1">  1       21 0.25288023E-01 0.19389490E+03</pdfrwt>
<pdfrwt beam="2">  1       21 0.45939866E-01 0.19389490E+03</pdfrwt>
<totfact> 0.67265631E+04</totfact>
</mgrwt>
</event>
<event>
12    1  0.2769346E-001  0.1932757E+03  0.7546771E-02  0.1156940E+00
         21   -1    0    0  504  503  0.00000000000E+00  0.00000000000E+00  0.21845547599E+03  0.21845547599E+03  0.00000000000E+00 0. -1.
         21   -1    0    0  502  504 -0.00000000000E+00 -0.00000000000E+00 -0.24779130221E+03  0.24779130221E+03  0.00000000000E+00 0. -1.
          6    2    1    2  502    0 -0.27119441340E+02 -0.64453793960E+02 -0.14914279774E+03  0.24412921482E+03  0.18018252900E+03 0.  0.
         24    2    3    3    0    0 -0.32760724875E+02  0.10649856937E+02 -0.12100434390E+02  0.87684074882E+02  0.79720712042E+02 0.  0.
         -6    2    1    2    0  503  0.27119441340E+02  0.64453793960E+02  0.11980697152E+03  0.22211756337E+03  0.17347260844E+03 0.  0.
        -24    2    5    5    0    0 -0.70887994195E+01  0.88743226798E+02  0.32748487906E+02  0.12536297768E+03  0.81962194532E+02 0.  0.
          4    1    4    4  501    0 -0.54705089836E+02 -0.11196745829E+02 -0.64919987409E+01  0.56215300575E+02  0.00000000000E+00 0. -1.
         -3    1    4    4    0  501  0.21944364961E+02  0.21846602766E+02 -0.56084356489E+01  0.31468774307E+02  0.00000000000E+00 0.  1.
          5    1    3    3  502    0  0.56412835354E+01 -0.75103650896E+02 -0.13704236335E+03  0.15644513994E+03  0.47000000000E+01 0. -1.
         13    1    6    6    0    0  0.18739676307E+02  0.31471042881E+01  0.30489731238E+02  0.35926361414E+02  0.00000000000E+00 0. -1.
        -14    1    6    6    0    0 -0.25828475727E+02  0.85596122510E+02  0.22587566676E+01  0.89436616264E+02  0.00000000000E+00 0.  1.
         -5    1    5    5    0  503  0.34208240759E+02 -0.24289432838E+02  0.87058483616E+02  0.96754585695E+02  0.47000000000E+01 0.  1.
<mgrwt>
<rscale>  2 0.19169656E+03</rscale>
<asrwt>0</asrwt>
<pdfrwt beam="1">  1       21 0.33608535E-01 0.19327571E+03</pdfrwt>
<pdfrwt beam="2">  1       21 0.38121739E-01 0.19327571E+03</pdfrwt>
<totfact> 0.56575720E+04</totfact>
</mgrwt>
</event>
<event>
12    1  0.2769346E-001  0.2045384E+03  0.7546771E-02  0.1146041E+00
         21   -1    0    0  504  503  0.00000000000E+00  0.00000000000E+00  0.44841779137E+03  0.44841779137E+03  0.00000000000E+00 0. -1.
         21   -1    0    0  502  504 -0.00000000000E+00 -0.00000000000E+00 -0.13306949806E+03  0.13306949806E+03  0.00000000000E+00 0. -1.
          6    2    1    2  502    0 -0.63911018881E+02 -0.87234949232E+02 -0.15119992187E+01  0.20454403139E+03  0.17361284496E+03 0.  0.
         24    2    3    3    0    0 -0.31123133335E+02 -0.12672892899E+03  0.73262631780E+01  0.15224656722E+03  0.78079909238E+02 0.  0.
         -6    2    1    2    0  503  0.63911018881E+02  0.87234949232E+02  0.31686029252E+03  0.37694325804E+03  0.17317973352E+03 0.  0.
        -24    2    5    5    0    0  0.29654478853E+02  0.11060848199E+03  0.30471441240E+03  0.33347551169E+03  0.72397647560E+02 0.  0.
          4    1    4    4  501    0 -0.25769984508E+02 -0.41947107173E+02 -0.31915019827E+02  0.58670438828E+02  0.00000000000E+00 0. -1.
         -3    1    4    4    0  501 -0.53531488270E+01 -0.84781821821E+02  0.39241283005E+02  0.93576128395E+02  0.00000000000E+00 0.  1.
          5    1    3    3  502    0 -0.32787885546E+02  0.39493979762E+02 -0.88382623967E+01  0.52297464167E+02  0.47000000000E+01 0. -1.
         11    1    6    6    0    0  0.34870852824E+02  0.29576096483E+02  0.17126282455E+03  0.17726160592E+03  0.00000000000E+00 0. -1.
        -12    1    6    6    0    0 -0.52163739709E+01  0.81032385511E+02  0.13345158785E+03  0.15621390578E+03  0.00000000000E+00 0.  1.
         -5    1    5    5    0  503  0.34256540028E+02 -0.23373532762E+02  0.12145880125E+02  0.43467746347E+02  0.47000000000E+01 0.  1.
<mgrwt>
<rscale>  2 0.20444651E+03</rscale>
<asrwt>0</asrwt>
<pdfrwt beam="1">  1       21 0.68987352E-01 0.20453844E+03</pdfrwt>
<pdfrwt beam="2">  1       21 0.20472231E-01 0.20453844E+03</pdfrwt>
<totfact> 0.42021856E+04</totfact>
</mgrwt>
</event>
<event>
12    1  0.2769346E-001  0.2610263E+03  0.7546771E-02  0.1106662E+00
         21   -1    0    0  504  503  0.00000000000E+00  0.00000000000E+00  0.48394823262E+02  0.48394823262E+02  0.00000000000E+00 0. -1.
         21   -1    0    0  502  504 -0.00000000000E+00 -0.00000000000E+00 -0.15117755967E+04  0.15117755967E+04  0.00000000000E+00 0.  1.
          6    2    1    2  502    0 -0.17818599250E+02 -0.19527426788E+03 -0.94201345310E+03  0.97750912146E+03  0.17229391901E+03 0.  0.
         24    2    3    3    0    0 -0.29509044652E+02 -0.19354973209E+03 -0.61625571688E+03  0.65150324230E+03  0.79706233305E+02 0.  0.
         -6    2    1    2    0  503  0.17818599250E+02  0.19527426788E+03 -0.52136732031E+03  0.58266129848E+03  0.17094081982E+03 0.  0.
        -24    2    5    5    0    0  0.68644146116E+02  0.78976483707E+02 -0.27009009005E+03  0.30111068622E+03  0.82278094503E+02 0.  0.
          4    1    4    4  501    0  0.17200419689E+02 -0.42419893755E+02 -0.77531799104E+02  0.90036002221E+02  0.00000000000E+00 0. -1.
         -3    1    4    4    0  501 -0.46709464342E+02 -0.15112983834E+03 -0.53872391778E+03  0.56146724008E+03  0.00000000000E+00 0.  1.
          5    1    3    3  502    0  0.11690445402E+02 -0.17245357922E+01 -0.32575773622E+03  0.32600587915E+03  0.47000000000E+01 0. -1.
         13    1    6    6    0    0  0.16039158133E+02  0.55877317006E+02 -0.60974232473E+02  0.84245986107E+02  0.00000000000E+00 0. -1.
        -14    1    6    6    0    0  0.52604987984E+02  0.23099166701E+02 -0.20911585758E+03  0.21686470011E+03  0.00000000000E+00 0.  1.
         -5    1    5    5    0  503 -0.50825546866E+02  0.11629778418E+03 -0.25127723025E+03  0.28155061226E+03  0.47000000000E+01 0.  1.
<mgrwt>
<rscale>  2 0.26080324E+03</rscale>
<asrwt>0</asrwt>
<pdfrwt beam="1">  1       21 0.74453569E-02 0.26102631E+03</pdfrwt>
<pdfrwt beam="2">  1       21 0.23258088E+00 0.26102631E+03</pdfrwt>
<totfact> 0.10869440E+04</totfact>
</mgrwt>
</event>
<event>
12    1  0.2769346E-001  0.2085539E+03  0.7546771E-02  0.1145939E+00
         21   -1    0    0  504  503  0.00000000000E+00  0.00000000000E+00  0.41163021338E+02  0.41163021338E+02  0.00000000000E+00 0.  1.
         21   -1    0    0  502  504 -0.00000000000E+00 -0.00000000000E+00 -0.14453862208E+04  0.14453862208E+04  0.00000000000E+00 0.  1.
          6    2    1    2  502    0  0.60372021647E+02 -0.55301619437E+02 -0.11421496049E+04  0.11610342074E+04  0.19181152370E+03 0.  0.
         24    2    3    3    0    0  0.96113257152E+02  0.49952862580E+01 -0.44229031602E+03  0.45765787356E+03  0.67581761580E+02 0.  0.
         -6    2    1    2    0  503 -0.60372021647E+02  0.55301619437E+02 -0.26207359460E+03  0.32551503480E+03  0.17485542251E+03 0.  0.
        -24    2    5    5    0    0  0.35778939230E+02  0.18470935284E+02 -0.15132614328E+03  0.17422526466E+03  0.76377570433E+02 0.  0.
          2    1    4    4  501    0  0.88823306105E+02 -0.17092681807E+02 -0.29543070266E+03  0.30896769985E+03  0.00000000000E+00 0. -1.
         -1    1    4    4    0  501  0.72899510464E+01  0.22087968065E+02 -0.14685961336E+03  0.14869017371E+03  0.00000000000E+00 0.  1.
          5    1    3    3  502    0 -0.35741235505E+02 -0.60296905695E+02 -0.69985928887E+03  0.70337633381E+03  0.47000000000E+01 0. -1.
         13    1    6    6    0    0  0.39213505799E+02 -0.99799755487E+01 -0.32232793687E+02  0.51732503689E+02  0.00000000000E+00 0. -1.
        -14    1    6    6    0    0 -0.34345665695E+01  0.28450910833E+02 -0.11909334959E+03  0.12249276098E+03  0.00000000000E+00 0.  1.
         -5    1    5    5    0  503 -0.96150960876E+02  0.36830684153E+02 -0.11074745133E+03  0.15128977014E+03  0.47000000000E+01 0.  1.
<mgrwt>
<rscale>  2 0.20457119E+03</rscale>
<asrwt>0</asrwt>
<pdfrwt beam="1">  1       21 0.63327713E-02 0.20855386E+03</pdfrwt>
<pdfrwt beam="2">  1       21 0.22236715E+00 0.20855386E+03</pdfrwt>
<totfact> 0.17264939E+04</totfact>
</mgrwt>
</event>
<event>
12    1  0.2769346E-001  0.2006083E+03  0.7546771E-02  0.1153934E+00
         21   -1    0    0  504  503  0.00000000000E+00  0.00000000000E+00  0.16255360705E+03  0.16255360705E+03  0.00000000000E+00 0. -1.
         21   -1    0    0  502  504 -0.00000000000E+00 -0.00000000000E+00 -0.70791790647E+03  0.70791790647E+03  0.00000000000E+00 0. -1.
          6    2    1    2  502    0  0.17475864890E+02  0.47800484740E+02 -0.62826976753E+03  0.65340703505E+03  0.17212658270E+03 0.  0.
         24    2    3    3    0    0 -0.49956470832E+02  0.49912305666E+02 -0.33227424714E+03  0.34978388412E+03  0.83400857592E+02 0.  0.
         -6    2    1    2    0  503 -0.17475864890E+02 -0.47800484740E+02  0.82905468110E+02  0.21706447847E+03  0.19404478601E+03 0.  0.
        -24    2    5    5    0    0  0.48604530458E+02  0.18279031412E+01 -0.71817997607E+01  0.94723147084E+02  0.80963910075E+02 0.  0.
          4    1    4    4  501    0  0.14832729700E+02 -0.40858193209E+01 -0.14987150124E+02  0.21478325323E+02  0.00000000000E+00 0. -1.
         -3    1    4    4    0  501 -0.64789200532E+02  0.53998124987E+02 -0.31728709701E+03  0.32830555880E+03  0.00000000000E+00 0.  1.
          5    1    3    3  502    0  0.67432335723E+02 -0.21118209258E+01 -0.29599552039E+03  0.30362315093E+03  0.47000000000E+01 0. -1.
         11    1    6    6    0    0 -0.10322503263E+02 -0.26952782875E+02 -0.27888080902E+01  0.28996276121E+02  0.00000000000E+00 0. -1.
        -12    1    6    6    0    0  0.58927033721E+02  0.28780686016E+02 -0.43929916705E+01  0.65726870963E+02  0.00000000000E+00 0.  1.
         -5    1    5    5    0  503 -0.66080395349E+02 -0.49628387881E+02  0.90087267871E+02  0.12234133139E+03  0.47000000000E+01 0.  1.
<mgrwt>
<rscale>  2 0.19510737E+03</rscale>
<asrwt>0</asrwt>
<pdfrwt beam="1">  1       21 0.25008248E-01 0.20060825E+03</pdfrwt>
<pdfrwt beam="2">  1       21 0.10891045E+00 0.20060825E+03</pdfrwt>
<totfact> 0.10069785E+04</totfact>
</mgrwt>
</event>
<event>
12    1  0.2769346E-001  0.2222267E+03  0.7546771E-02  0.1133095E+00
         21   -1    0    0  504  503  0.00000000000E+00  0.00000000000E+00  0.56666724603E+03  0.56666724603E+03  0.00000000000E+00 0. -1.
         21   -1    0    0  502  504 -0.00000000000E+00 -0.00000000000E+00 -0.85566651121E+02  0.85566651121E+02  0.00000000000E+00 0. -1.
          6    2    1    2  502    0 -0.10585090649E+03  0.75539736956E+02  0.25469326606E+03  0.33498795527E+03  0.17446376168E+03 0.  0.
         24    2    3    3    0    0 -0.82704064316E+02 -0.20895148093E+02  0.14875803390E+03  0.18979902054E+03  0.81351988787E+02 0.  0.
         -6    2    1    2    0  503  0.10585090649E+03 -0.75539736956E+02  0.22640732885E+03  0.31724594188E+03  0.18020555711E+03 0.  0.
        -24    2    5    5    0    0  0.11784314513E+03 -0.53947121891E+02  0.24346244747E+03  0.28686466666E+03  0.78867451066E+02 0.  0.
          2    1    4    4  501    0 -0.76965582674E+02  0.38197237396E+01  0.14492498741E+03  0.16413879243E+03  0.00000000000E+00 0. -1.
         -1    1    4    4    0  501 -0.57384816417E+01 -0.24714871833E+02  0.38330464975E+01  0.25660228111E+02  0.00000000000E+00 0.  1.
          5    1    3    3  502    0 -0.23146842176E+02  0.96434885050E+02  0.10593523215E+03  0.14518893473E+03  0.47000000000E+01 0. -1.
         13    1    6    6    0    0  0.90338804823E+02  0.68122844336E+00  0.13767708658E+03  0.16467101717E+03  0.00000000000E+00 0. -1.
        -14    1    6    6    0    0  0.27504340302E+02 -0.54628350335E+02  0.10578536089E+03  0.12219364949E+03  0.00000000000E+00 0.  1.
         -5    1    5    5    0  503 -0.11992238633E+02 -0.21592615065E+02 -0.17055118616E+02  0.30381275217E+02  0.47000000000E+01 0.  1.
<mgrwt>
<rscale>  2 0.22106002E+03</rscale>
<asrwt>0</asrwt>
<pdfrwt beam="1">  1       21 0.87179574E-01 0.22222671E+03</pdfrwt>
<pdfrwt beam="2">  1       21 0.13164101E-01 0.22222671E+03</pdfrwt>
<totfact> 0.55403015E+04</totfact>
</mgrwt>
</event>
<event>
12    1  0.2769346E-001  0.2860009E+03  0.7546771E-02  0.1092577E+00
         21   -1    0    0  504  503  0.00000000000E+00  0.00000000000E+00  0.28124581829E+03  0.28124581829E+03  0.00000000000E+00 0. -1.
         21   -1    0    0  502  504 -0.00000000000E+00 -0.00000000000E+00 -0.30023690791E+03  0.30023690791E+03  0.00000000000E+00 0. -1.
          6    2    1    2  502    0 -0.98511171586E+02  0.20505382453E+03 -0.63427501173E+02  0.29294979489E+03  0.17333497207E+03 0.  0.
         24    2    3    3    0    0 -0.89309880877E+02  0.52067068279E+02 -0.28427804384E+02  0.13567080674E+03  0.83133587185E+02 0.  0.
         -6    2    1    2    0  503  0.98511171586E+02 -0.20505382453E+03  0.44436411554E+02  0.28853293131E+03  0.17182879821E+03 0.  0.
        -24    2    5    5    0    0  0.70557665601E+02 -0.22374790429E+03  0.24343614055E+02  0.24907817714E+03  0.80036353839E+02 0.  0.
          4    1    4    4  501    0  0.13981010849E+02  0.82037344050E+01  0.74725281838E+01  0.17849610640E+02  0.00000000000E+00 0. -1.
         -3    1    4    4    0  501 -0.10329089173E+03  0.43863333874E+02 -0.35900332568E+02  0.11782119610E+03  0.00000000000E+00 0.  1.
          5    1    3    3  502    0 -0.92012907092E+01  0.15298675625E+03 -0.34999696789E+02  0.15727898815E+03  0.47000000000E+01 0. -1.
         13    1    6    6    0    0  0.52874115606E+02 -0.97551685544E+02  0.45460711515E+02  0.11991113270E+03  0.00000000000E+00 0. -1.
        -14    1    6    6    0    0  0.17683549995E+02 -0.12619621874E+03 -0.21117097460E+02  0.12916704445E+03  0.00000000000E+00 0.  1.
         -5    1    5    5    0  503  0.27953505986E+02  0.18694079758E+02  0.20092797498E+02  0.39454754164E+02  0.47000000000E+01 0.  1.
<mgrwt>
<rscale>  2 0.28577308E+03</rscale>
<asrwt>0</asrwt>
<pdfrwt beam="1">  1       21 0.43268587E-01 0.28600093E+03</pdfrwt>
<pdfrwt beam="2">  1       21 0.46190294E-01 0.28600093E+03</pdfrwt>
<totfact> 0.22017047E+04</totfact>
</mgrwt>
</event>
<event>
12    1  0.2769346E-001  0.2125436E+03  0.7546771E-02  0.1140140E+00
         21   -1    0    0  504  503  0.00000000000E+00  0.00000000000E+00  0.21481560265E+03  0.21481560265E+03  0.00000000000E+00 0.  1.
         21   -1    0    0  502  504 -0.00000000000E+00 -0.00000000000E+00 -0.37697033530E+03  0.37697033530E+03  0.00000000000E+00 0.  1.
          6    2    1    2  502    0 -0.11059719723E+02 -0.12084821229E+03 -0.27920775334E+03  0.34914174477E+03  0.17092799828E+03 0.  0.
         24    2    3    3    0    0 -0.45461228684E+01 -0.15295395454E+03 -0.22327193769E+03  0.28414858281E+03  0.86455072189E+02 0.  0.
         -6    2    1    2    0  503  0.11059719723E+02  0.12084821229E+03  0.11705302069E+03  0.24264419319E+03  0.17449408878E+03 0.  0.
        -24    2    5    5    0    0  0.19157475596E+01  0.12668297536E+03  0.28792009530E+02  0.15359503385E+03  0.81915860958E+02 0.  0.
          2    1    4    4  501    0 -0.42604652003E+02 -0.91514777669E+02 -0.10585242881E+03  0.14626977674E+03  0.00000000000E+00 0. -1.
         -1    1    4    4    0  501  0.38058529134E+02 -0.61439176869E+02 -0.11741950889E+03  0.13787880606E+03  0.00000000000E+00 0.  1.
          5    1    3    3  502    0 -0.65135968542E+01  0.32105742247E+02 -0.55935815651E+02  0.64993161961E+02  0.47000000000E+01 0. -1.
         13    1    6    6    0    0  0.27552276235E+02  0.29797170746E+02 -0.16253470630E+02  0.43716983173E+02  0.00000000000E+00 0. -1.
        -14    1    6    6    0    0 -0.25636528676E+02  0.96885804615E+02  0.45045480160E+02  0.10987805068E+03  0.00000000000E+00 0.  1.
         -5    1    5    5    0  503  0.91439721630E+01 -0.58347630701E+01  0.88261011161E+02  0.89049159334E+02  0.47000000000E+01 0.  1.
<mgrwt>
<rscale>  2 0.21181039E+03</rscale>
<asrwt>0</asrwt>
<pdfrwt beam="1">  1       21 0.33048555E-01 0.21254363E+03</pdfrwt>
<pdfrwt beam="2">  1       21 0.57995436E-01 0.21254363E+03</pdfrwt>
<totfact> 0.24288871E+04</totfact>
</mgrwt>
</event>
<event>
12    1  0.2769346E-001  0.2428823E+03  0.7546771E-02  0.1117936E+00
         21   -1    0    0  504  503  0.00000000000E+00  0.00000000000E+00  0.64291621442E+03  0.64291621442E+03  0.00000000000E+00 0.  1.
         21   -1    0    0  502  504 -0.00000000000E+00 -0.00000000000E+00 -0.95085138727E+02  0.95085138727E+02  0.00000000000E+00 0.  1.
          6    2    1    2  502    0  0.10406748796E+03 -0.13460781012E+03  0.20387837475E+03  0.31710916279E+03  0.17332779592E+03 0.  0.
         24    2    3    3    0    0  0.71989032264E+02 -0.55625486109E+02  0.32722273939E+02  0.12584041032E+03  0.80550891908E+02 0.  0.
         -6    2    1    2    0  503 -0.10406748796E+03  0.13460781012E+03  0.34395270094E+03  0.42089219035E+03  0.17290885119E+03 0.  0.
        -24    2    5    5    0    0 -0.11032281042E+03  0.15054257612E+03  0.23836192860E+03  0.31381956533E+03  0.82656644337E+02 0.  0.
          4    1    4    4  501    0 -0.16161459091E+02 -0.14629042944E+02 -0.35313068917E+01  0.22083292005E+02  0.00000000000E+00 0. -1.
         -3    1    4    4    0  501  0.88150491356E+02 -0.40996443165E+02  0.36253580831E+02  0.10375711832E+03  0.00000000000E+00 0.  1.
          5    1    3    3  502    0  0.32078455694E+02 -0.78982324012E+02  0.17115610081E+03  0.19126875247E+03  0.47000000000E+01 0. -1.
         13    1    6    6    0    0 -0.74037855539E+01  0.77397629321E+02  0.85898095347E+02  0.11586065704E+03  0.00000000000E+00 0. -1.
        -14    1    6    6    0    0 -0.10291902486E+03  0.73144946801E+02  0.15246383326E+03  0.19795890829E+03  0.00000000000E+00 0.  1.
         -5    1    5    5    0  503  0.62553224568E+01 -0.15934766001E+02  0.10559077234E+03  0.10707262502E+03  0.47000000000E+01 0.  1.
<mgrwt>
<rscale>  2 0.24280760E+03</rscale>
<asrwt>0</asrwt>
<pdfrwt beam="1">  1       21 0.98910184E-01 0.24288234E+03</pdfrwt>
<pdfrwt beam="2">  1       21 0.14628483E-01 0.24288234E+03</pdfrwt>
<totfact> 0.33708427E+04</totfact>
</mgrwt>
</event>
<event>
12    1  0.2769346E-001  0.1776099E+03  0.7546771E-02  0.1170565E+00
         21   -1    0    0  504  503  0.00000000000E+00  0.00000000000E+00  0.54881467943E+02  0.54881467943E+02  0.00000000000E+00 0. -1.
         21   -1    0    0  502  504 -0.00000000000E+00 -0.00000000000E+00 -0.67248719927E+03  0.67248719927E+03  0.00000000000E+00 0. -1.
          6    2    1    2  502    0 -0.22942658522E+02  0.21480909267E+02 -0.45260744653E+03  0.48620858182E+03  0.17480700597E+03 0.  0.
         24    2    3    3    0    0 -0.57993899732E+02  0.49803241717E+02 -0.40851132506E+03  0.42298436214E+03  0.78680446215E+02 0.  0.
         -6    2    1    2    0  503  0.22942658522E+02 -0.21480909267E+02 -0.16499828479E+03  0.24116008539E+03  0.17304900392E+03 0.  0.
        -24    2    5    5    0    0  0.62097235990E+02 -0.53321707314E+02 -0.82249781231E+02  0.14412234944E+03  0.85480722426E+02 0.  0.
          2    1    4    4  501    0 -0.45309639803E+02  0.57832970053E+02 -0.39783751847E+03  0.40456434221E+03  0.00000000000E+00 0. -1.
         -1    1    4    4    0  501 -0.12684259929E+02 -0.80297283357E+01 -0.10673806598E+02  0.18420019935E+02  0.00000000000E+00 0.  1.
          5    1    3    3  502    0  0.35051241210E+02 -0.28322332450E+02 -0.44096121468E+02  0.63224219681E+02  0.47000000000E+01 0. -1.
         13    1    6    6    0    0 -0.17382655344E+02 -0.28651356620E+02 -0.13319817461E+02  0.36062092011E+02  0.00000000000E+00 0. -1.
        -14    1    6    6    0    0  0.79479891335E+02 -0.24670350694E+02 -0.68929963769E+02  0.10806025743E+03  0.00000000000E+00 0.  1.
         -5    1    5    5    0  503 -0.39154577468E+02  0.31840798048E+02 -0.82748503560E+02  0.97037735950E+02  0.47000000000E+01 0.  1.
<mgrwt>
<rscale>  2 0.17717584E+03</rscale>
<asrwt>0</asrwt>
<pdfrwt beam="1">  1       21 0.84433024E-02 0.17760992E+03</pdfrwt>
<pdfrwt beam="2">  1       21 0.10345957E+00 0.17760992E+03</pdfrwt>
<totfact> 0.83233849E+04</totfact>
</mgrwt>
</event>
<event>
12    1  0.2769346E-001  0.1747757E+03  0.7546771E-02  0.1173090E+00
         21   -1    0    0  504  503  0.00000000000E+00  0.00000000000E+00  0.10685622961E+04  0.10685622961E+04  0.00000000000E+00 0. -1.
         21   -1    0    0  502  504 -0.00000000000E+00 -0.00000000000E+00 -0.28932648764E+02  0.28932648764E+02  0.00000000000E+00 0. -1.
          6    2    1    2  502    0 -0.27419259425E+02  0.42309192108E+01  0.58767103018E+03  0.61310992810E+03  0.17255963535E+03 0.  0.
         24    2    3    3    0    0 -0.66467049960E+01  0.21907139444E+02  0.11794984467E+03  0.14257403160E+03  0.76753418046E+02 0.  0.
         -6    2    1    2    0  503  0.27419259425E+02 -0.42309192108E+01  0.45195861717E+03  0.48438501679E+03  0.17202481328E+03 0.  0.
        -24    2    5    5    0    0  0.10395586679E+02 -0.61695202478E+02  0.21111086656E+03  0.23614787560E+03  0.85344331635E+02 0.  0.
          4    1    4    4  501    0  0.11523618247E+02 -0.12059389467E+02 -0.18038277614E+01  0.16777259801E+02  0.00000000000E+00 0. -1.
         -3    1    4    4    0  501 -0.18170323243E+02  0.33966528912E+02  0.11975367243E+03  0.12579677180E+03  0.00000000000E+00 0.  1.
          5    1    3    3  502    0 -0.20772554429E+02 -0.17676220233E+02  0.46972118551E+03  0.47053589650E+03  0.47000000000E+01 0. -1.
         13    1    6    6    0    0 -0.17067721362E+02  0.26127980416E+01  0.12030546856E+03  0.12153822276E+03  0.00000000000E+00 0. -1.
        -14    1    6    6    0    0  0.27463308040E+02 -0.64308000520E+02  0.90805397993E+02  0.11460965284E+03  0.00000000000E+00 0.  1.
         -5    1    5    5    0  503  0.17023672747E+02  0.57464283267E+02  0.24084775062E+03  0.24823714118E+03  0.47000000000E+01 0.  1.
<mgrwt>
<rscale>  2 0.17464354E+03</rscale>
<asrwt>0</asrwt>
<pdfrwt beam="1">  1       21 0.16439417E+00 0.17477570E+03</pdfrwt>
<pdfrwt beam="2">  1       21 0.44511776E-02 0.17477570E+03</pdfrwt>
<totfact> 0.77318420E+04</totfact>
</mgrwt>
</event>
<event>
12    1  0.2769346E-001  0.3230613E+03  0.7546771E-02  0.1074369E+00
         21   -1    0    0  504  503  0.00000000000E+00  0.00000000000E+00  0.16363100025E+04  0.16363100025E+04  0.00000000000E+00 0.  1.
         21   -1    0    0  502  504 -0.00000000000E+00 -0.00000000000E+00 -0.93195265165E+02  0.93195265165E+02  0.00000000000E+00 0. -1.
          6    2    1    2  502    0 -0.10930474586E+03  0.25015094332E+03  0.28490005881E+03  0.43073963895E+03  0.17275870787E+03 0.  0.
         24    2    3    3    0    0 -0.13109588396E+03  0.23235258516E+03  0.28948228522E+03  0.40184808220E+03  0.80672381204E+02 0.  0.
         -6    2    1    2    0  503  0.10930474586E+03 -0.25015094332E+03  0.12582146786E+04  0.12987656288E+04  0.17077751361E+03 0.  0.
        -24    2    5    5    0    0  0.33314420878E+01 -0.15775473219E+03  0.80275922975E+03  0.82208003341E+03  0.80594952430E+02 0.  0.
          4    1    4    4  501    0 -0.79462212245E+01  0.62535870232E+02  0.35176139661E+02  0.72188907035E+02  0.00000000000E+00 0. -1.
         -3    1    4    4    0  501 -0.12314966273E+03  0.16981671492E+03  0.25430614556E+03  0.32965917516E+03  0.00000000000E+00 0.  1.
          5    1    3    3  502    0  0.21791138097E+02  0.17798358167E+02 -0.45822264123E+01  0.28891556758E+02  0.47000000000E+01 0. -1.
         11    1    6    6    0    0 -0.21967452265E+02 -0.22962409785E+02  0.74101135753E+02  0.80627659906E+02  0.00000000000E+00 0. -1.
        -12    1    6    6    0    0  0.25298894352E+02 -0.13479232240E+03  0.72865809400E+03  0.74145237351E+03  0.00000000000E+00 0.  1.
         -5    1    5    5    0  503  0.10597330377E+03 -0.92396211137E+02  0.45545544882E+03  0.47668559534E+03  0.47000000000E+01 0.  1.
<mgrwt>
<rscale>  2 0.32279718E+03</rscale>
<asrwt>0</asrwt>
<pdfrwt beam="1">  1       21 0.25173998E+00 0.32306128E+03</pdfrwt>
<pdfrwt beam="2">  1       21 0.14337734E-01 0.32306128E+03</pdfrwt>
<totfact> 0.24723114E+03</totfact>
</mgrwt>
</event>
<event>
12    1  0.2769346E-001  0.1846351E+03  0.7546771E-02  0.1163506E+00
         21   -1    0    0  504  503  0.00000000000E+00  0.00000000000E+00  0.59307150186E+03  0.59307150186E+03  0.00000000000E+00 0.  1.
         21   -1    0    0  502  504 -0.00000000000E+00 -0.00000000000E+00 -0.61152825082E+02  0.61152825082E+02  0.00000000000E+00 0.  1.
          6    2    1    2  502    0  0.55714442236E+02  0.31215684806E+02  0.18382232717E+03  0.26019235246E+03  0.17271622466E+03 0.  0.
         24    2    3    3    0    0  0.80971251475E+01 -0.34008395175E+02  0.12127730510E+03  0.15793992324E+03  0.94945775274E+02 0.  0.
         -6    2    1    2    0  503 -0.55714442236E+02 -0.31215684806E+02  0.34809634960E+03  0.39403197447E+03  0.17323859343E+03 0.  0.
        -24    2    5    5    0    0 -0.72948559701E+02 -0.21253582157E+02  0.35550702849E+03  0.37227728634E+03  0.80199273695E+02 0.  0.
          2    1    4    4  501    0  0.50699710567E+02 -0.18219535114E+02  0.80659372366E+02  0.96996631188E+02  0.00000000000E+00 0. -1.
         -1    1    4    4    0  501 -0.42602585420E+02 -0.15788860061E+02  0.40617932739E+02  0.60943292054E+02  0.00000000000E+00 0.  1.
          5    1    3    3  502    0  0.47617317088E+02  0.65224079981E+02  0.62545022069E+02  0.10225242922E+03  0.47000000000E+01 0. -1.
         11    1    6    6    0    0 -0.49126394224E+02  0.24740532278E+02  0.13515133535E+03  0.14591566055E+03  0.00000000000E+00 0. -1.
        -12    1    6    6    0    0 -0.23822165477E+02 -0.45994114435E+02  0.22035569314E+03  0.22636162579E+03  0.00000000000E+00 0.  1.
         -5    1    5    5    0  503  0.17234117466E+02 -0.99621026486E+01 -0.74106788947E+01  0.21754688131E+02  0.47000000000E+01 0.  1.
<mgrwt>
<rscale>  2 0.18451249E+03</rscale>
<asrwt>0</asrwt>
<pdfrwt beam="1">  1       21 0.91241766E-01 0.18463512E+03</pdfrwt>
<pdfrwt beam="2">  1       21 0.94081273E-02 0.18463512E+03</pdfrwt>
<totfact> 0.92266860E+04</totfact>
</mgrwt>
</event>
<event>
12    1  0.2769346E-001  0.1837626E+03  0.7546771E-02  0.1164410E+00
         21   -1    0    0  504  503  0.00000000000E+00  0.00000000000E+00  0.67894421301E+03  0.67894421301E+03  0.00000000000E+00 0.  1.
         21   -1    0    0  502  504 -0.00000000000E+00 -0.00000000000E+00 -0.35347227994E+03  0.35347227994E+03  0.00000000000E+00 0.  1.
          6    2    1    2  502    0 -0.55520681173E+02  0.26223916410E+02 -0.31601035893E+03  0.36513228347E+03  0.17230437503E+03 0.  0.
         24    2    3    3    0    0 -0.80019613163E+02  0.64482255980E+02 -0.19407302218E+03  0.23492205996E+03  0.83444211833E+02 0.  0.
         -6    2    1    2    0  503  0.55520681173E+02 -0.26223916410E+02  0.64148229199E+03  0.66728420948E+03  0.17320059311E+03 0.  0.
        -24    2    5    5    0    0  0.21701585840E+02  0.44939486628E+02  0.45517432023E+03  0.46494609769E+03  0.80626891752E+02 0.  0.
          4    1    4    4  501    0 -0.63184536004E+02  0.31128032081E+01 -0.13022039934E+03  0.14477336612E+03  0.00000000000E+00 0. -1.
         -3    1    4    4    0  501 -0.16835077159E+02  0.61369452772E+02 -0.63852622844E+02  0.90148693837E+02  0.00000000000E+00 0.  1.
          5    1    3    3  502    0  0.24498931991E+02 -0.38258339570E+02 -0.12193733674E+03  0.13021022351E+03  0.47000000000E+01 0. -1.
         11    1    6    6    0    0 -0.21499072760E+02  0.25728599975E+02  0.79116318605E+02  0.85927660597E+02  0.00000000000E+00 0. -1.
        -12    1    6    6    0    0  0.43200658600E+02  0.19210886653E+02  0.37605800162E+03  0.37901843709E+03  0.00000000000E+00 0.  1.
         -5    1    5    5    0  503  0.33819095332E+02 -0.71163403038E+02  0.18630797176E+03  0.20233811179E+03  0.47000000000E+01 0.  1.
<mgrwt>
<rscale>  2 0.18355110E+03</rscale>
<asrwt>0</asrwt>
<pdfrwt beam="1">  1       21 0.10445296E+00 0.18376258E+03</pdfrwt>
<pdfrwt beam="2">  1       21 0.54380351E-01 0.18376258E+03</pdfrwt>
<totfact> 0.23827045E+03</totfact>
</mgrwt>
</event>
<event>
12    1  0.2769346E-001  0.2530963E+03  0.7546771E-02  0.1111984E+00
         21   -1    0    0  504  503  0.00000000000E+00  0.00000000000E+00  0.46180035079E+02  0.46180035079E+02  0.00000000000E+00 0.  1.
         21   -1    0    0  502  504 -0.00000000000E+00 -0.00000000000E+00 -0.19890575856E+04  0.19890575856E+04  0.00000000000E+00 0. -1.
          6    2    1    2  502    0 -0.12836134192E+03 -0.12513195335E+03 -0.15359317197E+04  0.15560063013E+04  0.17301653773E+03 0.  0.
         24    2    3    3    0    0 -0.84037092232E+02 -0.19647470884E+01 -0.62681498604E+03  0.63750201433E+03  0.80285107245E+02 0.  0.
         -6    2    1    2    0  503  0.12836134192E+03  0.12513195335E+03 -0.40694583086E+03  0.47923131939E+03  0.17867039035E+03 0.  0.
        -24    2    5    5    0    0  0.14751074620E+03  0.92038636573E+02 -0.39500347555E+03  0.43890047326E+03  0.79845781765E+02 0.  0.
          2    1    4    4  501    0 -0.83178255595E+02 -0.17579167374E+02 -0.34745447507E+03  0.35770415370E+03  0.00000000000E+00 0. -1.
         -1    1    4    4    0  501 -0.85883663734E+00  0.15614420286E+02 -0.27936051097E+03  0.27979786063E+03  0.00000000000E+00 0.  1.
          5    1    3    3  502    0 -0.44324249687E+02 -0.12316720626E+03 -0.90911673366E+03  0.91850428699E+03  0.47000000000E+01 0. -1.
         13    1    6    6    0    0  0.20346885916E+02 -0.11616411465E+02 -0.25588283782E+02  0.34694337416E+02  0.00000000000E+00 0. -1.
        -14    1    6    6    0    0  0.12716386029E+03  0.10365504804E+03 -0.36941519177E+03  0.40420613585E+03  0.00000000000E+00 0.  1.
         -5    1    5    5    0  503 -0.19149404285E+02  0.33093316772E+02 -0.11942355309E+02  0.40330846133E+02  0.47000000000E+01 0.  1.
<mgrwt>
<rscale>  2 0.25210069E+03</rscale>
<asrwt>0</asrwt>
<pdfrwt beam="1">  1       21 0.71046206E-02 0.25309632E+03</pdfrwt>
<pdfrwt beam="2">  1       21 0.30600887E+00 0.25309632E+03</pdfrwt>
<totfact> 0.43642733E+03</totfact>
</mgrwt>
</event>
<event>
12    1  0.2769346E-001  0.2220096E+03  0.7546771E-02  0.1132763E+00
         21   -1    0    0  504  503  0.00000000000E+00  0.00000000000E+00  0.15069031219E+03  0.15069031219E+03  0.00000000000E+00 0.  1.
         21   -1    0    0  502  504 -0.00000000000E+00 -0.00000000000E+00 -0.43704111666E+03  0.43704111666E+03  0.00000000000E+00 0.  1.
          6    2    1    2  502    0 -0.91559071264E+01 -0.13932390793E+03 -0.29300708906E+03  0.36761583151E+03  0.17260725183E+03 0.  0.
         24    2    3    3    0    0  0.55967010426E+01 -0.11979603999E+02 -0.18114516593E+03  0.19741186259E+03  0.77350102637E+02 0.  0.
         -6    2    1    2    0  503  0.91559071264E+01  0.13932390793E+03  0.66562845842E+01  0.22011559734E+03  0.17003407927E+03 0.  0.
        -24    2    5    5    0    0  0.57609502401E+01  0.46758785090E+02 -0.55977842635E+02  0.10820066719E+03  0.79713819273E+02 0.  0.
          2    1    4    4  501    0 -0.35254310386E+02  0.15671679280E+01 -0.87600555881E+02  0.94441409386E+02  0.00000000000E+00 0. -1.
         -1    1    4    4    0  501  0.40851011429E+02 -0.13546771927E+02 -0.93544610045E+02  0.10297045320E+03  0.00000000000E+00 0.  1.
          5    1    3    3  502    0 -0.14752608169E+02 -0.12734430393E+03 -0.11186192313E+03  0.17020396892E+03  0.47000000000E+01 0. -1.
         11    1    6    6    0    0  0.76128955437E+01  0.67793498357E+02 -0.29476449486E+02  0.74315379783E+02  0.00000000000E+00 0. -1.
        -12    1    6    6    0    0 -0.18519453036E+01 -0.21034713267E+02 -0.26501393150E+02  0.33885287405E+02  0.00000000000E+00 0.  1.
         -5    1    5    5    0  503  0.33949568863E+01  0.92565122836E+02  0.62634127219E+02  0.11191493015E+03  0.47000000000E+01 0.  1.
<mgrwt>
<rscale>  2 0.22150921E+03</rscale>
<asrwt>0</asrwt>
<pdfrwt beam="1">  1       21 0.23183125E-01 0.22200956E+03</pdfrwt>
<pdfrwt beam="2">  1       21 0.67237096E-01 0.22200956E+03</pdfrwt>
<totfact> 0.34857825E+04</totfact>
</mgrwt>
</event>
<event>
12    1  0.2769346E-001  0.1920304E+03  0.7546771E-02  0.1156981E+00
         21   -1    0    0  504  503  0.00000000000E+00  0.00000000000E+00  0.12509353310E+04  0.12509353310E+04  0.00000000000E+00 0. -1.
         21   -1    0    0  502  504 -0.00000000000E+00 -0.00000000000E+00 -0.16758773247E+03  0.16758773247E+03  0.00000000000E+00 0. -1.
          6    2    1    2  502    0  0.66688722584E+02 -0.45359044909E+02 -0.10310887280E+03  0.21662679563E+03  0.17260040632E+03 0.  0.
         24    2    3    3    0    0  0.73114396034E+01 -0.75843994905E+02 -0.10134841487E+03  0.14969262557E+03  0.79565144628E+02 0.  0.
         -6    2    1    2    0  503 -0.66688722584E+02  0.45359044909E+02  0.11864564713E+04  0.12018962678E+04  0.17427234895E+03 0.  0.
        -24    2    5    5    0    0 -0.91421976762E+02  0.19550006188E+02  0.55733190594E+03  0.57173942298E+03  0.86757903599E+02 0.  0.
          2    1    4    4  501    0 -0.19048896967E+02 -0.81031941502E+02 -0.74498263147E+02  0.11170956643E+03  0.00000000000E+00 0. -1.
         -1    1    4    4    0  501  0.26360336570E+02  0.51879465969E+01 -0.26850151725E+02  0.37983059140E+02  0.00000000000E+00 0.  1.
          5    1    3    3  502    0  0.59377282980E+02  0.30484949996E+02 -0.17604579325E+01  0.66934170067E+02  0.47000000000E+01 0. -1.
         11    1    6    6    0    0 -0.28517030056E+02 -0.23149179920E+02  0.32985391680E+03  0.33189262114E+03  0.00000000000E+00 0. -1.
        -12    1    6    6    0    0 -0.62904946705E+02  0.42699186108E+02  0.22747798914E+03  0.23984680185E+03  0.00000000000E+00 0.  1.
         -5    1    5    5    0  503  0.24733254178E+02  0.25809038721E+02  0.62912456535E+03  0.63015684482E+03  0.47000000000E+01 0.  1.
<mgrwt>
<rscale>  2 0.19165028E+03</rscale>
<asrwt>0</asrwt>
<pdfrwt beam="1">  1       21 0.19245158E+00 0.19203041E+03</pdfrwt>
<pdfrwt beam="2">  1       21 0.25782729E-01 0.19203041E+03</pdfrwt>
<totfact> 0.21475748E+03</totfact>
</mgrwt>
</event>
<event>
12    1  0.2769346E-001  0.2490062E+03  0.7546771E-02  0.1114154E+00
         21   -1    0    0  504  503  0.00000000000E+00  0.00000000000E+00  0.80347703469E+02  0.80347703469E+02  0.00000000000E+00 0.  1.
         21   -1    0    0  502  504 -0.00000000000E+00 -0.00000000000E+00 -0.12381173729E+04  0.12381173729E+04  0.00000000000E+00 0.  1.
          6    2    1    2  502    0  0.15135213750E+03 -0.92200385330E+02 -0.98435378152E+03  0.10150228928E+04  0.17294717426E+03 0.  0.
         24    2    3    3    0    0  0.31577252768E+02 -0.92521852815E+02 -0.46033842149E+03  0.47747260313E+03  0.80692058449E+02 0.  0.
         -6    2    1    2    0  503 -0.15135213750E+03  0.92200385330E+02 -0.17341588792E+03  0.30344218361E+03  0.17491628862E+03 0.  0.
        -24    2    5    5    0    0 -0.10359756149E+03 -0.21144948102E+02 -0.11842282314E+03  0.16863123704E+03  0.56859172403E+02 0.  0.
          2    1    4    4  501    0 -0.26296712929E+02 -0.19788313643E+02 -0.96885013486E+02  0.10232204213E+03  0.00000000000E+00 0. -1.
         -1    1    4    4    0  501  0.57873965697E+02 -0.72733539171E+02 -0.36345340801E+03  0.37515056100E+03  0.00000000000E+00 0.  1.
          5    1    3    3  502    0  0.11977488473E+03  0.32146748439E+00 -0.52401536002E+03  0.53755028964E+03  0.47000000000E+01 0. -1.
         13    1    6    6    0    0 -0.10561337854E+03 -0.20530635433E+02 -0.90393684468E+02  0.14052299068E+03  0.00000000000E+00 0. -1.
        -14    1    6    6    0    0  0.20158170488E+01 -0.61431266895E+00 -0.28029138676E+02  0.28108246358E+02  0.00000000000E+00 0.  1.
         -5    1    5    5    0  503 -0.47754576014E+02  0.11334533343E+03 -0.54993064781E+02  0.13481094657E+03  0.47000000000E+01 0.  1.
<mgrwt>
<rscale>  2 0.24866067E+03</rscale>
<asrwt>0</asrwt>
<pdfrwt beam="1">  1       21 0.12361186E-01 0.24900620E+03</pdfrwt>
<pdfrwt beam="2">  1       21 0.19047959E+00 0.24900620E+03</pdfrwt>
<totfact> 0.82540234E+03</totfact>
</mgrwt>
</event>
<event>
12    1  0.2769346E-001  0.2299477E+03  0.7546771E-02  0.1126738E+00
         21   -1    0    0  504  503  0.00000000000E+00  0.00000000000E+00  0.10534142105E+03  0.10534142105E+03  0.00000000000E+00 0.  1.
         21   -1    0    0  502  504 -0.00000000000E+00 -0.00000000000E+00 -0.25522047394E+04  0.25522047394E+04  0.00000000000E+00 0. -1.
          6    2    1    2  502    0 -0.33742922848E+02  0.14771701986E+03 -0.24144303550E+04  0.24253224402E+04  0.17249955651E+03 0.  0.
         24    2    3    3    0    0  0.21792972931E+02  0.19630170030E+02 -0.11627246460E+04  0.11658464584E+04  0.80056760345E+02 0.  0.
         -6    2    1    2    0  503  0.33742922848E+02 -0.14771701986E+03 -0.32432963368E+02  0.23222372026E+03  0.17296547731E+03 0.  0.
        -24    2    5    5    0    0 -0.90884806470E+00 -0.15325879191E+03 -0.60441285945E+02  0.18707936736E+03  0.88636659147E+02 0.  0.
          2    1    4    4  501    0  0.83301875456E+01  0.67646224041E+01 -0.17898268676E+02  0.20868640646E+02  0.00000000000E+00 0. -1.
         -1    1    4    4    0  501  0.13462785386E+02  0.12865547626E+02 -0.11448263773E+04  0.11449778177E+04  0.00000000000E+00 0.  1.
          5    1    3    3  502    0 -0.55535895779E+02  0.12808684983E+03 -0.12517057091E+04  0.12594759819E+04  0.47000000000E+01 0. -1.
         13    1    6    6    0    0  0.34817688456E+02 -0.26796571432E+02 -0.41917200290E+01  0.44134999566E+02  0.00000000000E+00 0. -1.
        -14    1    6    6    0    0 -0.35726536520E+02 -0.12646222048E+03 -0.56249565916E+02  0.14294436780E+03  0.00000000000E+00 0.  1.
         -5    1    5    5    0  503  0.34651770913E+02  0.55417720514E+01  0.28008322577E+02  0.45144352896E+02  0.47000000000E+01 0.  1.
<mgrwt>
<rscale>  2 0.22986012E+03</rscale>
<asrwt>0</asrwt>
<pdfrwt beam="1">  1       21 0.16206372E-01 0.22994773E+03</pdfrwt>
<pdfrwt beam="2">  1       21 0.39264689E+00 0.22994773E+03</pdfrwt>
<totfact> 0.31110197E+02</totfact>
</mgrwt>
</event>
<event>
12    1  0.2769346E-001  0.1788392E+03  0.7546771E-02  0.1169110E+00
         21   -1    0    0  504  503  0.00000000000E+00  0.00000000000E+00  0.25734591933E+02  0.25734591933E+02  0.00000000000E+00 0. -1.
         21   -1    0    0  502  504 -0.00000000000E+00 -0.00000000000E+00 -0.13181365970E+04  0.13181365970E+04  0.00000000000E+00 0. -1.
          6    2    1    2  502    0 -0.33718271516E+02 -0.26968181557E+02 -0.81337732653E+03  0.83280618548E+03  0.17354902078E+03 0.  0.
         24    2    3    3    0    0 -0.80498559929E+02 -0.44426906208E+02 -0.47266453859E+03  0.48842195775E+03  0.81795321493E+02 0.  0.
         -6    2    1    2    0  503  0.33718271516E+02  0.26968181557E+02 -0.47902467850E+03  0.51106500341E+03  0.17279638437E+03 0.  0.
        -24    2    5    5    0    0  0.84621384594E+01 -0.51458213838E+02 -0.23839907916E+03  0.25668076489E+03  0.79569708815E+02 0.  0.
          4    1    4    4  501    0 -0.44031689069E+02  0.16054323897E+02 -0.12149758531E+03  0.13022363147E+03  0.00000000000E+00 0. -1.
         -3    1    4    4    0  501 -0.36466870860E+02 -0.60481230105E+02 -0.35116695328E+03  0.35819832627E+03  0.00000000000E+00 0.  1.
          5    1    3    3  502    0  0.46780288414E+02  0.17458724652E+02 -0.34071278793E+03  0.34438422773E+03  0.47000000000E+01 0. -1.
         11    1    6    6    0    0 -0.34037977062E+02 -0.36162270039E+02 -0.11454477115E+03  0.12484709951E+03  0.00000000000E+00 0. -1.
        -12    1    6    6    0    0  0.42500115522E+02 -0.15295943799E+02 -0.12385430801E+03  0.13183366539E+03  0.00000000000E+00 0.  1.
         -5    1    5    5    0  503  0.25256133056E+02  0.78426395395E+02 -0.24062559933E+03  0.25438423852E+03  0.47000000000E+01 0.  1.
<mgrwt>
<rscale>  2 0.17865637E+03</rscale>
<asrwt>0</asrwt>
<pdfrwt beam="1">  1       21 0.39591675E-02 0.17883922E+03</pdfrwt>
<pdfrwt beam="2">  1       21 0.20279027E+00 0.17883922E+03</pdfrwt>
<totfact> 0.51844400E+04</totfact>
</mgrwt>
</event>
<event>
12    1  0.2769346E-001  0.1765405E+03  0.7546771E-02  0.1171315E+00
         21   -1    0    0  504  503  0.00000000000E+00  0.00000000000E+00  0.54310211320E+03  0.54310211320E+03  0.00000000000E+00 0. -1.
         21   -1    0    0  502  504 -0.00000000000E+00 -0.00000000000E+00 -0.67226497801E+02  0.67226497801E+02  0.00000000000E+00 0. -1.
          6    2    1    2  502    0  0.20336343133E+02 -0.27115685887E+02  0.12052722602E+03  0.21376006569E+03  0.17325624432E+03 0.  0.
         24    2    3    3    0    0  0.37146649253E+02 -0.71857867584E+02  0.96850186664E+02  0.16021437111E+03  0.98718080255E+02 0.  0.
         -6    2    1    2    0  503 -0.20336343133E+02  0.27115685887E+02  0.35534838937E+03  0.39656854531E+03  0.17275794056E+03 0.  0.
        -24    2    5    5    0    0  0.24172803964E+02 -0.28731204879E+02  0.12965984244E+03  0.15980421184E+03  0.85533062598E+02 0.  0.
          2    1    4    4  501    0  0.40401850889E+02 -0.78619645946E+02  0.30599144483E+02  0.93539648957E+02  0.00000000000E+00 0. -1.
         -1    1    4    4    0  501 -0.32552016354E+01  0.67617783618E+01  0.66251042181E+02  0.66674722154E+02  0.00000000000E+00 0.  1.
          5    1    3    3  502    0 -0.16810306120E+02  0.44742181697E+02  0.23677039360E+02  0.53545694577E+02  0.47000000000E+01 0. -1.
         11    1    6    6    0    0 -0.21224490603E+02  0.13166233745E+02  0.68341531323E+02  0.72762583901E+02  0.00000000000E+00 0. -1.
        -12    1    6    6    0    0  0.45397294567E+02 -0.41897438624E+02  0.61318311113E+02  0.87041627943E+02  0.00000000000E+00 0.  1.
         -5    1    5    5    0  503 -0.44509147097E+02  0.55846890766E+02  0.22568854694E+03  0.23676433347E+03  0.47000000000E+01 0.  1.
<mgrwt>
<rscale>  2 0.17641814E+03</rscale>
<asrwt>0</asrwt>
<pdfrwt beam="1">  1       21 0.83554169E-01 0.17654052E+03</pdfrwt>
<pdfrwt beam="2">  1       21 0.10342538E-01 0.17654052E+03</pdfrwt>
<totfact> 0.95893555E+04</totfact>
</mgrwt>
</event>
<event>
12    1  0.2769346E-001  0.1806591E+03  0.7546771E-02  0.1168711E+00
         21   -1    0    0  504  503  0.00000000000E+00  0.00000000000E+00  0.14123482212E+03  0.14123482212E+03  0.00000000000E+00 0.  1.
         21   -1    0    0  502  504 -0.00000000000E+00 -0.00000000000E+00 -0.48481293726E+03  0.48481293726E+03  0.00000000000E+00 0.  1.
          6    2    1    2  502    0  0.11895808882E+02 -0.14786328344E+02 -0.40315526244E+03  0.44178260840E+03  0.17965957162E+03 0.  0.
         24    2    3    3    0    0  0.56540196459E+02  0.15022492298E+02 -0.21071274405E+03  0.24193791867E+03  0.10349698978E+03 0.  0.
         -6    2    1    2    0  503 -0.11895808882E+02  0.14786328344E+02  0.59577147307E+02  0.18426515098E+03  0.17333223477E+03 0.  0.
        -24    2    5    5    0    0  0.60285042896E+02  0.12780716761E+02  0.24993602540E+02  0.10406409482E+03  0.80043878870E+02 0.  0.
          4    1    4    4  501    0  0.24817320376E+02 -0.41244535751E+02 -0.53468935590E+02  0.71943993447E+02  0.00000000000E+00 0. -1.
         -3    1    4    4    0  501  0.31722876083E+02  0.56267028049E+02 -0.15724380846E+03  0.16999392522E+03  0.00000000000E+00 0.  1.
          5    1    3    3  502    0 -0.44644387577E+02 -0.29808820642E+02 -0.19244251839E+03  0.19984468973E+03  0.47000000000E+01 0. -1.
         11    1    6    6    0    0  0.32469739711E+02  0.45299451945E+02  0.25448828500E+02  0.61269627186E+02  0.00000000000E+00 0. -1.
        -12    1    6    6    0    0  0.27815303185E+02 -0.32518735184E+02 -0.45522596058E+00  0.42794467632E+02  0.00000000000E+00 0.  1.
         -5    1    5    5    0  503 -0.72180851778E+02  0.20056115833E+01  0.34583544768E+02  0.80201056165E+02  0.47000000000E+01 0.  1.
<mgrwt>
<rscale>  2 0.17906536E+03</rscale>
<asrwt>0</asrwt>
<pdfrwt beam="1">  1       21 0.21728434E-01 0.18065909E+03</pdfrwt>
<pdfrwt beam="2">  1       21 0.74586606E-01 0.18065909E+03</pdfrwt>
<totfact> 0.32013331E+04</totfact>
</mgrwt>
</event>
<event>
12    1  0.2769346E-001  0.2599134E+03  0.7546771E-02  0.1107515E+00
         21   -1    0    0  504  503  0.00000000000E+00  0.00000000000E+00  0.65531521752E+03  0.65531521752E+03  0.00000000000E+00 0. -1.
         21   -1    0    0  502  504 -0.00000000000E+00 -0.00000000000E+00 -0.27157209618E+03  0.27157209618E+03  0.00000000000E+00 0.  1.
          6    2    1    2  502    0  0.24644570755E+02  0.18930497189E+03 -0.17436427541E+03  0.31122600837E+03  0.17324837804E+03 0.  0.
         24    2    3    3    0    0 -0.17877378510E+02  0.28904234914E+02 -0.84292697145E+02  0.12235702784E+03  0.81920253983E+02 0.  0.
         -6    2    1    2    0  503 -0.24644570755E+02 -0.18930497189E+03  0.55810739675E+03  0.61566130534E+03  0.17638381257E+03 0.  0.
        -24    2    5    5    0    0 -0.24331028583E+02 -0.93859207664E+02  0.46792040869E+03  0.48426200918E+03  0.78476970165E+02 0.  0.
          4    1    4    4  501    0  0.30846266460E+02  0.67140325048E+01 -0.15450501126E+02  0.35146669430E+02  0.00000000000E+00 0. -1.
         -3    1    4    4    0  501 -0.48723644970E+02  0.22190202409E+02 -0.68842196019E+02  0.87210358414E+02  0.00000000000E+00 0.  1.
          5    1    3    3  502    0  0.42521949264E+02  0.16040073698E+03 -0.90071578265E+02  0.18886898052E+03  0.47000000000E+01 0. -1.
         11    1    6    6    0    0 -0.31818233654E+02 -0.10449239455E+03  0.38007888665E+03  0.39546304579E+03  0.00000000000E+00 0. -1.
        -12    1    6    6    0    0  0.74872050702E+01  0.10633186887E+02  0.87841522042E+02  0.88798963382E+02  0.00000000000E+00 0.  1.
         -5    1    5    5    0  503 -0.31354217122E+00 -0.95445764227E+02  0.90186988056E+02  0.13139929616E+03  0.47000000000E+01 0.  1.
<mgrwt>
<rscale>  2 0.25938240E+03</rscale>
<asrwt>0</asrwt>
<pdfrwt beam="1">  1       21 0.10081773E+00 0.25991340E+03</pdfrwt>
<pdfrwt beam="2">  1       21 0.41780323E-01 0.25991340E+03</pdfrwt>
<totfact> 0.42316210E+03</totfact>
</mgrwt>
</event>
<event>
12    1  0.2769346E-001  0.2125532E+03  0.7546771E-02  0.1141408E+00
         21   -1    0    0  504  503  0.00000000000E+00  0.00000000000E+00  0.22655327032E+02  0.22655327032E+02  0.00000000000E+00 0. -1.
         21   -1    0    0  502  504 -0.00000000000E+00 -0.00000000000E+00 -0.19653405285E+04  0.19653405285E+04  0.00000000000E+00 0. -1.
          6    2    1    2  502    0 -0.12220505536E+03  0.39341110233E+01 -0.78102421529E+03  0.80704916134E+03  0.16241912189E+03 0.  0.
         24    2    3    3    0    0 -0.31401392964E+02 -0.24741925864E+02 -0.20673424278E+03  0.22489910961E+03  0.79008556438E+02 0.  0.
         -6    2    1    2    0  503  0.12220505536E+03 -0.39341110233E+01 -0.11616609862E+04  0.11809466942E+04  0.17386573827E+03 0.  0.
        -24    2    5    5    0    0  0.22434008047E+02 -0.41526237624E+02 -0.32438836376E+03  0.33689991581E+03  0.77756219034E+02 0.  0.
          4    1    4    4  501    0 -0.35980703753E+02 -0.45953441750E+02 -0.18578497172E+03  0.19473670833E+03  0.00000000000E+00 0. -1.
         -3    1    4    4    0  501  0.45793107884E+01  0.21211515886E+02 -0.20949271056E+02  0.30162401285E+02  0.00000000000E+00 0.  1.
          5    1    3    3  502    0 -0.90803662393E+02  0.28676036887E+02 -0.57428997251E+03  0.58215005173E+03  0.47000000000E+01 0. -1.
         13    1    6    6    0    0  0.38107229168E+02  0.72341254539E+01 -0.16437918050E+03  0.16889348261E+03  0.00000000000E+00 0. -1.
        -14    1    6    6    0    0 -0.15673221121E+02 -0.48760363078E+02 -0.16000918326E+03  0.16800643320E+03  0.00000000000E+00 0.  1.
         -5    1    5    5    0  503  0.99771047310E+02  0.37592126601E+02 -0.83727262241E+03  0.84404677838E+03  0.47000000000E+01 0.  1.
<mgrwt>
<rscale>  2 0.21020025E+03</rscale>
<asrwt>0</asrwt>
<pdfrwt beam="1">  1       21 0.34854336E-02 0.21255316E+03</pdfrwt>
<pdfrwt beam="2">  1       21 0.30236019E+00 0.21255316E+03</pdfrwt>
<totfact> 0.16000638E+04</totfact>
</mgrwt>
</event>
<event>
12    1  0.2769346E-001  0.1785003E+03  0.7546771E-02  0.1170122E+00
         21   -1    0    0  504  503  0.00000000000E+00  0.00000000000E+00  0.16916747389E+03  0.16916747389E+03  0.00000000000E+00 0. -1.
         21   -1    0    0  502  504 -0.00000000000E+00 -0.00000000000E+00 -0.65042832073E+03  0.65042832073E+03  0.00000000000E+00 0. -1.
          6    2    1    2  502    0 -0.10643573912E+02  0.28229680787E+02 -0.58806594047E+03  0.61455993307E+03  0.17593226100E+03 0.  0.
         24    2    3    3    0    0  0.19119615766E+02 -0.24756164421E+02 -0.15744349315E+03  0.17964485011E+03  0.80656005688E+02 0.  0.
         -6    2    1    2    0  503  0.10643573912E+02 -0.28229680787E+02  0.10680509363E+03  0.20503586156E+03  0.17240120637E+03 0.  0.
        -24    2    5    5    0    0  0.59599281156E+02  0.23556336072E+02  0.56392876143E+02  0.11761770277E+03  0.80912250257E+02 0.  0.
          4    1    4    4  501    0  0.34595516240E+02  0.13456415299E+02 -0.37294970853E+02  0.52619765369E+02  0.00000000000E+00 0. -1.
         -3    1    4    4    0  501 -0.15475900474E+02 -0.38212579720E+02 -0.12014852229E+03  0.12702508474E+03  0.00000000000E+00 0.  1.
          5    1    3    3  502    0 -0.29763189678E+02  0.52985845208E+02 -0.43062244732E+03  0.43491508296E+03  0.47000000000E+01 0. -1.
         13    1    6    6    0    0  0.56294885372E+02 -0.44868456218E+01  0.22079016072E+01  0.56516552728E+02  0.00000000000E+00 0. -1.
        -14    1    6    6    0    0  0.33043957842E+01  0.28043181694E+02  0.54184974536E+02  0.61101150042E+02  0.00000000000E+00 0.  1.
         -5    1    5    5    0  503 -0.48955707245E+02 -0.51786016859E+02  0.50412217483E+02  0.87418158786E+02  0.47000000000E+01 0.  1.
<mgrwt>
<rscale>  2 0.17762407E+03</rscale>
<asrwt>0</asrwt>
<pdfrwt beam="1">  1       21 0.26025766E-01 0.17850031E+03</pdfrwt>
<pdfrwt beam="2">  1       21 0.10006589E+00 0.17850031E+03</pdfrwt>
<totfact> 0.11609777E+04</totfact>
</mgrwt>
</event>
<event>
12    1  0.2769346E-001  0.2213054E+03  0.7546771E-02  0.1133152E+00
         21   -1    0    0  504  503  0.00000000000E+00  0.00000000000E+00  0.47355211297E+02  0.47355211297E+02  0.00000000000E+00 0. -1.
         21   -1    0    0  502  504 -0.00000000000E+00 -0.00000000000E+00 -0.11189482782E+04  0.11189482782E+04  0.00000000000E+00 0.  1.
          6    2    1    2  502    0  0.11989888506E+03 -0.62427018761E+02 -0.70040588226E+03  0.73415073263E+03  0.17359730126E+03 0.  0.
         24    2    3    3    0    0 -0.78577615821E+00 -0.31426407676E+02 -0.39653713013E+03  0.40569353014E+03  0.79732730342E+02 0.  0.
         -6    2    1    2    0  503 -0.11989888506E+03  0.62427018761E+02 -0.37118718465E+03  0.43215275688E+03  0.17522329731E+03 0.  0.
        -24    2    5    5    0    0 -0.52570481320E+01  0.42020279184E+02 -0.23465653643E+03  0.25264817839E+03  0.83510906700E+02 0.  0.
          2    1    4    4  501    0 -0.15236461156E+02 -0.55417734443E+02 -0.28004353473E+03  0.28588049319E+03  0.00000000000E+00 0. -1.
         -1    1    4    4    0  501  0.14450684998E+02  0.23991326767E+02 -0.11649359539E+03  0.11981303696E+03  0.00000000000E+00 0.  1.
          5    1    3    3  502    0  0.12068466122E+03 -0.31000611084E+02 -0.30386875214E+03  0.32845720249E+03  0.47000000000E+01 0. -1.
         13    1    6    6    0    0  0.29445123503E+02  0.15759781810E+02 -0.35292098339E+02  0.48589280979E+02  0.00000000000E+00 0. -1.
        -14    1    6    6    0    0 -0.34702171635E+02  0.26260497373E+02 -0.19936443809E+03  0.20405889741E+03  0.00000000000E+00 0.  1.
         -5    1    5    5    0  503 -0.11464183693E+03  0.20406739577E+02 -0.13653064822E+03  0.17950457849E+03  0.47000000000E+01 0.  1.
<mgrwt>
<rscale>  2 0.22098340E+03</rscale>
<asrwt>0</asrwt>
<pdfrwt beam="1">  1       21 0.72854170E-02 0.22130540E+03</pdfrwt>
<pdfrwt beam="2">  1       21 0.17214589E+00 0.22130540E+03</pdfrwt>
<totfact> 0.28565367E+04</totfact>
</mgrwt>
</event>
<event>
12    1  0.2769346E-001  0.2047137E+03  0.7546771E-02  0.1145950E+00
         21   -1    0    0  504  503  0.00000000000E+00  0.00000000000E+00  0.90190476940E+03  0.90190476940E+03  0.00000000000E+00 0. -1.
         21   -1    0    0  502  504 -0.00000000000E+00 -0.00000000000E+00 -0.79023462350E+02  0.79023462350E+02  0.00000000000E+00 0.  1.
          6    2    1    2  502    0 -0.10744440404E+03  0.22480614105E+02  0.72657194315E+03  0.75469123552E+03  0.17205346384E+03 0.  0.
         24    2    3    3    0    0 -0.12740642284E+02  0.56429363111E+00  0.52297187450E+03  0.52902731383E+03  0.78788799146E+02 0.  0.
         -6    2    1    2    0  503  0.10744440404E+03 -0.22480614105E+02  0.96309363900E+02  0.22623699624E+03  0.17279469587E+03 0.  0.
        -24    2    5    5    0    0  0.22461123866E+02 -0.47099918482E+02  0.35130435480E+00  0.95629541436E+02  0.80137265827E+02 0.  0.
          2    1    4    4  501    0 -0.28915606389E+02 -0.29377661697E+02  0.19590686892E+03  0.20019655489E+03  0.00000000000E+00 0. -1.
         -1    1    4    4    0  501  0.16174964105E+02  0.29941955328E+02  0.32706500558E+03  0.32883075894E+03  0.00000000000E+00 0.  1.
          5    1    3    3  502    0 -0.94703761759E+02  0.21916320474E+02  0.20360006866E+03  0.22566392169E+03  0.47000000000E+01 0. -1.
         13    1    6    6    0    0 -0.27446639793E+02 -0.31852775602E+02  0.82557029778E+01  0.42849433849E+02  0.00000000000E+00 0. -1.
        -14    1    6    6    0    0  0.49907763659E+02 -0.15247142880E+02 -0.79043986230E+01  0.52780107588E+02  0.00000000000E+00 0.  1.
         -5    1    5    5    0  503  0.84983280177E+02  0.24619304377E+02  0.95958059545E+02  0.13060745480E+03  0.47000000000E+01 0.  1.
<mgrwt>
<rscale>  2 0.20455717E+03</rscale>
<asrwt>0</asrwt>
<pdfrwt beam="1">  1       21 0.13875457E+00 0.20471367E+03</pdfrwt>
<pdfrwt beam="2">  1       21 0.12157456E-01 0.20471367E+03</pdfrwt>
<totfact> 0.20827991E+04</totfact>
</mgrwt>
</event>
<event>
12    1  0.2769346E-001  0.1728977E+03  0.7546771E-02  0.1174966E+00
         21   -1    0    0  504  503  0.00000000000E+00  0.00000000000E+00  0.10714005987E+03  0.10714005987E+03  0.00000000000E+00 0.  1.
         21   -1    0    0  502  504 -0.00000000000E+00 -0.00000000000E+00 -0.29114502656E+03  0.29114502656E+03  0.00000000000E+00 0.  1.
          6    2    1    2  502    0 -0.12608662980E+02 -0.79786148388E+01 -0.13386779736E+03  0.21866457834E+03  0.17225264577E+03 0.  0.
         24    2    3    3    0    0  0.25568545872E+02  0.51923478260E+02 -0.60702392731E+02  0.11658114938E+03  0.80972747118E+02 0.  0.
         -6    2    1    2    0  503  0.12608662980E+02  0.79786148388E+01 -0.50137169331E+02  0.17962050809E+03  0.17183467199E+03 0.  0.
        -24    2    5    5    0    0 -0.48224672137E+02  0.25970209782E+02 -0.61522176191E+02  0.11499775256E+03  0.80246084843E+02 0.  0.
          2    1    4    4  501    0  0.15855150243E+02  0.73476150868E+02 -0.39949267458E+02  0.85123877414E+02  0.00000000000E+00 0. -1.
         -1    1    4    4    0  501  0.97133956291E+01 -0.21552672608E+02 -0.20753125272E+02  0.31457271970E+02  0.00000000000E+00 0.  1.
          5    1    3    3  502    0 -0.38177208852E+02 -0.59902093098E+02 -0.73165404628E+02  0.10208342896E+03  0.47000000000E+01 0. -1.
         11    1    6    6    0    0  0.50910777716E+01 -0.17291784649E+02  0.57038778588E+01  0.18906589112E+02  0.00000000000E+00 0. -1.
        -12    1    6    6    0    0 -0.53315749909E+02  0.43261994430E+02 -0.67226054050E+02  0.96091163452E+02  0.00000000000E+00 0.  1.
         -5    1    5    5    0  503  0.60833335117E+02 -0.17991594943E+02  0.11385006860E+02  0.64622755522E+02  0.47000000000E+01 0.  1.
<mgrwt>
<rscale>  2 0.17279349E+03</rscale>
<asrwt>0</asrwt>
<pdfrwt beam="1">  1       21 0.16483086E-01 0.17289769E+03</pdfrwt>
<pdfrwt beam="2">  1       21 0.44791542E-01 0.17289769E+03</pdfrwt>
<totfact> 0.15896349E+05</totfact>
</mgrwt>
</event>
<event>
12    1  0.2769346E-001  0.3574574E+03  0.7546771E-02  0.1060718E+00
         21   -1    0    0  504  503  0.00000000000E+00  0.00000000000E+00  0.41939837515E+03  0.41939837515E+03  0.00000000000E+00 0.  1.
         21   -1    0    0  502  504 -0.00000000000E+00 -0.00000000000E+00 -0.51012660612E+03  0.51012660612E+03  0.00000000000E+00 0. -1.
          6    2    1    2  502    0 -0.31160888598E+03 -0.63828133576E+01 -0.34652225834E+03  0.48997252799E+03  0.15117726197E+03 0.  0.
         24    2    3    3    0    0 -0.25015340019E+03 -0.52779257666E+02 -0.28881494853E+03  0.39363130949E+03  0.78543998161E+02 0.  0.
         -6    2    1    2    0  503  0.31160888598E+03  0.63828133576E+01  0.25579402737E+03  0.43955245328E+03  0.17502838805E+03 0.  0.
        -24    2    5    5    0    0  0.10617042710E+03  0.57320316634E+02  0.12000093067E+03  0.18803417415E+03  0.79992805916E+02 0.  0.
          2    1    4    4  501    0 -0.20874951310E+03 -0.11877469852E+02 -0.23156192200E+03  0.31199095697E+03  0.00000000000E+00 0. -1.
         -1    1    4    4    0  501 -0.41403887094E+02 -0.40901787813E+02 -0.57253026524E+02  0.81640352516E+02  0.00000000000E+00 0.  1.
          5    1    3    3  502    0 -0.61455485781E+02  0.46396444308E+02 -0.57707309813E+02  0.96341218504E+02  0.47000000000E+01 0. -1.
         13    1    6    6    0    0  0.74032438649E+01 -0.63910894837E+00 -0.11479314351E+02  0.13674470298E+02  0.00000000000E+00 0. -1.
        -14    1    6    6    0    0  0.98767183234E+02  0.57959425582E+02  0.13148024502E+03  0.17435970385E+03  0.00000000000E+00 0.  1.
         -5    1    5    5    0  503  0.20543845888E+03 -0.50937503276E+02  0.13579309670E+03  0.25151827913E+03  0.47000000000E+01 0.  1.
<mgrwt>
<rscale>  2 0.35466128E+03</rscale>
<asrwt>0</asrwt>
<pdfrwt beam="1">  1       21 0.64522827E-01 0.35745737E+03</pdfrwt>
<pdfrwt beam="2">  1       21 0.78481016E-01 0.35745737E+03</pdfrwt>
<totfact> 0.28702345E+03</totfact>
</mgrwt>
</event>
<event>
12    1  0.2769346E-001  0.2101912E+03  0.7546771E-02  0.1141629E+00
         21   -1    0    0  504  503  0.00000000000E+00  0.00000000000E+00  0.33406118572E+03  0.33406118572E+03  0.00000000000E+00 0. -1.
         21   -1    0    0  502  504 -0.00000000000E+00 -0.00000000000E+00 -0.13164484147E+03  0.13164484147E+03  0.00000000000E+00 0.  1.
          6    2    1    2  502    0  0.61633778597E+02  0.10049915079E+03  0.95553227618E+02  0.22990938401E+03  0.17271104068E+03 0.  0.
         24    2    3    3    0    0  0.55626724024E+02  0.13885001921E+03  0.57787702347E+02  0.17554764460E+03  0.71441561587E+02 0.  0.
         -6    2    1    2    0  503 -0.61633778597E+02 -0.10049915079E+03  0.10686311662E+03  0.23579664318E+03  0.17401588797E+03 0.  0.
        -24    2    5    5    0    0 -0.12294341422E+02 -0.12099341235E+03  0.99993611979E+02  0.18172562589E+03  0.90746482049E+02 0.  0.
          2    1    4    4  501    0  0.37716045146E+02  0.10248010233E+03  0.73971755525E+02  0.13189576207E+03  0.00000000000E+00 0. -1.
         -1    1    4    4    0  501  0.17910678878E+02  0.36369916873E+02 -0.16184053178E+02  0.43651882531E+02  0.00000000000E+00 0.  1.
          5    1    3    3  502    0  0.60070545721E+01 -0.38350868413E+02  0.37765525271E+02  0.54361739410E+02  0.47000000000E+01 0. -1.
         11    1    6    6    0    0  0.16233923593E+02 -0.59066948586E+01  0.50263301670E+02  0.53149118658E+02  0.00000000000E+00 0. -1.
        -12    1    6    6    0    0 -0.28528265015E+02 -0.11508671749E+03  0.49730310309E+02  0.12857650723E+03  0.00000000000E+00 0.  1.
         -5    1    5    5    0  503 -0.49339437175E+02  0.20494261555E+02  0.68695046445E+01  0.54071017296E+02  0.47000000000E+01 0.  1.
<mgrwt>
<rscale>  2 0.20992091E+03</rscale>
<asrwt>0</asrwt>
<pdfrwt beam="1">  1       21 0.51394028E-01 0.21019118E+03</pdfrwt>
<pdfrwt beam="2">  1       21 0.20253053E-01 0.21019118E+03</pdfrwt>
<totfact> 0.80510029E+04</totfact>
</mgrwt>
</event>
<event>
12    1  0.2769346E-001  0.2352424E+03  0.7546771E-02  0.1123644E+00
         21   -1    0    0  504  503  0.00000000000E+00  0.00000000000E+00  0.24037184290E+03  0.24037184290E+03  0.00000000000E+00 0. -1.
         21   -1    0    0  502  504 -0.00000000000E+00 -0.00000000000E+00 -0.96841243182E+03  0.96841243182E+03  0.00000000000E+00 0.  1.
          6    2    1    2  502    0 -0.98530750834E+02 -0.11451628864E+03 -0.89231350883E+03  0.92186165138E+03  0.17545146631E+03 0.  0.
         24    2    3    3    0    0 -0.39453950613E+02  0.62102845999E+01 -0.27541881439E+03  0.29047735649E+03  0.83224932922E+02 0.  0.
         -6    2    1    2    0  503  0.98530750834E+02  0.11451628864E+03  0.16427291991E+03  0.28692262334E+03  0.18032390397E+03 0.  0.
        -24    2    5    5    0    0  0.68057838701E+02  0.11631396845E+03  0.18986341008E+03  0.24681285877E+03  0.81900330290E+02 0.  0.
          4    1    4    4  501    0  0.12995691293E+02  0.31506065916E+02 -0.10206519503E+03  0.10760494514E+03  0.00000000000E+00 0. -1.
         -3    1    4    4    0  501 -0.52449641907E+02 -0.25295781316E+02 -0.17335361936E+03  0.18287241135E+03  0.00000000000E+00 0.  1.
          5    1    3    3  502    0 -0.59076800221E+02 -0.12072657324E+03 -0.61689469444E+03  0.63138429489E+03  0.47000000000E+01 0. -1.
         13    1    6    6    0    0  0.72861477226E+02  0.56132987686E+02  0.82091646650E+02  0.12328319277E+03  0.00000000000E+00 0. -1.
        -14    1    6    6    0    0 -0.48036385253E+01  0.60180980761E+02  0.10777176343E+03  0.12352966600E+03  0.00000000000E+00 0.  1.
         -5    1    5    5    0  503  0.30472912134E+02 -0.17976798053E+01 -0.25590490171E+02  0.40109764569E+02  0.47000000000E+01 0.  1.
<mgrwt>
<rscale>  2 0.23430843E+03</rscale>
<asrwt>0</asrwt>
<pdfrwt beam="1">  1       21 0.36980283E-01 0.23524243E+03</pdfrwt>
<pdfrwt beam="2">  1       21 0.14898653E+00 0.23524243E+03</pdfrwt>
<totfact> 0.20666832E+03</totfact>
</mgrwt>
</event>
<event>
12    1  0.2769346E-001  0.2274960E+03  0.7546771E-02  0.1128449E+00
         21   -1    0    0  504  503  0.00000000000E+00  0.00000000000E+00  0.76092170261E+03  0.76092170261E+03  0.00000000000E+00 0.  1.
         21   -1    0    0  502  504 -0.00000000000E+00 -0.00000000000E+00 -0.13503879656E+03  0.13503879656E+03  0.00000000000E+00 0.  1.
          6    2    1    2  502    0 -0.13023712646E+03 -0.68109486454E+02 -0.28652324906E+01  0.22732110098E+03  0.17339568086E+03 0.  0.
         24    2    3    3    0    0 -0.13300628977E+03 -0.10188533842E+03  0.19350516306E+02  0.18652764641E+03  0.79666963621E+02 0.  0.
         -6    2    1    2    0  503  0.13023712646E+03  0.68109486454E+02  0.62874813853E+03  0.66863939819E+03  0.17364852963E+03 0.  0.
        -24    2    5    5    0    0  0.61883158881E+02 -0.27912669515E+02  0.35299374597E+03  0.36871425029E+03  0.82079054591E+02 0.  0.
          2    1    4    4  501    0 -0.41934655063E+02  0.73189981564E+01  0.11600268854E+02  0.44120848436E+02  0.00000000000E+00 0. -1.
         -1    1    4    4    0  501 -0.91071634707E+02 -0.10920433657E+03  0.77502474524E+01  0.14240679798E+03  0.00000000000E+00 0.  1.
          5    1    3    3  502    0  0.27691633082E+01  0.33775851962E+02 -0.22215748797E+02  0.40793454571E+02  0.47000000000E+01 0. -1.
         11    1    6    6    0    0  0.19516383882E+02 -0.29475234085E+01  0.98393123475E+01  0.22054233189E+02  0.00000000000E+00 0. -1.
        -12    1    6    6    0    0  0.42366774999E+02 -0.24965146107E+02  0.34315443362E+03  0.34666001710E+03  0.00000000000E+00 0.  1.
         -5    1    5    5    0  503  0.68353967581E+02  0.96022155969E+02  0.27575439257E+03  0.29992514790E+03  0.47000000000E+01 0.  1.
<mgrwt>
<rscale>  2 0.22744773E+03</rscale>
<asrwt>0</asrwt>
<pdfrwt beam="1">  1       21 0.11706487E+00 0.22749598E+03</pdfrwt>
<pdfrwt beam="2">  1       21 0.20775200E-01 0.22749598E+03</pdfrwt>
<totfact> 0.11790406E+04</totfact>
</mgrwt>
</event>
<event>
12    1  0.2769346E-001  0.1749780E+03  0.7546771E-02  0.1172847E+00
         21   -1    0    0  504  503  0.00000000000E+00  0.00000000000E+00  0.17740770589E+03  0.17740770589E+03  0.00000000000E+00 0.  1.
         21   -1    0    0  502  504 -0.00000000000E+00 -0.00000000000E+00 -0.17337703270E+03  0.17337703270E+03  0.00000000000E+00 0.  1.
          6    2    1    2  502    0  0.37778733463E+02 -0.55397882681E+01 -0.12341478959E+02  0.17541273355E+03  0.17076121641E+03 0.  0.
         24    2    3    3    0    0  0.30725650314E+02 -0.49546504989E+02  0.38937218304E+02  0.10731037021E+03  0.81243380299E+02 0.  0.
         -6    2    1    2    0  503 -0.37778733463E+02  0.55397882681E+01  0.16372152156E+02  0.17537200504E+03  0.17038007757E+03 0.  0.
        -24    2    5    5    0    0 -0.34224385531E+02 -0.61104454595E+02  0.38854218147E+00  0.10658498386E+03  0.80343916275E+02 0.  0.
          2    1    4    4  501    0  0.20291521274E+02 -0.27181059947E+02 -0.22768063787E+02  0.40852669241E+02  0.00000000000E+00 0. -1.
         -1    1    4    4    0  501  0.10434129040E+02 -0.22365445041E+02  0.61705282091E+02  0.66457700973E+02  0.00000000000E+00 0.  1.
          5    1    3    3  502    0  0.70530831490E+01  0.44006716721E+02 -0.51278697262E+02  0.68102363331E+02  0.47000000000E+01 0. -1.
         13    1    6    6    0    0  0.11756168211E+02 -0.57201343399E+02  0.10527731735E+02  0.59338303929E+02  0.00000000000E+00 0. -1.
        -14    1    6    6    0    0 -0.45980553742E+02 -0.39031111962E+01 -0.10139189553E+02  0.47246679928E+02  0.00000000000E+00 0.  1.
         -5    1    5    5    0  503 -0.35543479321E+01  0.66644242863E+02  0.15983609975E+02  0.68787021188E+02  0.47000000000E+01 0.  1.
<mgrwt>
<rscale>  2 0.17488498E+03</rscale>
<asrwt>0</asrwt>
<pdfrwt beam="1">  1       21 0.27293493E-01 0.17497804E+03</pdfrwt>
<pdfrwt beam="2">  1       21 0.26673390E-01 0.17497804E+03</pdfrwt>
<totfact> 0.17217195E+05</totfact>
</mgrwt>
</event>
<event>
12    1  0.2769346E-001  0.1787772E+03  0.7546771E-02  0.1168995E+00
         21   -1    0    0  504  503  0.00000000000E+00  0.00000000000E+00  0.80755190588E+03  0.80755190588E+03  0.00000000000E+00 0. -1.
         21   -1    0    0  502  504 -0.00000000000E+00 -0.00000000000E+00 -0.13278644726E+03  0.13278644726E+03  0.00000000000E+00 0. -1.
          6    2    1    2  502    0  0.18701509546E+02 -0.39583464277E+02 -0.56537280618E+02  0.18750398959E+03  0.17333402698E+03 0.  0.
         24    2    3    3    0    0  0.20036942701E+01  0.40057415333E+02 -0.57107704647E+02  0.10599385449E+03  0.79779671260E+02 0.  0.
         -6    2    1    2    0  503 -0.18701509546E+02  0.39583464277E+02  0.73130273923E+03  0.75283436354E+03  0.17331845089E+03 0.  0.
        -24    2    5    5    0    0 -0.72273781683E+02  0.45175263334E+02  0.59086986827E+03  0.60235267760E+03  0.80232431367E+02 0.  0.
          2    1    4    4  501    0  0.48959209584E+00  0.31337585615E+02 -0.77590192289E+02  0.83681072603E+02  0.00000000000E+00 0. -1.
         -1    1    4    4    0  501  0.15141021743E+01  0.87198297174E+01  0.20482487641E+02  0.22312781890E+02  0.00000000000E+00 0.  1.
          5    1    3    3  502    0  0.16697815276E+02 -0.79640879610E+02  0.57042402924E+00  0.81510135098E+02  0.47000000000E+01 0. -1.
         13    1    6    6    0    0  0.13355962415E+02  0.26037169603E+02  0.14039743340E+03  0.14341462701E+03  0.00000000000E+00 0. -1.
        -14    1    6    6    0    0 -0.85629744098E+02  0.19138093731E+02  0.45047243487E+03  0.45893805059E+03  0.00000000000E+00 0.  1.
         -5    1    5    5    0  503  0.53572272137E+02 -0.55917990569E+01  0.14043287096E+03  0.15048168594E+03  0.47000000000E+01 0.  1.
<mgrwt>
<rscale>  2 0.17877341E+03</rscale>
<asrwt>0</asrwt>
<pdfrwt beam="1">  1       21 0.12423875E+00 0.17877719E+03</pdfrwt>
<pdfrwt beam="2">  1       21 0.20428685E-01 0.17877719E+03</pdfrwt>
<totfact> 0.10854734E+04</totfact>
</mgrwt>
</event>
<event>
12    1  0.2769346E-001  0.2751046E+03  0.7546771E-02  0.1098462E+00
         21   -1    0    0  504  503  0.00000000000E+00  0.00000000000E+00  0.13533199929E+03  0.13533199929E+03  0.00000000000E+00 0. -1.
         21   -1    0    0  502  504 -0.00000000000E+00 -0.00000000000E+00 -0.92156024368E+03  0.92156024368E+03  0.00000000000E+00 0.  1.
          6    2    1    2  502    0 -0.18781294232E+03 -0.10224100260E+03 -0.72470915596E+03  0.77499312097E+03  0.17229060597E+03 0.  0.
         24    2    3    3    0    0 -0.14330037219E+03 -0.26299589154E+02 -0.59671444379E+03  0.61958011147E+03  0.81146300304E+02 0.  0.
         -6    2    1    2    0  503  0.18781294232E+03  0.10224100260E+03 -0.61519088438E+02  0.28189912200E+03  0.17307684082E+03 0.  0.
        -24    2    5    5    0    0  0.30342789283E+02  0.77152645970E-01 -0.27964738209E+02  0.91157711306E+02  0.81283521906E+02 0.  0.
          2    1    4    4  501    0 -0.40763634541E+02 -0.59860422472E+00 -0.59903329812E+02  0.72459927895E+02  0.00000000000E+00 0. -1.
         -1    1    4    4    0  501 -0.10253673765E+03 -0.25700984929E+02 -0.53681111397E+03  0.54712018358E+03  0.00000000000E+00 0.  1.
          5    1    3    3  502    0 -0.44512570132E+02 -0.75941413449E+02 -0.12799471217E+03  0.15541300949E+03  0.47000000000E+01 0. -1.
         11    1    6    6    0    0  0.40898816801E+02  0.24825959340E+02  0.55658918698E+01  0.48166592418E+02  0.00000000000E+00 0. -1.
        -12    1    6    6    0    0 -0.10556027518E+02 -0.24748806694E+02 -0.33530630079E+02  0.42991118888E+02  0.00000000000E+00 0.  1.
         -5    1    5    5    0  503  0.15747015304E+03  0.10216384996E+03 -0.33554350229E+02  0.19074141070E+03  0.47000000000E+01 0.  1.
<mgrwt>
<rscale>  2 0.27498098E+03</rscale>
<asrwt>0</asrwt>
<pdfrwt beam="1">  1       21 0.20820308E-01 0.27510456E+03</pdfrwt>
<pdfrwt beam="2">  1       21 0.14177850E+00 0.27510456E+03</pdfrwt>
<totfact> 0.70134322E+03</totfact>
</mgrwt>
</event>
<event>
12    1  0.2769346E-001  0.1827590E+03  0.7546771E-02  0.1165988E+00
         21   -1    0    0  504  503  0.00000000000E+00  0.00000000000E+00  0.12851931687E+03  0.12851931687E+03  0.00000000000E+00 0. -1.
         21   -1    0    0  502  504 -0.00000000000E+00 -0.00000000000E+00 -0.43744660712E+03  0.43744660712E+03  0.00000000000E+00 0. -1.
          6    2    1    2  502    0 -0.88774724809E+01 -0.44944934177E+02 -0.33635488386E+03  0.38116031692E+03  0.17334855831E+03 0.  0.
         24    2    3    3    0    0  0.58255886354E+02 -0.15770925399E+02 -0.16854384686E+03  0.19801926528E+03  0.84629372696E+02 0.  0.
         -6    2    1    2    0  503  0.88774724809E+01  0.44944934177E+02  0.27427593609E+02  0.18480560707E+03  0.17692366401E+03 0.  0.
        -24    2    5    5    0    0  0.21479476487E+02  0.21279522750E+02 -0.52161890108E+02  0.10068998354E+03  0.80643809479E+02 0.  0.
          4    1    4    4  501    0  0.59013274114E+02 -0.29361228091E+02 -0.17181136049E+03  0.18402117224E+03  0.00000000000E+00 0. -1.
         -3    1    4    4    0  501 -0.75738775962E+00  0.13590302692E+02  0.32675136300E+01  0.13998093042E+02  0.00000000000E+00 0.  1.
          5    1    3    3  502    0 -0.67133358835E+02 -0.29174008778E+02 -0.16781103700E+03  0.18314105164E+03  0.47000000000E+01 0. -1.
         11    1    6    6    0    0  0.29955653597E+02  0.31539585544E+02  0.33291841029E+01  0.43625337884E+02  0.00000000000E+00 0. -1.
        -12    1    6    6    0    0 -0.84761771098E+01 -0.10260062793E+02 -0.55491074211E+02  0.57064645658E+02  0.00000000000E+00 0.  1.
         -5    1    5    5    0  503 -0.12602004006E+02  0.23665411427E+02  0.79589483718E+02  0.84115623527E+02  0.47000000000E+01 0.  1.
<mgrwt>
<rscale>  2 0.18188808E+03</rscale>
<asrwt>0</asrwt>
<pdfrwt beam="1">  1       21 0.19772203E-01 0.18275897E+03</pdfrwt>
<pdfrwt beam="2">  1       21 0.67299477E-01 0.18275897E+03</pdfrwt>
<totfact> 0.47867866E+04</totfact>
</mgrwt>
</event>
<event>
12    1  0.2769346E-001  0.2820290E+03  0.7546771E-02  0.1094668E+00
         21   -1    0    0  504  503  0.00000000000E+00  0.00000000000E+00  0.14226795884E+03  0.14226795884E+03  0.00000000000E+00 0.  1.
         21   -1    0    0  502  504 -0.00000000000E+00 -0.00000000000E+00 -0.64722766382E+03  0.64722766382E+03  0.00000000000E+00 0.  1.
          6    2    1    2  502    0  0.89228204330E+02  0.20390959039E+03 -0.39937951061E+03  0.48892162087E+03  0.17320382317E+03 0.  0.
         24    2    3    3    0    0  0.44694483754E+02  0.17115017023E+03 -0.38552020542E+03  0.43173244167E+03  0.80480399812E+02 0.  0.
         -6    2    1    2    0  503 -0.89228204330E+02 -0.20390959039E+03 -0.10558019437E+03  0.30057400178E+03  0.17221138058E+03 0.  0.
        -24    2    5    5    0    0 -0.74691594170E+02 -0.56221895932E+02 -0.25552838053E+02  0.13190439608E+03  0.89476736363E+02 0.  0.
          4    1    4    4  501    0 -0.15907484555E+02  0.62691748553E+02 -0.87147313496E+02  0.10852629935E+03  0.00000000000E+00 0. -1.
         -3    1    4    4    0  501  0.60601968309E+02  0.10845842167E+03 -0.29837289193E+03  0.32320614232E+03  0.00000000000E+00 0.  1.
          5    1    3    3  502    0  0.44533720576E+02  0.32759420162E+02 -0.13859305188E+02  0.57189179204E+02  0.47000000000E+01 0. -1.
         11    1    6    6    0    0  0.19293360174E+02 -0.85724413815E+01  0.59279959453E+01  0.21928557498E+02  0.00000000000E+00 0. -1.
        -12    1    6    6    0    0 -0.93984954344E+02 -0.47649454551E+02 -0.31480833998E+02  0.10997583858E+03  0.00000000000E+00 0.  1.
         -5    1    5    5    0  503 -0.14536610160E+02 -0.14768769446E+03 -0.80027356317E+02  0.16866960570E+03  0.47000000000E+01 0.  1.
<mgrwt>
<rscale>  2 0.28187678E+03</rscale>
<asrwt>0</asrwt>
<pdfrwt beam="1">  1       21 0.21887378E-01 0.28202900E+03</pdfrwt>
<pdfrwt beam="2">  1       21 0.99573487E-01 0.28202900E+03</pdfrwt>
<totfact> 0.15383014E+04</totfact>
</mgrwt>
</event>
<event>
12    1  0.2769346E-001  0.3055367E+03  0.7546771E-02  0.1082521E+00
         21   -1    0    0  504  503  0.00000000000E+00  0.00000000000E+00  0.65275514903E+03  0.65275514903E+03  0.00000000000E+00 0. -1.
         21   -1    0    0  502  504 -0.00000000000E+00 -0.00000000000E+00 -0.19706118746E+03  0.19706118746E+03  0.00000000000E+00 0. -1.
          6    2    1    2  502    0 -0.59241217118E+02 -0.24466429705E+03  0.45053205920E+03  0.54436367001E+03  0.17315463843E+03 0.  0.
         24    2    3    3    0    0 -0.84024519628E+02 -0.86472564692E+02  0.22891232827E+03  0.27091124013E+03  0.80339415323E+02 0.  0.
         -6    2    1    2    0  503  0.59241217118E+02  0.24466429705E+03  0.51619023799E+01  0.30545266648E+03  0.17292930973E+03 0.  0.
        -24    2    5    5    0    0  0.95990319016E+02  0.20608263979E+03  0.35579202392E+02  0.24391939981E+03  0.80911051105E+02 0.  0.
          4    1    4    4  501    0 -0.91563540869E+01 -0.19914871111E+02  0.98476186069E+00  0.21941072614E+02  0.00000000000E+00 0. -1.
         -3    1    4    4    0  501 -0.74868165541E+02 -0.66557693581E+02  0.22792756641E+03  0.24897016752E+03  0.00000000000E+00 0.  1.
          5    1    3    3  502    0  0.24783302510E+02 -0.15819173236E+03  0.22161973093E+03  0.27345242988E+03  0.47000000000E+01 0. -1.
         13    1    6    6    0    0  0.13202290641E+02  0.89840365855E+02 -0.15942190568E+02  0.92194063015E+02  0.00000000000E+00 0. -1.
        -14    1    6    6    0    0  0.82788028375E+02  0.11624227394E+03  0.51521392959E+02  0.15172533679E+03  0.00000000000E+00 0.  1.
         -5    1    5    5    0  503 -0.36749101897E+02  0.38581657255E+02 -0.30417300012E+02  0.61533266667E+02  0.47000000000E+01 0.  1.
<mgrwt>
<rscale>  2 0.30550477E+03</rscale>
<asrwt>0</asrwt>
<pdfrwt beam="1">  1       21 0.10042387E+00 0.30553669E+03</pdfrwt>
<pdfrwt beam="2">  1       21 0.30317106E-01 0.30553669E+03</pdfrwt>
<totfact> 0.79363631E+03</totfact>
</mgrwt>
</event>
<event>
12    1  0.2769346E-001  0.1862840E+03  0.7546771E-02  0.1162203E+00
         21   -1    0    0  504  503  0.00000000000E+00  0.00000000000E+00  0.18464535904E+02  0.18464535904E+02  0.00000000000E+00 0. -1.
         21   -1    0    0  502  504 -0.00000000000E+00 -0.00000000000E+00 -0.27532524890E+04  0.27532524890E+04  0.00000000000E+00 0. -1.
          6    2    1    2  502    0  0.33291411198E+02 -0.55265165706E+02 -0.21511145150E+04  0.21590373200E+04  0.17316447630E+03 0.  0.
         24    2    3    3    0    0 -0.46254534662E+01  0.23045295345E+02 -0.14632942568E+04  0.14657199218E+04  0.80946444871E+02 0.  0.
         -6    2    1    2    0  503 -0.33291411198E+02  0.55265165706E+02 -0.58367343806E+03  0.61267970488E+03  0.17475463335E+03 0.  0.
        -24    2    5    5    0    0  0.27940907913E+02  0.81831628177E+02 -0.33055293258E+03  0.35086439951E+03  0.79771397767E+02 0.  0.
          2    1    4    4  501    0 -0.22613972078E+01 -0.23304168615E+01 -0.13304020039E+04  0.13304059669E+04  0.00000000000E+00 0. -1.
         -1    1    4    4    0  501 -0.23640562583E+01  0.25375712206E+02 -0.13289225287E+03  0.13531395495E+03  0.00000000000E+00 0.  1.
          5    1    3    3  502    0  0.37916864664E+02 -0.78310461051E+02 -0.68782025828E+03  0.69331739819E+03  0.47000000000E+01 0. -1.
         11    1    6    6    0    0 -0.23741207248E+02  0.49312808228E+02 -0.12554288507E+03  0.13695405788E+03  0.00000000000E+00 0. -1.
        -12    1    6    6    0    0  0.51682115161E+02  0.32518819949E+02 -0.20501004751E+03  0.21391034163E+03  0.00000000000E+00 0.  1.
         -5    1    5    5    0  503 -0.61232319111E+02 -0.26566462471E+02 -0.25312050548E+03  0.26181530537E+03  0.47000000000E+01 0.  1.
<mgrwt>
<rscale>  2 0.18591017E+03</rscale>
<asrwt>0</asrwt>
<pdfrwt beam="1">  1       21 0.28406982E-02 0.18628403E+03</pdfrwt>
<pdfrwt beam="2">  1       21 0.42357725E+00 0.18628403E+03</pdfrwt>
<totfact> 0.43224640E+03</totfact>
</mgrwt>
</event>
<event>
12    1  0.2769346E-001  0.1773059E+03  0.7546771E-02  0.1170476E+00
         21   -1    0    0  504  503  0.00000000000E+00  0.00000000000E+00  0.80582140283E+03  0.80582140283E+03  0.00000000000E+00 0. -1.
         21   -1    0    0  502  504 -0.00000000000E+00 -0.00000000000E+00 -0.24701394197E+03  0.24701394197E+03  0.00000000000E+00 0. -1.
          6    2    1    2  502    0  0.34443625712E+02 -0.12789826423E+02 -0.20367891692E+03  0.27004161905E+03  0.17345729103E+03 0.  0.
         24    2    3    3    0    0 -0.41275513077E+02 -0.15715006309E+02 -0.15331196694E+03  0.17893253989E+03  0.81004106193E+02 0.  0.
         -6    2    1    2    0  503 -0.34443625712E+02  0.12789826423E+02  0.76248637778E+03  0.78279372575E+03  0.17329338637E+03 0.  0.
        -24    2    5    5    0    0  0.28158319614E+02 -0.20425359536E+02  0.52223635125E+03  0.53226544913E+03  0.96776110164E+02 0.  0.
          4    1    4    4  501    0  0.12643962909E+02  0.20768917823E+02 -0.63584064915E+02  0.68074599203E+02  0.00000000000E+00 0. -1.
         -3    1    4    4    0  501 -0.53919475985E+02 -0.36483924132E+02 -0.89727902025E+02  0.11085794068E+03  0.00000000000E+00 0.  1.
          5    1    3    3  502    0  0.75719138789E+02  0.29251798860E+01 -0.50366949984E+02  0.91109079168E+02  0.47000000000E+01 0. -1.
         13    1    6    6    0    0  0.10215311361E+02 -0.49984166864E+02  0.44147317842E+03  0.44441122487E+03  0.00000000000E+00 0. -1.
        -14    1    6    6    0    0  0.17943008253E+02  0.29558807328E+02  0.80763172825E+02  0.87854224262E+02  0.00000000000E+00 0.  1.
         -5    1    5    5    0  503 -0.62601945326E+02  0.33215185959E+02  0.24025002653E+03  0.25052827662E+03  0.47000000000E+01 0.  1.
<mgrwt>
<rscale>  2 0.17726578E+03</rscale>
<asrwt>0</asrwt>
<pdfrwt beam="1">  1       21 0.12397252E+00 0.17730588E+03</pdfrwt>
<pdfrwt beam="2">  1       21 0.38002145E-01 0.17730588E+03</pdfrwt>
<totfact> 0.32966033E+03</totfact>
</mgrwt>
</event>
<event>
12    1  0.2769346E-001  0.1976754E+03  0.7546771E-02  0.1152128E+00
         21   -1    0    0  504  503  0.00000000000E+00  0.00000000000E+00  0.90790943455E+03  0.90790943455E+03  0.00000000000E+00 0.  1.
         21   -1    0    0  502  504 -0.00000000000E+00 -0.00000000000E+00 -0.67916350872E+02  0.67916350872E+02  0.00000000000E+00 0.  1.
          6    2    1    2  502    0 -0.91262274744E+02 -0.20010419951E+02  0.12096023952E+03  0.23011553472E+03  0.17202488214E+03 0.  0.
         24    2    3    3    0    0 -0.30348294019E+02  0.52518015548E+02  0.70895084919E+02  0.12287982841E+03  0.79963605823E+02 0.  0.
         -6    2    1    2    0  503  0.91262274744E+02  0.20010419951E+02  0.71903284415E+03  0.74571025070E+03  0.17420197280E+03 0.  0.
        -24    2    5    5    0    0  0.75146892531E+02 -0.41323176540E+02  0.45730645119E+03  0.47636974061E+03  0.10219725579E+03 0.  0.
          2    1    4    4  501    0 -0.30617406131E+02  0.73354947904E+02  0.54760895802E+02  0.96525279846E+02  0.00000000000E+00 0. -1.
         -1    1    4    4    0  501  0.26911211168E+00 -0.20836932356E+02  0.16134189117E+02  0.26354548560E+02  0.00000000000E+00 0.  1.
          5    1    3    3  502    0 -0.60913980725E+02 -0.72528435499E+02  0.50065154604E+02  0.10723570632E+03  0.47000000000E+01 0. -1.
         11    1    6    6    0    0  0.70347137287E+02  0.34289605223E+01  0.14914223745E+03  0.16493600118E+03  0.00000000000E+00 0. -1.
        -12    1    6    6    0    0  0.47997552438E+01 -0.44752137062E+02  0.30816421374E+03  0.31143373942E+03  0.00000000000E+00 0.  1.
         -5    1    5    5    0  503  0.16115382214E+02  0.61333596491E+02  0.26172639296E+03  0.26934051009E+03  0.47000000000E+01 0.  1.
<mgrwt>
<rscale>  2 0.19719464E+03</rscale>
<asrwt>0</asrwt>
<pdfrwt beam="1">  1       21 0.13967837E+00 0.19767536E+03</pdfrwt>
<pdfrwt beam="2">  1       21 0.10448670E-01 0.19767536E+03</pdfrwt>
<totfact> 0.26942016E+04</totfact>
</mgrwt>
</event>
<event>
12    1  0.2769346E-001  0.1999339E+03  0.7546771E-02  0.1150172E+00
         21   -1    0    0  504  503  0.00000000000E+00  0.00000000000E+00  0.15607683425E+03  0.15607683425E+03  0.00000000000E+00 0. -1.
         21   -1    0    0  502  504 -0.00000000000E+00 -0.00000000000E+00 -0.29415645822E+03  0.29415645822E+03  0.00000000000E+00 0. -1.
          6    2    1    2  502    0  0.21466453446E+02 -0.92993976866E+02 -0.15264445886E+03  0.25154305246E+03  0.17568405751E+03 0.  0.
         24    2    3    3    0    0 -0.40580251511E+02 -0.10016507097E+03 -0.12573366570E+03  0.18337048485E+03  0.78332507729E+02 0.  0.
         -6    2    1    2    0  503 -0.21466453446E+02  0.92993976866E+02  0.14564834895E+02  0.19869024001E+03  0.17365767677E+03 0.  0.
        -24    2    5    5    0    0 -0.45343935135E+02  0.44301608983E+02 -0.49249519466E+02  0.11481269448E+03  0.82083705040E+02 0.  0.
          4    1    4    4  501    0  0.50344738918E+01 -0.76607365433E+02 -0.49104638221E+02  0.91133417914E+02  0.00000000000E+00 0. -1.
         -3    1    4    4    0  501 -0.45614725403E+02 -0.23557705538E+02 -0.76629027482E+02  0.92237066935E+02  0.00000000000E+00 0.  1.
          5    1    3    3  502    0  0.62046704958E+02  0.71710941046E+01 -0.26910793156E+02  0.68172567614E+02  0.47000000000E+01 0. -1.
         13    1    6    6    0    0 -0.89765700380E+01  0.61963360431E+02 -0.36239033219E+02  0.72341581226E+02  0.00000000000E+00 0. -1.
        -14    1    6    6    0    0 -0.36367365098E+02 -0.17661751448E+02 -0.13010486247E+02  0.42471113250E+02  0.00000000000E+00 0.  1.
         -5    1    5    5    0  503  0.23877481689E+02  0.48692367884E+02  0.63814354362E+02  0.83877545532E+02  0.47000000000E+01 0.  1.
<mgrwt>
<rscale>  2 0.19948788E+03</rscale>
<asrwt>0</asrwt>
<pdfrwt beam="1">  1       21 0.24011821E-01 0.19993393E+03</pdfrwt>
<pdfrwt beam="2">  1       21 0.45254839E-01 0.19993393E+03</pdfrwt>
<totfact> 0.76370333E+04</totfact>
</mgrwt>
</event>
<event>
12    1  0.2769346E-001  0.1846275E+03  0.7546771E-02  0.1163791E+00
         21   -1    0    0  504  503  0.00000000000E+00  0.00000000000E+00  0.18748024494E+03  0.18748024494E+03  0.00000000000E+00 0.  1.
         21   -1    0    0  502  504 -0.00000000000E+00 -0.00000000000E+00 -0.84067181900E+03  0.84067181900E+03  0.00000000000E+00 0.  1.
          6    2    1    2  502    0 -0.92727882284E+01 -0.59870899664E+02 -0.78194476773E+03  0.80306382194E+03  0.17263653464E+03 0.  0.
         24    2    3    3    0    0  0.10847481782E+02  0.13048323385E+02 -0.20242602876E+03  0.21861014783E+03  0.80784732539E+02 0.  0.
         -6    2    1    2    0  503  0.92727882284E+01  0.59870899664E+02  0.12875319367E+03  0.22508824200E+03  0.17440419313E+03 0.  0.
        -24    2    5    5    0    0  0.51901768803E+02  0.87538588333E+02  0.11446929273E+03  0.17208964950E+03  0.78452727396E+02 0.  0.
          4    1    4    4  501    0  0.38986197263E+02 -0.61861141439E+01 -0.57604667260E+02  0.69831864327E+02  0.00000000000E+00 0. -1.
         -3    1    4    4    0  501 -0.28138715481E+02  0.19234437529E+02 -0.14482136150E+03  0.14877828350E+03  0.00000000000E+00 0.  1.
          5    1    3    3  502    0 -0.20120270011E+02 -0.72919223050E+02 -0.57951873897E+03  0.58445367411E+03  0.47000000000E+01 0. -1.
         11    1    6    6    0    0  0.57603997703E+02  0.24534090012E+02  0.39649123748E+02  0.74109345822E+02  0.00000000000E+00 0. -1.
        -12    1    6    6    0    0 -0.57022289003E+01  0.63004498321E+02  0.74820168979E+02  0.97980303680E+02  0.00000000000E+00 0.  1.
         -5    1    5    5    0  503 -0.42628980575E+02 -0.27667688669E+02  0.14283900944E+02  0.52998592503E+02  0.47000000000E+01 0.  1.
<mgrwt>
<rscale>  2 0.18420891E+03</rscale>
<asrwt>0</asrwt>
<pdfrwt beam="1">  1       21 0.28843114E-01 0.18462755E+03</pdfrwt>
<pdfrwt beam="2">  1       21 0.12933413E+00 0.18462755E+03</pdfrwt>
<totfact> 0.50704670E+03</totfact>
</mgrwt>
</event>
<event>
12    1  0.2769346E-001  0.2570865E+03  0.7546771E-02  0.1109218E+00
         21   -1    0    0  504  503  0.00000000000E+00  0.00000000000E+00  0.94102850707E+02  0.94102850707E+02  0.00000000000E+00 0.  1.
         21   -1    0    0  502  504 -0.00000000000E+00 -0.00000000000E+00 -0.74103666403E+03  0.74103666403E+03  0.00000000000E+00 0. -1.
          6    2    1    2  502    0 -0.16851168186E+03 -0.88251975516E+02 -0.42668621167E+03  0.49815116297E+03  0.17294178162E+03 0.  0.
         24    2    3    3    0    0 -0.29097776433E+02 -0.79757948448E+02 -0.18351800118E+03  0.21768502577E+03  0.80621974375E+02 0.  0.
         -6    2    1    2    0  503  0.16851168186E+03  0.88251975516E+02 -0.22024760165E+03  0.33698835177E+03  0.16990451756E+03 0.  0.
        -24    2    5    5    0    0  0.13557262842E+03  0.11932628365E+03 -0.13243442774E+03  0.23807506965E+03  0.80759900888E+02 0.  0.
          4    1    4    4  501    0 -0.39823631322E+02 -0.68259897742E+02 -0.18569421170E+03  0.20181098956E+03  0.00000000000E+00 0. -1.
         -3    1    4    4    0  501  0.10725854889E+02 -0.11498050705E+02  0.21762105171E+01  0.15874036202E+02  0.00000000000E+00 0.  1.
          5    1    3    3  502    0 -0.13941390543E+03 -0.84940270689E+01 -0.24316821049E+03  0.28046613720E+03  0.47000000000E+01 0. -1.
         11    1    6    6    0    0  0.11249120375E+03  0.92511499234E+02 -0.13985917024E+03  0.20192383690E+03  0.00000000000E+00 0. -1.
        -12    1    6    6    0    0  0.23081424674E+02  0.26814784412E+02  0.74247424915E+01  0.36151232747E+02  0.00000000000E+00 0.  1.
         -5    1    5    5    0  503  0.32939053442E+02 -0.31074308129E+02 -0.87813173909E+02  0.98913282118E+02  0.47000000000E+01 0.  1.
<mgrwt>
<rscale>  2 0.25657665E+03</rscale>
<asrwt>0</asrwt>
<pdfrwt beam="1">  1       21 0.14477361E-01 0.25708648E+03</pdfrwt>
<pdfrwt beam="2">  1       21 0.11400564E+00 0.25708648E+03</pdfrwt>
<totfact> 0.24188367E+04</totfact>
</mgrwt>
</event>
<event>
12    1  0.2769346E-001  0.1971703E+03  0.7546771E-02  0.1152385E+00
         21   -1    0    0  504  503  0.00000000000E+00  0.00000000000E+00  0.35869781180E+03  0.35869781180E+03  0.00000000000E+00 0. -1.
         21   -1    0    0  502  504 -0.00000000000E+00 -0.00000000000E+00 -0.11720372278E+03  0.11720372278E+03  0.00000000000E+00 0.  1.
          6    2    1    2  502    0  0.38172456974E+02  0.88989186446E+02  0.53581310882E+02  0.20432107913E+03  0.17175545035E+03 0.  0.
         24    2    3    3    0    0  0.82514207151E+02  0.76113271093E+02  0.56231788272E+01  0.13758239143E+03  0.79343997090E+02 0.  0.
         -6    2    1    2    0  503 -0.38172456974E+02 -0.88989186446E+02  0.18791277814E+03  0.27158045545E+03  0.17049492608E+03 0.  0.
        -24    2    5    5    0    0 -0.90883057183E+02 -0.61181295304E+02  0.13072228172E+03  0.18884878639E+03  0.81071993969E+02 0.  0.
          2    1    4    4  501    0  0.78876925042E+02  0.91831934343E+02  0.77730085068E+01  0.12130578358E+03  0.00000000000E+00 0. -1.
         -1    1    4    4    0  501  0.36372821083E+01 -0.15718663250E+02 -0.21498296796E+01  0.16276607851E+02  0.00000000000E+00 0.  1.
          5    1    3    3  502    0 -0.44341750177E+02  0.12875915352E+02  0.47958132055E+02  0.66738687694E+02  0.47000000000E+01 0. -1.
         13    1    6    6    0    0 -0.25134724094E+02 -0.38032887039E+02  0.10514060678E+03  0.11459843823E+03  0.00000000000E+00 0. -1.
        -14    1    6    6    0    0 -0.65748333089E+02 -0.23148408266E+02  0.25581674942E+02  0.74250348161E+02  0.00000000000E+00 0.  1.
         -5    1    5    5    0  503  0.52710600209E+02 -0.27807891142E+02  0.57190496427E+02  0.82731669061E+02  0.47000000000E+01 0.  1.
<mgrwt>
<rscale>  2 0.19689551E+03</rscale>
<asrwt>0</asrwt>
<pdfrwt beam="1">  1       21 0.55184278E-01 0.19717035E+03</pdfrwt>
<pdfrwt beam="2">  1       21 0.18031342E-01 0.19717035E+03</pdfrwt>
<totfact> 0.86512097E+04</totfact>
</mgrwt>
</event>
<event>
12    1  0.2769346E-001  0.2622828E+03  0.7546771E-02  0.1106072E+00
         21   -1    0    0  504  503  0.00000000000E+00  0.00000000000E+00  0.67461631726E+03  0.67461631726E+03  0.00000000000E+00 0.  1.
         21   -1    0    0  502  504 -0.00000000000E+00 -0.00000000000E+00 -0.25887383013E+03  0.25887383013E+03  0.00000000000E+00 0.  1.
          6    2    1    2  502    0 -0.15294609500E+03 -0.12513780981E+03 -0.15668341730E+03  0.30383651139E+03  0.16945487003E+03 0.  0.
         24    2    3    3    0    0 -0.12252763977E+03 -0.20244608255E+02 -0.68176449795E+02  0.16318289626E+03  0.80980013922E+02 0.  0.
         -6    2    1    2    0  503  0.15294609500E+03  0.12513780981E+03  0.57242590444E+03  0.62965363600E+03  0.17245377886E+03 0.  0.
        -24    2    5    5    0    0  0.47722403652E+02  0.12574000126E+03  0.35649363147E+03  0.38940121798E+03  0.80359340231E+02 0.  0.
          4    1    4    4  501    0 -0.37428316279E+02 -0.17398919616E+02  0.15226557964E+02  0.43993741949E+02  0.00000000000E+00 0. -1.
         -3    1    4    4    0  501 -0.85099323491E+02 -0.28456886388E+01 -0.83403007759E+02  0.11918915431E+03  0.00000000000E+00 0.  1.
          5    1    3    3  502    0 -0.30418455226E+02 -0.10489320155E+03 -0.88506967507E+02  0.14065361513E+03  0.47000000000E+01 0. -1.
         13    1    6    6    0    0  0.25617083969E+02  0.19303143770E+01  0.10649610542E+03  0.10955081731E+03  0.00000000000E+00 0. -1.
        -14    1    6    6    0    0  0.22105319684E+02  0.12380968688E+03  0.24999752605E+03  0.27985040067E+03  0.00000000000E+00 0.  1.
         -5    1    5    5    0  503  0.10522369134E+03 -0.60219145230E+00  0.21593227297E+03  0.24025241802E+03  0.47000000000E+01 0.  1.
<mgrwt>
<rscale>  2 0.26179095E+03</rscale>
<asrwt>0</asrwt>
<pdfrwt beam="1">  1       21 0.10378713E+00 0.26228283E+03</pdfrwt>
<pdfrwt beam="2">  1       21 0.39826743E-01 0.26228283E+03</pdfrwt>
<totfact> 0.43443562E+03</totfact>
</mgrwt>
</event>
<event>
12    1  0.2769346E-001  0.1791258E+03  0.7546771E-02  0.1168773E+00
         21   -1    0    0  504  503  0.00000000000E+00  0.00000000000E+00  0.15971733421E+03  0.15971733421E+03  0.00000000000E+00 0. -1.
         21   -1    0    0  502  504 -0.00000000000E+00 -0.00000000000E+00 -0.25772592848E+03  0.25772592848E+03  0.00000000000E+00 0. -1.
          6    2    1    2  502    0  0.41448334427E+02  0.15592173808E+02 -0.14744367393E+03  0.23162110865E+03  0.17305380862E+03 0.  0.
         24    2    3    3    0    0 -0.42875736073E+02  0.25283420454E+02 -0.70716383324E+02  0.11710632248E+03  0.78965206265E+02 0.  0.
         -6    2    1    2    0  503 -0.41448334427E+02 -0.15592173808E+02  0.49435079658E+02  0.18582215404E+03  0.17356545025E+03 0.  0.
        -24    2    5    5    0    0 -0.75982676626E+02 -0.56541684104E+02  0.42702074342E+02  0.13162892065E+03  0.80823118036E+02 0.  0.
          4    1    4    4  501    0 -0.29475242688E+02  0.52190515595E+02 -0.60989615957E+02  0.85512414913E+02  0.00000000000E+00 0. -1.
         -3    1    4    4    0  501 -0.13400493385E+02 -0.26907095141E+02 -0.97267673665E+01  0.31593907566E+02  0.00000000000E+00 0.  1.
          5    1    3    3  502    0  0.84324070500E+02 -0.96912466464E+01 -0.76727290609E+02  0.11451478617E+03  0.47000000000E+01 0. -1.
         13    1    6    6    0    0 -0.74519237326E+02 -0.53086843123E+02  0.27865003495E+01  0.91537392516E+02  0.00000000000E+00 0. -1.
        -14    1    6    6    0    0 -0.14634392999E+01 -0.34548409810E+01  0.39915573992E+02  0.40091528131E+02  0.00000000000E+00 0.  1.
         -5    1    5    5    0  503  0.34534342199E+02  0.40949510296E+02  0.67330053164E+01  0.54193233390E+02  0.47000000000E+01 0.  1.
<mgrwt>
<rscale>  2 0.17900172E+03</rscale>
<asrwt>0</asrwt>
<pdfrwt beam="1">  1       21 0.24571898E-01 0.17912578E+03</pdfrwt>
<pdfrwt beam="2">  1       21 0.39650142E-01 0.17912578E+03</pdfrwt>
<totfact> 0.96477055E+04</totfact>
</mgrwt>
</event>
<event>
12    1  0.2769346E-001  0.1772289E+03  0.7546771E-02  0.1170862E+00
         21   -1    0    0  504  503  0.00000000000E+00  0.00000000000E+00  0.76719498460E+02  0.76719498460E+02  0.00000000000E+00 0. -1.
         21   -1    0    0  502  504 -0.00000000000E+00 -0.00000000000E+00 -0.43245515645E+03  0.43245515645E+03  0.00000000000E+00 0. -1.
          6    2    1    2  502    0 -0.34869635638E+02 -0.80137529478E+01 -0.24131379523E+03  0.29940345554E+03  0.17357986547E+03 0.  0.
         24    2    3    3    0    0 -0.41579042402E+02  0.14908370119E+02 -0.25544818361E+03  0.27125543962E+03  0.79841485136E+02 0.  0.
         -6    2    1    2    0  503  0.34869635638E+02  0.80137529478E+01 -0.11442186277E+03  0.20977119937E+03  0.17213797280E+03 0.  0.
        -24    2    5    5    0    0  0.61414304437E+02 -0.26720472061E+02 -0.12689891839E+03  0.16406723077E+03  0.79555140052E+02 0.  0.
          2    1    4    4  501    0 -0.34991753370E+02  0.38876280609E+02 -0.22925252485E+03  0.23514359049E+03  0.00000000000E+00 0. -1.
         -1    1    4    4    0  501 -0.65872890321E+01 -0.23967910490E+02 -0.26195658764E+02  0.36111849137E+02  0.00000000000E+00 0.  1.
          5    1    3    3  502    0  0.67094067637E+01 -0.22922123067E+02  0.14134388386E+02  0.28148015917E+02  0.47000000000E+01 0. -1.
         11    1    6    6    0    0  0.56460701407E+01  0.71503444216E+01  0.93165490498E+01  0.13030871789E+02  0.00000000000E+00 0. -1.
        -12    1    6    6    0    0  0.55768234297E+02 -0.33870816482E+02 -0.13621546744E+03  0.15103635898E+03  0.00000000000E+00 0.  1.
         -5    1    5    5    0  503 -0.26544668799E+02  0.34734225009E+02  0.12477055621E+02  0.45703968598E+02  0.47000000000E+01 0.  1.
<mgrwt>
<rscale>  2 0.17687485E+03</rscale>
<asrwt>0</asrwt>
<pdfrwt beam="1">  1       21 0.11803000E-01 0.17722890E+03</pdfrwt>
<pdfrwt beam="2">  1       21 0.66531563E-01 0.17722890E+03</pdfrwt>
<totfact> 0.12590830E+05</totfact>
</mgrwt>
</event>
<event>
12    1  0.2769346E-001  0.2099275E+03  0.7546771E-02  0.1141886E+00
         21   -1    0    0  504  503  0.00000000000E+00  0.00000000000E+00  0.75335449071E+03  0.75335449071E+03  0.00000000000E+00 0.  1.
         21   -1    0    0  502  504 -0.00000000000E+00 -0.00000000000E+00 -0.60076054178E+02  0.60076054178E+02  0.00000000000E+00 0.  1.
          6    2    1    2  502    0  0.20263418273E+02 -0.11402074148E+03  0.42089202894E+03  0.47033992859E+03  0.17509486799E+03 0.  0.
         24    2    3    3    0    0 -0.48116793711E+02 -0.38556995456E+02  0.27219225136E+03  0.29005031656E+03  0.78985420804E+02 0.  0.
         -6    2    1    2    0  503 -0.20263418273E+02  0.11402074148E+03  0.27238640759E+03  0.34309061629E+03  0.17350930909E+03 0.  0.
        -24    2    5    5    0    0  0.36691487878E+02  0.70006021830E+02  0.23758808517E+03  0.26300210199E+03  0.80466757476E+02 0.  0.
          4    1    4    4  501    0 -0.46484282887E+02 -0.61447734210E+02  0.20163460302E+03  0.21585440864E+03  0.00000000000E+00 0. -1.
         -3    1    4    4    0  501 -0.16325108244E+01  0.22890738754E+02  0.70557648343E+02  0.74195907920E+02  0.00000000000E+00 0.  1.
          5    1    3    3  502    0  0.68380211984E+02 -0.75463746023E+02  0.14869977758E+03  0.18028961203E+03  0.47000000000E+01 0. -1.
         13    1    6    6    0    0 -0.25821836493E+02  0.22033442064E+02  0.68045733645E+02  0.76042499146E+02  0.00000000000E+00 0. -1.
        -14    1    6    6    0    0  0.62513324370E+02  0.47972579765E+02  0.16954235153E+03  0.18695960284E+03  0.00000000000E+00 0.  1.
         -5    1    5    5    0  503 -0.56954906151E+02  0.44014719650E+02  0.34798322415E+02  0.80088514304E+02  0.47000000000E+01 0.  1.
<mgrwt>
<rscale>  2 0.20959654E+03</rscale>
<asrwt>0</asrwt>
<pdfrwt beam="1">  1       21 0.11590068E+00 0.20992748E+03</pdfrwt>
<pdfrwt beam="2">  1       21 0.92424704E-02 0.20992748E+03</pdfrwt>
<totfact> 0.53150005E+04</totfact>
</mgrwt>
</event>
<event>
12    1  0.2769346E-001  0.2019119E+03  0.7546771E-02  0.1149283E+00
         21   -1    0    0  504  503  0.00000000000E+00  0.00000000000E+00  0.70915658367E+02  0.70915658367E+02  0.00000000000E+00 0. -1.
         21   -1    0    0  502  504 -0.00000000000E+00 -0.00000000000E+00 -0.56572589655E+03  0.56572589655E+03  0.00000000000E+00 0.  1.
          6    2    1    2  502    0 -0.53627437358E+02 -0.84315677307E+02 -0.21078212772E+03  0.28815856279E+03  0.16917806142E+03 0.  0.
         24    2    3    3    0    0  0.34298877286E+01 -0.46923386399E+02 -0.35654179508E+02  0.10015428090E+03  0.80907917689E+02 0.  0.
         -6    2    1    2    0  503  0.53627437358E+02  0.84315677307E+02 -0.28402811046E+03  0.34848299212E+03  0.17545196719E+03 0.  0.
        -24    2    5    5    0    0 -0.34920996924E+02  0.12555269581E+02 -0.11101961749E+03  0.14125266140E+03  0.79055980580E+02 0.  0.
          2    1    4    4  501    0  0.31294153084E+02 -0.54158104324E+02 -0.13910933684E+02  0.64077596374E+02  0.00000000000E+00 0. -1.
         -1    1    4    4    0  501 -0.27864265355E+02  0.72347179247E+01 -0.21743245824E+02  0.36076684523E+02  0.00000000000E+00 0.  1.
          5    1    3    3  502    0 -0.57057325086E+02 -0.37392290908E+02 -0.17512794822E+03  0.18800428190E+03  0.47000000000E+01 0. -1.
         11    1    6    6    0    0  0.73106628370E+01 -0.24500725749E+02 -0.14028908360E+02  0.29164046755E+02  0.00000000000E+00 0. -1.
        -12    1    6    6    0    0 -0.42231659761E+02  0.37055995331E+02 -0.96990709130E+02  0.11208861465E+03  0.00000000000E+00 0.  1.
         -5    1    5    5    0  503  0.88548434282E+02  0.71760407726E+02 -0.17300849297E+03  0.20723033072E+03  0.47000000000E+01 0.  1.
<mgrwt>
<rscale>  2 0.20054124E+03</rscale>
<asrwt>0</asrwt>
<pdfrwt beam="1">  1       21 0.10910101E-01 0.20191193E+03</pdfrwt>
<pdfrwt beam="2">  1       21 0.87034752E-01 0.20191193E+03</pdfrwt>
<totfact> 0.78597998E+04</totfact>
</mgrwt>
</event>
<event>
12    1  0.2769346E-001  0.1990646E+03  0.7546771E-02  0.1150686E+00
         21   -1    0    0  504  503  0.00000000000E+00  0.00000000000E+00  0.18969610028E+03  0.18969610028E+03  0.00000000000E+00 0. -1.
         21   -1    0    0  502  504 -0.00000000000E+00 -0.00000000000E+00 -0.29799017913E+03  0.29799017913E+03  0.00000000000E+00 0. -1.
          6    2    1    2  502    0 -0.35659800121E+02  0.90948038301E+02 -0.18798247300E+03  0.27326392771E+03  0.17260532151E+03 0.  0.
         24    2    3    3    0    0 -0.22982214383E+02  0.12848378727E+03 -0.12106647736E+03  0.19535696971E+03  0.80442450893E+02 0.  0.
         -6    2    1    2    0  503  0.35659800121E+02 -0.90948038301E+02  0.79688394153E+02  0.21442235171E+03  0.17344606578E+03 0.  0.
        -24    2    5    5    0    0  0.88251352232E+02 -0.76414083497E+02  0.64469629196E+02  0.15758215464E+03  0.83954684475E+02 0.  0.
          2    1    4    4  501    0  0.28837464928E+02  0.43441663590E+02 -0.28643459549E+02  0.59491388401E+02  0.00000000000E+00 0. -1.
         -1    1    4    4    0  501 -0.51819679310E+02  0.85042123681E+02 -0.92423017809E+02  0.13586558131E+03  0.00000000000E+00 0.  1.
          5    1    3    3  502    0 -0.12677585738E+02 -0.37535748970E+02 -0.66915995646E+02  0.77906957996E+02  0.47000000000E+01 0. -1.
         11    1    6    6    0    0  0.89632020846E+01 -0.21199231366E+02  0.56056001205E+02  0.60597208461E+02  0.00000000000E+00 0. -1.
        -12    1    6    6    0    0  0.79288150148E+02 -0.55214852131E+02  0.84136279905E+01  0.96984946181E+02  0.00000000000E+00 0.  1.
         -5    1    5    5    0  503 -0.52591552111E+02 -0.14533954804E+02  0.15218764957E+02  0.56840197066E+02  0.47000000000E+01 0.  1.
<mgrwt>
<rscale>  2 0.19888129E+03</rscale>
<asrwt>0</asrwt>
<pdfrwt beam="1">  1       21 0.29184015E-01 0.19906457E+03</pdfrwt>
<pdfrwt beam="2">  1       21 0.45844643E-01 0.19906457E+03</pdfrwt>
<totfact> 0.51121613E+04</totfact>
</mgrwt>
</event>
<event>
12    1  0.2769346E-001  0.2168816E+03  0.7546771E-02  0.1136376E+00
         21   -1    0    0  504  503  0.00000000000E+00  0.00000000000E+00  0.40699337466E+03  0.40699337466E+03  0.00000000000E+00 0.  1.
         21   -1    0    0  502  504 -0.00000000000E+00 -0.00000000000E+00 -0.12499792310E+03  0.12499792310E+03  0.00000000000E+00 0.  1.
          6    2    1    2  502    0  0.78266792725E+02 -0.10427229280E+03  0.66162130418E+02  0.22601471885E+03  0.17235667596E+03 0.  0.
         24    2    3    3    0    0  0.15656816929E+02 -0.10855539947E+03  0.84968934672E+02  0.16033260593E+03  0.80358036275E+02 0.  0.
         -6    2    1    2    0  503 -0.78266792725E+02  0.10427229280E+03  0.21583332114E+03  0.30597657892E+03  0.17331832690E+03 0.  0.
        -24    2    5    5    0    0 -0.10259376298E+03  0.90543051226E+02  0.22570325348E+03  0.27597992710E+03  0.80619087101E+02 0.  0.
          2    1    4    4  501    0 -0.14472129284E+02 -0.61626955922E+02  0.83189972762E+02  0.10453657633E+03  0.00000000000E+00 0. -1.
         -1    1    4    4    0  501  0.30128946213E+02 -0.46928443546E+02  0.17789619100E+01  0.55796029599E+02  0.00000000000E+00 0.  1.
          5    1    3    3  502    0  0.62609975796E+02  0.42831066714E+01 -0.18806804254E+02  0.65682112924E+02  0.47000000000E+01 0. -1.
         13    1    6    6    0    0 -0.59715440853E+01 -0.14695289232E+02  0.19894578968E+02  0.25444157220E+02  0.00000000000E+00 0. -1.
        -14    1    6    6    0    0 -0.96622218895E+02  0.10523834046E+03  0.20580867451E+03  0.25053576988E+03  0.00000000000E+00 0.  1.
         -5    1    5    5    0  503  0.24326970256E+02  0.13729241570E+02 -0.98699323309E+01  0.29996651815E+02  0.47000000000E+01 0.  1.
<mgrwt>
<rscale>  2 0.21668945E+03</rscale>
<asrwt>0</asrwt>
<pdfrwt beam="1">  1       21 0.62614365E-01 0.21688164E+03</pdfrwt>
<pdfrwt beam="2">  1       21 0.19230450E-01 0.21688164E+03</pdfrwt>
<totfact> 0.58046266E+04</totfact>
</mgrwt>
</event>
<event>
12    1  0.2769346E-001  0.1900248E+03  0.7546771E-02  0.1158732E+00
         21   -1    0    0  504  503  0.00000000000E+00  0.00000000000E+00  0.39960829967E+03  0.39960829967E+03  0.00000000000E+00 0.  1.
         21   -1    0    0  502  504 -0.00000000000E+00 -0.00000000000E+00 -0.11020997211E+03  0.11020997211E+03  0.00000000000E+00 0. -1.
          6    2    1    2  502    0 -0.72645281487E+02 -0.27044658391E+02  0.35262262460E+02  0.19326886378E+03  0.17349546416E+03 0.  0.
         24    2    3    3    0    0 -0.10561616019E+03 -0.20453091175E+02  0.64619723915E+02  0.14838592555E+03  0.79180628624E+02 0.  0.
         -6    2    1    2    0  503  0.72645281487E+02  0.27044658391E+02  0.25413606511E+03  0.31654940800E+03  0.17207451191E+03 0.  0.
        -24    2    5    5    0    0  0.79331197960E+02 -0.40760594833E+02  0.16743627294E+03  0.20618094419E+03  0.80751539847E+02 0.  0.
          4    1    4    4  501    0 -0.66147025946E+02  0.24218925527E+02  0.17985032108E+02  0.72701078225E+02  0.00000000000E+00 0. -1.
         -3    1    4    4    0  501 -0.39469134248E+02 -0.44672016701E+02  0.46634691806E+02  0.75684847323E+02  0.00000000000E+00 0.  1.
          5    1    3    3  502    0  0.32970878707E+02 -0.65915672165E+01 -0.29357461455E+02  0.44882938230E+02  0.47000000000E+01 0. -1.
         13    1    6    6    0    0  0.24641023289E+01 -0.24993512564E+02  0.47500912003E+01  0.25559945950E+02  0.00000000000E+00 0. -1.
        -14    1    6    6    0    0  0.76867095631E+02 -0.15767082270E+02  0.16268618174E+03  0.18062099824E+03  0.00000000000E+00 0.  1.
         -5    1    5    5    0  503 -0.66859164730E+01  0.67805253224E+02  0.86699792165E+02  0.11036846382E+03  0.47000000000E+01 0.  1.
<mgrwt>
<rscale>  2 0.18969986E+03</rscale>
<asrwt>0</asrwt>
<pdfrwt beam="1">  1       21 0.61478199E-01 0.19002481E+03</pdfrwt>
<pdfrwt beam="2">  1       21 0.16955381E-01 0.19002481E+03</pdfrwt>
<totfact> 0.77171534E+04</totfact>
</mgrwt>
</event>
<event>
12    1  0.2769346E-001  0.2922861E+03  0.7546771E-02  0.1089281E+00
         21   -1    0    0  504  503  0.00000000000E+00  0.00000000000E+00  0.32547069384E+03  0.32547069384E+03  0.00000000000E+00 0.  1.
         21   -1    0    0  502  504 -0.00000000000E+00 -0.00000000000E+00 -0.63987842416E+03  0.63987842416E+03  0.00000000000E+00 0. -1.
          6    2    1    2  502    0 -0.13298582505E+03 -0.19068417666E+03 -0.52819164208E+03  0.60322380699E+03  0.17563275796E+03 0.  0.
         24    2    3    3    0    0 -0.15938818730E+02 -0.21799791358E+02 -0.17183425925E+03  0.19184246130E+03  0.80915019988E+02 0.  0.
         -6    2    1    2    0  503  0.13298582505E+03  0.19068417666E+03  0.21378391176E+03  0.36212531100E+03  0.17715951865E+03 0.  0.
        -24    2    5    5    0    0  0.10857341005E+03  0.41415216071E+02  0.10631838151E+03  0.17652326685E+03  0.79708594268E+02 0.  0.
          4    1    4    4  501    0 -0.42390230396E+02  0.85754911142E+01 -0.69390897550E+02  0.81765318710E+02  0.00000000000E+00 0. -1.
         -3    1    4    4    0  501  0.26451411666E+02 -0.30375282473E+02 -0.10244336170E+03  0.11007714259E+03  0.00000000000E+00 0.  1.
          5    1    3    3  502    0 -0.11704700632E+03 -0.16888438530E+03 -0.35635738283E+03  0.41138134569E+03  0.47000000000E+01 0. -1.
         11    1    6    6    0    0  0.18829199874E+02 -0.21805541378E+02  0.36195480424E+02  0.46261573749E+02  0.00000000000E+00 0. -1.
        -12    1    6    6    0    0  0.89744210180E+02  0.63220757448E+02  0.70122901091E+02  0.13026169310E+03  0.00000000000E+00 0.  1.
         -5    1    5    5    0  503  0.24412414995E+02  0.14926896059E+03  0.10746553025E+03  0.18560204415E+03  0.47000000000E+01 0.  1.
<mgrwt>
<rscale>  2 0.29205514E+03</rscale>
<asrwt>0</asrwt>
<pdfrwt beam="1">  1       21 0.50072415E-01 0.29228613E+03</pdfrwt>
<pdfrwt beam="2">  1       21 0.98442834E-01 0.29228613E+03</pdfrwt>
<totfact> 0.30176289E+03</totfact>
</mgrwt>
</event>
<event>
12    1  0.2769346E-001  0.1971373E+03  0.7546771E-02  0.1152752E+00
         21   -1    0    0  504  503  0.00000000000E+00  0.00000000000E+00  0.66332386199E+03  0.66332386199E+03  0.00000000000E+00 0.  1.
         21   -1    0    0  502  504 -0.00000000000E+00 -0.00000000000E+00 -0.57818463498E+02  0.57818463498E+02  0.00000000000E+00 0.  1.
          6    2    1    2  502    0  0.86884013647E+02 -0.33367103527E+02  0.31099668179E+03  0.36821470383E+03  0.17378416673E+03 0.  0.
         24    2    3    3    0    0  0.77874836605E+02 -0.24301859540E+02  0.87140920862E+02  0.14394514365E+03  0.80446216438E+02 0.  0.
         -6    2    1    2    0  503 -0.86884013647E+02  0.33367103527E+02  0.29450871669E+03  0.35292762165E+03  0.17076394963E+03 0.  0.
        -24    2    5    5    0    0 -0.96238857837E+02 -0.20190782116E+02  0.13873476238E+03  0.18787134317E+03  0.79866900853E+02 0.  0.
          2    1    4    4  501    0  0.58647349631E+02  0.12989225898E+02  0.82040237925E+02  0.10168004842E+03  0.00000000000E+00 0. -1.
         -1    1    4    4    0  501  0.19227486974E+02 -0.37291085438E+02  0.51006829369E+01  0.42265095231E+02  0.00000000000E+00 0.  1.
          5    1    3    3  502    0  0.90091770418E+01 -0.90652439870E+01  0.22385576093E+03  0.22426956018E+03  0.47000000000E+01 0. -1.
         11    1    6    6    0    0 -0.38995233020E+02 -0.36101591348E+02  0.23260292635E+02  0.58008571001E+02  0.00000000000E+00 0. -1.
        -12    1    6    6    0    0 -0.57243624818E+02  0.15910809231E+02  0.11547446975E+03  0.12986277217E+03  0.00000000000E+00 0.  1.
         -5    1    5    5    0  503  0.93548441903E+01  0.53557885644E+02  0.15577395431E+03  0.16505627848E+03  0.47000000000E+01 0.  1.
<mgrwt>
<rscale>  2 0.19646966E+03</rscale>
<asrwt>0</asrwt>
<pdfrwt beam="1">  1       21 0.10204982E+00 0.19713734E+03</pdfrwt>
<pdfrwt beam="2">  1       21 0.88951487E-02 0.19713734E+03</pdfrwt>
<totfact> 0.77834406E+04</totfact>
</mgrwt>
</event>
<event>
12    1  0.2769346E-001  0.1908634E+03  0.7546771E-02  0.1158071E+00
         21   -1    0    0  504  503  0.00000000000E+00  0.00000000000E+00  0.58470718399E+02  0.58470718399E+02  0.00000000000E+00 0. -1.
         21   -1    0    0  502  504 -0.00000000000E+00 -0.00000000000E+00 -0.92188950507E+03  0.92188950507E+03  0.00000000000E+00 0.  1.
          6    2    1    2  502    0 -0.41352224782E+02 -0.65868735412E+02 -0.71209277334E+03  0.73678599838E+03  0.17242039547E+03 0.  0.
         24    2    3    3    0    0 -0.60251800168E+02 -0.70693673556E+02 -0.70479214801E+03  0.71543504740E+03  0.80544771644E+02 0.  0.
         -6    2    1    2    0  503  0.41352224782E+02  0.65868735412E+02 -0.15132601333E+03  0.24357422508E+03  0.17429900750E+03 0.  0.
        -24    2    5    5    0    0  0.55874420267E+02  0.59262795497E+00 -0.14667771619E+03  0.17637630076E+03  0.80448399583E+02 0.  0.
          2    1    4    4  501    0 -0.69564750014E+02 -0.31415885948E+02 -0.34257648189E+03  0.35097700534E+03  0.00000000000E+00 0. -1.
         -1    1    4    4    0  501  0.93129498456E+01 -0.39277787608E+02 -0.36221566612E+03  0.36445804205E+03  0.00000000000E+00 0.  1.
          5    1    3    3  502    0  0.18899575386E+02  0.48249381442E+01 -0.73006253262E+01  0.21350950986E+02  0.47000000000E+01 0. -1.
         13    1    6    6    0    0  0.43673627338E+02  0.38141583730E+02 -0.78520212071E+02  0.97609373719E+02  0.00000000000E+00 0. -1.
        -14    1    6    6    0    0  0.12200792929E+02 -0.37548955775E+02 -0.68157504119E+02  0.78766927042E+02  0.00000000000E+00 0.  1.
         -5    1    5    5    0  503 -0.14522195485E+02  0.65276107457E+02 -0.46482971368E+01  0.67197924318E+02  0.47000000000E+01 0.  1.
<mgrwt>
<rscale>  2 0.19043345E+03</rscale>
<asrwt>0</asrwt>
<pdfrwt beam="1">  1       21 0.89954951E-02 0.19086341E+03</pdfrwt>
<pdfrwt beam="2">  1       21 0.14182916E+00 0.19086341E+03</pdfrwt>
<totfact> 0.33864925E+04</totfact>
</mgrwt>
</event>
<event>
12    1  0.2769346E-001  0.1930317E+03  0.7546771E-02  0.1155993E+00
         21   -1    0    0  504  503  0.00000000000E+00  0.00000000000E+00  0.26792692738E+03  0.26792692738E+03  0.00000000000E+00 0. -1.
         21   -1    0    0  502  504 -0.00000000000E+00 -0.00000000000E+00 -0.20420729542E+03  0.20420729542E+03  0.00000000000E+00 0. -1.
          6    2    1    2  502    0 -0.95186334240E+01 -0.83770527601E+02  0.16591159828E+03  0.25372075747E+03  0.17245132256E+03 0.  0.
         24    2    3    3    0    0  0.46256191565E+02 -0.91734336319E+02  0.92302777992E+02  0.16090587841E+03  0.82559524966E+02 0.  0.
         -6    2    1    2    0  503  0.95186334240E+01  0.83770527601E+02 -0.10219196632E+03  0.21841346534E+03  0.17364658990E+03 0.  0.
        -24    2    5    5    0    0  0.16590528860E+02 -0.24370837893E+02 -0.38450349978E+02  0.92597527197E+02  0.78909373601E+02 0.  0.
          4    1    4    4  501    0 -0.75571090796E+01 -0.66994903522E+02  0.26678173010E+02  0.72506219808E+02  0.00000000000E+00 0. -1.
         -3    1    4    4    0  501  0.53813300645E+02 -0.24739432797E+02  0.65624604982E+02  0.88399658599E+02  0.00000000000E+00 0.  1.
          5    1    3    3  502    0 -0.55774824989E+02  0.79638087177E+01  0.73608820284E+02  0.92814879063E+02  0.47000000000E+01 0. -1.
         11    1    6    6    0    0  0.46824467543E+02 -0.33579351510E+01 -0.26389012419E+02  0.53853379333E+02  0.00000000000E+00 0. -1.
        -12    1    6    6    0    0 -0.30233938683E+02 -0.21012902743E+02 -0.12061337560E+02  0.38744147864E+02  0.00000000000E+00 0.  1.
         -5    1    5    5    0  503 -0.70718954355E+01  0.10814136549E+03 -0.63741616341E+02  0.12581593814E+03  0.47000000000E+01 0.  1.
<mgrwt>
<rscale>  2 0.19276252E+03</rscale>
<asrwt>0</asrwt>
<pdfrwt beam="1">  1       21 0.41219528E-01 0.19303172E+03</pdfrwt>
<pdfrwt beam="2">  1       21 0.31416507E-01 0.19303172E+03</pdfrwt>
<totfact> 0.55188156E+04</totfact>
</mgrwt>
</event>
<event>
12    1  0.2769346E-001  0.2529360E+03  0.7546771E-02  0.1111709E+00
         21   -1    0    0  504  503  0.00000000000E+00  0.00000000000E+00  0.26303947087E+03  0.26303947087E+03  0.00000000000E+00 0. -1.
         21   -1    0    0  502  504 -0.00000000000E+00 -0.00000000000E+00 -0.96372948087E+03  0.96372948087E+03  0.00000000000E+00 0.  1.
          6    2    1    2  502    0 -0.13218577696E+03 -0.12457040755E+03 -0.88099128535E+03  0.91614833797E+03  0.17375634157E+03 0.  0.
         24    2    3    3    0    0 -0.66162883028E+02 -0.13533240710E+03 -0.48790252212E+03  0.51738059988E+03  0.83315223986E+02 0.  0.
         -6    2    1    2    0  503  0.13218577696E+03  0.12457040755E+03  0.18030127535E+03  0.31062061377E+03  0.17602769594E+03 0.  0.
        -24    2    5    5    0    0  0.82374677551E+02  0.88514712467E+02  0.20297218479E+03  0.24491506676E+03  0.64538672944E+02 0.  0.
          4    1    4    4  501    0  0.12311766370E+02 -0.66691406078E+02 -0.18523436390E+03  0.19725894860E+03  0.00000000000E+00 0. -1.
         -3    1    4    4    0  501 -0.78474649398E+02 -0.68641001022E+02 -0.30266815822E+03  0.32012165128E+03  0.00000000000E+00 0.  1.
          5    1    3    3  502    0 -0.66022893930E+02  0.10761999550E+02 -0.39308876324E+03  0.39876773809E+03  0.47000000000E+01 0. -1.
         13    1    6    6    0    0  0.63117981466E+02  0.20903445597E+02  0.10636990600E+03  0.12544078493E+03  0.00000000000E+00 0. -1.
        -14    1    6    6    0    0  0.19256696085E+02  0.67611266870E+02  0.96602278789E+02  0.11947428183E+03  0.00000000000E+00 0.  1.
         -5    1    5    5    0  503  0.49811099407E+02  0.36055695082E+02 -0.22670909443E+02  0.65705547003E+02  0.47000000000E+01 0.  1.
<mgrwt>
<rscale>  2 0.25254121E+03</rscale>
<asrwt>0</asrwt>
<pdfrwt beam="1">  1       21 0.40467611E-01 0.25293599E+03</pdfrwt>
<pdfrwt beam="2">  1       21 0.14826607E+00 0.25293599E+03</pdfrwt>
<totfact> 0.17210731E+03</totfact>
</mgrwt>
</event>
<event>
12    1  0.2769346E-001  0.2385236E+03  0.7546771E-02  0.1121057E+00
         21   -1    0    0  504  503  0.00000000000E+00  0.00000000000E+00  0.20123373252E+03  0.20123373252E+03  0.00000000000E+00 0. -1.
         21   -1    0    0  502  504 -0.00000000000E+00 -0.00000000000E+00 -0.28594021049E+03  0.28594021049E+03  0.00000000000E+00 0. -1.
          6    2    1    2  502    0 -0.10767323455E+03 -0.12375034862E+03 -0.97743537216E+01  0.23872374592E+03  0.17316412634E+03 0.  0.
         24    2    3    3    0    0 -0.80724763637E+02 -0.14581826952E+03 -0.44510748365E+02  0.18930795562E+03  0.77954090023E+02 0.  0.
         -6    2    1    2    0  503  0.10767323455E+03  0.12375034862E+03 -0.74932124250E+02  0.24845019710E+03  0.17089471312E+03 0.  0.
        -24    2    5    5    0    0  0.24361299770E+02  0.12827845676E+03 -0.65315234261E+02  0.16433149042E+03  0.75431581732E+02 0.  0.
          2    1    4    4  501    0 -0.27088092783E+02 -0.94289246865E+02  0.77444492321E+01  0.98408349945E+02  0.00000000000E+00 0. -1.
         -1    1    4    4    0  501 -0.53636670855E+02 -0.51529022655E+02 -0.52255197597E+02  0.90899605676E+02  0.00000000000E+00 0.  1.
          5    1    3    3  502    0 -0.26948470914E+02  0.22067920902E+02  0.34736394644E+02  0.49415790294E+02  0.47000000000E+01 0. -1.
         11    1    6    6    0    0  0.48746870184E+02  0.54786741922E+02 -0.33357125976E+02  0.80563901945E+02  0.00000000000E+00 0. -1.
        -12    1    6    6    0    0 -0.24385570414E+02  0.73491714836E+02 -0.31958108285E+02  0.83767588476E+02  0.00000000000E+00 0.  1.
         -5    1    5    5    0  503  0.83311934781E+02 -0.45281081397E+01 -0.96168899897E+01  0.84118706679E+02  0.47000000000E+01 0.  1.
<mgrwt>
<rscale>  2 0.23811189E+03</rscale>
<asrwt>0</asrwt>
<pdfrwt beam="1">  1       21 0.30959036E-01 0.23852356E+03</pdfrwt>
<pdfrwt beam="2">  1       21 0.43990801E-01 0.23852356E+03</pdfrwt>
<totfact> 0.48713182E+04</totfact>
</mgrwt>
</event>
<event>
12    1  0.2769346E-001  0.1929373E+03  0.7546771E-02  0.1156747E+00
         21   -1    0    0  504  503  0.00000000000E+00  0.00000000000E+00  0.55490752975E+03  0.55490752975E+03  0.00000000000E+00 0.  1.
         21   -1    0    0  502  504 -0.00000000000E+00 -0.00000000000E+00 -0.12451708682E+03  0.12451708682E+03  0.00000000000E+00 0.  1.
          6    2    1    2  502    0  0.75481763077E+02 -0.82868584722E+01 -0.17113916326E+02  0.19369483021E+03  0.17736581558E+03 0.  0.
         24    2    3    3    0    0  0.11259195320E+03  0.23291112131E+02 -0.19357172465E+02  0.14469017087E+03  0.85680345431E+02 0.  0.
         -6    2    1    2    0  503 -0.75481763077E+02  0.82868584722E+01  0.44750435925E+03  0.48572978637E+03  0.17293670875E+03 0.  0.
        -24    2    5    5    0    0 -0.23514308526E+02  0.67096894091E+02  0.20752580993E+03  0.23320051924E+03  0.79123981718E+02 0.  0.
          2    1    4    4  501    0  0.10071707065E+03  0.56453304906E+01 -0.45774209030E+02  0.11077489016E+03  0.00000000000E+00 0. -1.
         -1    1    4    4    0  501  0.11874882542E+02  0.17645781641E+02  0.26417036566E+02  0.33915280716E+02  0.00000000000E+00 0.  1.
          5    1    3    3  502    0 -0.37110190119E+02 -0.31577970603E+02  0.22432561385E+01  0.49004659332E+02  0.47000000000E+01 0. -1.
         11    1    6    6    0    0  0.26841667217E+02  0.37223162684E+02  0.69672827632E+02  0.83428663237E+02  0.00000000000E+00 0. -1.
        -12    1    6    6    0    0 -0.50355975743E+02  0.29873731407E+02  0.13785298230E+03  0.14977185600E+03  0.00000000000E+00 0.  1.
         -5    1    5    5    0  503 -0.51967454551E+02 -0.58810035619E+02  0.23997854932E+03  0.25252926713E+03  0.47000000000E+01 0.  1.
<mgrwt>
<rscale>  2 0.19191327E+03</rscale>
<asrwt>0</asrwt>
<pdfrwt beam="1">  1       21 0.85370388E-01 0.19293730E+03</pdfrwt>
<pdfrwt beam="2">  1       21 0.19156475E-01 0.19293730E+03</pdfrwt>
<totfact> 0.29673480E+04</totfact>
</mgrwt>
</event>
<event>
12    1  0.2769346E-001  0.1964754E+03  0.7546771E-02  0.1153237E+00
         21   -1    0    0  504  503  0.00000000000E+00  0.00000000000E+00  0.11689655223E+03  0.11689655223E+03  0.00000000000E+00 0. -1.
         21   -1    0    0  502  504 -0.00000000000E+00 -0.00000000000E+00 -0.49601872401E+03  0.49601872401E+03  0.00000000000E+00 0. -1.
          6    2    1    2  502    0 -0.36870056280E+02 -0.83598556548E+02 -0.36802096425E+03  0.41612652969E+03  0.17138768589E+03 0.  0.
         24    2    3    3    0    0 -0.78926023818E+02 -0.21192878536E+02 -0.18047884546E+03  0.21399461886E+03  0.80886512516E+02 0.  0.
         -6    2    1    2    0  503  0.36870056280E+02  0.83598556548E+02 -0.11101207532E+02  0.19678874655E+03  0.17393807591E+03 0.  0.
        -24    2    5    5    0    0  0.89185975117E+02  0.76479664025E+02  0.58842767010E+01  0.14112699425E+03  0.77967471586E+02 0.  0.
          2    1    4    4  501    0 -0.45559194446E+02 -0.52283098500E+02 -0.10654048349E+03  0.12712213501E+03  0.00000000000E+00 0. -1.
         -1    1    4    4    0  501 -0.33366829373E+02  0.31090219964E+02 -0.73938361966E+02  0.86872483849E+02  0.00000000000E+00 0.  1.
          5    1    3    3  502    0  0.42055967538E+02 -0.62405678012E+02 -0.18754211879E+03  0.20213191083E+03  0.47000000000E+01 0. -1.
         11    1    6    6    0    0  0.33052294465E+02  0.77870743275E+02 -0.64762249449E+00  0.84597436383E+02  0.00000000000E+00 0. -1.
        -12    1    6    6    0    0  0.56133680652E+02 -0.13910792505E+01  0.65318991955E+01  0.56529557863E+02  0.00000000000E+00 0.  1.
         -5    1    5    5    0  503 -0.52315918837E+02  0.71188925232E+01 -0.16985484233E+02  0.55661752300E+02  0.47000000000E+01 0.  1.
<mgrwt>
<rscale>  2 0.19590938E+03</rscale>
<asrwt>0</asrwt>
<pdfrwt beam="1">  1       21 0.17984085E-01 0.19647538E+03</pdfrwt>
<pdfrwt beam="2">  1       21 0.76310573E-01 0.19647538E+03</pdfrwt>
<totfact> 0.42928404E+04</totfact>
</mgrwt>
</event>
<event>
12    1  0.2769346E-001  0.2274171E+03  0.7546771E-02  0.1128472E+00
         21   -1    0    0  504  503  0.00000000000E+00  0.00000000000E+00  0.63040040786E+03  0.63040040786E+03  0.00000000000E+00 0. -1.
         21   -1    0    0  502  504 -0.00000000000E+00 -0.00000000000E+00 -0.86531800537E+02  0.86531800537E+02  0.00000000000E+00 0. -1.
          6    2    1    2  502    0  0.10157693002E+03  0.10635151728E+03  0.19024456748E+03  0.29649373160E+03  0.17345610247E+03 0.  0.
         24    2    3    3    0    0  0.75379342415E+02  0.71721414675E+02  0.35393412515E+02  0.13560082375E+03  0.79428478315E+02 0.  0.
         -6    2    1    2    0  503 -0.10157693002E+03 -0.10635151728E+03  0.35362403985E+03  0.42043847680E+03  0.17346478971E+03 0.  0.
        -24    2    5    5    0    0 -0.10686358947E+02  0.85866992359E+00  0.17286866926E+03  0.19141945106E+03  0.81503949918E+02 0.  0.
          2    1    4    4  501    0  0.77084904139E+02  0.74346040326E+02  0.73111203135E+01  0.10734462557E+03  0.00000000000E+00 0. -1.
         -1    1    4    4    0  501 -0.17055617241E+01 -0.26246256511E+01  0.28082292201E+02  0.28256198185E+02  0.00000000000E+00 0.  1.
          5    1    3    3  502    0  0.26197587606E+02  0.34630102608E+02  0.15485115496E+03  0.16089290785E+03  0.47000000000E+01 0. -1.
         11    1    6    6    0    0  0.11301477011E+02 -0.25714591225E+02  0.14318562944E+03  0.14591466020E+03  0.00000000000E+00 0. -1.
        -12    1    6    6    0    0 -0.21987835957E+02  0.26573261149E+02  0.29683039820E+02  0.45504790859E+02  0.00000000000E+00 0.  1.
         -5    1    5    5    0  503 -0.90890571074E+02 -0.10721018721E+03  0.18075537059E+03  0.22901902574E+03  0.47000000000E+01 0.  1.
<mgrwt>
<rscale>  2 0.22741547E+03</rscale>
<asrwt>0</asrwt>
<pdfrwt beam="1">  1       21 0.96984675E-01 0.22741713E+03</pdfrwt>
<pdfrwt beam="2">  1       21 0.13312585E-01 0.22741713E+03</pdfrwt>
<totfact> 0.42225161E+04</totfact>
</mgrwt>
</event>
<event>
12    1  0.2769346E-001  0.2284046E+03  0.7546771E-02  0.1130011E+00
         21   -1    0    0  504  503  0.00000000000E+00  0.00000000000E+00  0.40641936205E+03  0.40641936205E+03  0.00000000000E+00 0. -1.
         21   -1    0    0  502  504 -0.00000000000E+00 -0.00000000000E+00 -0.17385844642E+03  0.17385844642E+03  0.00000000000E+00 0.  1.
          6    2    1    2  502    0  0.75358059949E+02  0.12547132755E+03 -0.45053030729E+02  0.22078070208E+03  0.15903600724E+03 0.  0.
         24    2    3    3    0    0  0.10517132449E+02  0.95987642449E+02  0.16940969913E+02  0.12623452458E+03  0.79523085674E+02 0.  0.
         -6    2    1    2    0  503 -0.75358059949E+02 -0.12547132755E+03  0.27761394636E+03  0.35949710638E+03  0.17534758352E+03 0.  0.
        -24    2    5    5    0    0  0.11769262881E+02 -0.37576222727E+02  0.18854285814E+03  0.20694393994E+03  0.75676263505E+02 0.  0.
          4    1    4    4  501    0 -0.31551070786E+02  0.62780411775E+02  0.18354869729E+02  0.72620599097E+02  0.00000000000E+00 0. -1.
         -3    1    4    4    0  501  0.42068203235E+02  0.33207230674E+02 -0.14138998163E+01  0.53613925478E+02  0.00000000000E+00 0.  1.
          5    1    3    3  502    0  0.64840927500E+02  0.29483685098E+02 -0.61994000641E+02  0.94546177509E+02  0.47000000000E+01 0. -1.
         13    1    6    6    0    0 -0.82844158558E+01  0.19168481163E+02  0.81596971437E+02  0.84226646400E+02  0.00000000000E+00 0. -1.
        -14    1    6    6    0    0  0.20053678737E+02 -0.56744703890E+02  0.10694588671E+03  0.12271729354E+03  0.00000000000E+00 0.  1.
         -5    1    5    5    0  503 -0.87127322830E+02 -0.87895104821E+02  0.89071088217E+02  0.15255316644E+03  0.47000000000E+01 0.  1.
<mgrwt>
<rscale>  2 0.22527341E+03</rscale>
<asrwt>0</asrwt>
<pdfrwt beam="1">  1       21 0.62526055E-01 0.22840461E+03</pdfrwt>
<pdfrwt beam="2">  1       21 0.26747453E-01 0.22840461E+03</pdfrwt>
<totfact> 0.30965680E+04</totfact>
</mgrwt>
</event>
<event>
12    1  0.2769346E-001  0.3116712E+03  0.7546771E-02  0.1079563E+00
         21   -1    0    0  504  503  0.00000000000E+00  0.00000000000E+00  0.14372175689E+04  0.14372175689E+04  0.00000000000E+00 0. -1.
         21   -1    0    0  502  504 -0.00000000000E+00 -0.00000000000E+00 -0.69507772506E+02  0.69507772506E+02  0.00000000000E+00 0. -1.
          6    2    1    2  502    0  0.21466076105E+03  0.14481127466E+03  0.55790590234E+03  0.63906020559E+03  0.17346297271E+03 0.  0.
         24    2    3    3    0    0  0.19976620809E+03  0.16098124804E+03  0.42213106761E+03  0.50143676466E+03  0.86155038149E+02 0.  0.
         -6    2    1    2    0  503 -0.21466076105E+03 -0.14481127466E+03  0.80980389402E+03  0.86766513578E+03  0.17323652467E+03 0.  0.
        -24    2    5    5    0    0 -0.19067930919E+03 -0.14625505730E+03  0.53487850224E+03  0.59165199191E+03  0.78790396870E+02 0.  0.
          2    1    4    4  501    0  0.19104900998E+03  0.16511558666E+03  0.36707143021E+03  0.44553823186E+03  0.00000000000E+00 0. -1.
         -1    1    4    4    0  501  0.87171981109E+01 -0.41343386218E+01  0.55059637405E+02  0.55898532806E+02  0.00000000000E+00 0.  1.
          5    1    3    3  502    0  0.14894552956E+02 -0.16169973378E+02  0.13577483473E+03  0.13762344092E+03  0.47000000000E+01 0. -1.
         13    1    6    6    0    0 -0.11565588911E+03 -0.13218502735E+03  0.39534158757E+03  0.43260159154E+03  0.00000000000E+00 0. -1.
        -14    1    6    6    0    0 -0.75023420080E+02 -0.14070029951E+02  0.13953691466E+03  0.15905040037E+03  0.00000000000E+00 0.  1.
         -5    1    5    5    0  503 -0.23981451861E+02  0.14437826441E+01  0.27492539179E+03  0.27601314387E+03  0.47000000000E+01 0.  1.
<mgrwt>
<rscale>  2 0.31163972E+03</rscale>
<asrwt>0</asrwt>
<pdfrwt beam="1">  1       21 0.22111037E+00 0.31167122E+03</pdfrwt>
<pdfrwt beam="2">  1       21 0.10693505E-01 0.31167122E+03</pdfrwt>
<totfact> 0.65357313E+03</totfact>
</mgrwt>
</event>
<event>
12    1  0.2769346E-001  0.2232279E+03  0.7546771E-02  0.1132225E+00
         21   -1    0    0  504  503  0.00000000000E+00  0.00000000000E+00  0.12867705043E+03  0.12867705043E+03  0.00000000000E+00 0. -1.
         21   -1    0    0  502  504 -0.00000000000E+00 -0.00000000000E+00 -0.54917006007E+03  0.54917006007E+03  0.00000000000E+00 0.  1.
          6    2    1    2  502    0  0.66760568534E+02 -0.12547150158E+03 -0.21104159116E+02  0.22030788625E+03  0.16700331731E+03 0.  0.
         24    2    3    3    0    0 -0.49058435779E+01 -0.87156039688E+01  0.20294210362E+01  0.81292538960E+02  0.80649422113E+02 0.  0.
         -6    2    1    2    0  503 -0.66760568534E+02  0.12547150158E+03 -0.39938885052E+03  0.45753922425E+03  0.17213545998E+03 0.  0.
        -24    2    5    5    0    0 -0.53671480944E+02  0.41832070544E+02 -0.33439938693E+03  0.35070945773E+03  0.80892668169E+02 0.  0.
          4    1    4    4  501    0 -0.26700011664E+02 -0.34980655172E+02  0.12224764089E+02  0.45672548825E+02  0.00000000000E+00 0. -1.
         -3    1    4    4    0  501  0.21794168086E+02  0.26265051203E+02 -0.10195343053E+02  0.35619990135E+02  0.00000000000E+00 0.  1.
          5    1    3    3  502    0  0.71666412112E+02 -0.11675589761E+03 -0.23133580153E+02  0.13901534729E+03  0.47000000000E+01 0. -1.
         13    1    6    6    0    0 -0.28778789451E+02  0.51329317239E+01 -0.25951640771E+02  0.39090323215E+02  0.00000000000E+00 0. -1.
        -14    1    6    6    0    0 -0.24892691493E+02  0.36699138820E+02 -0.30844774616E+03  0.31161913451E+03  0.00000000000E+00 0.  1.
         -5    1    5    5    0  503 -0.13089087590E+02  0.83639431034E+02 -0.64989463589E+02  0.10682976652E+03  0.47000000000E+01 0.  1.
<mgrwt>
<rscale>  2 0.22223803E+03</rscale>
<asrwt>0</asrwt>
<pdfrwt beam="1">  1       21 0.19796469E-01 0.22322788E+03</pdfrwt>
<pdfrwt beam="2">  1       21 0.84487702E-01 0.22322788E+03</pdfrwt>
<totfact> 0.28108609E+04</totfact>
</mgrwt>
</event>
<event>
12    1  0.2769346E-001  0.2066958E+03  0.7546771E-02  0.1144229E+00
         21   -1    0    0  504  503  0.00000000000E+00  0.00000000000E+00  0.39769602096E+03  0.39769602096E+03  0.00000000000E+00 0. -1.
         21   -1    0    0  502  504 -0.00000000000E+00 -0.00000000000E+00 -0.11465692214E+03  0.11465692214E+03  0.00000000000E+00 0. -1.
          6    2    1    2  502    0 -0.11290051508E+03  0.11044532285E+02  0.76994920305E+02  0.22057057534E+03  0.17278499054E+03 0.  0.
         24    2    3    3    0    0 -0.14074158719E+02  0.32500564910E+02  0.80794582219E+02  0.11926145691E+03  0.80256849708E+02 0.  0.
         -6    2    1    2    0  503  0.11290051508E+03 -0.11044532285E+02  0.20604417851E+03  0.29178236776E+03  0.17266800121E+03 0.  0.
        -24    2    5    5    0    0  0.48352376301E+02  0.72102985211E+01  0.20393268038E+03  0.22450496077E+03  0.80149850823E+02 0.  0.
          2    1    4    4  501    0 -0.29467171876E+02  0.49868009912E+02  0.34353185048E+02  0.67344442636E+02  0.00000000000E+00 0. -1.
         -1    1    4    4    0  501  0.15393013156E+02 -0.17367445002E+02  0.46441397171E+02  0.51917014274E+02  0.00000000000E+00 0.  1.
          5    1    3    3  502    0 -0.98826356357E+02 -0.21456032625E+02 -0.37996619135E+01  0.10130911843E+03  0.47000000000E+01 0. -1.
         13    1    6    6    0    0  0.61929506684E+00 -0.26498839960E+02  0.25630908969E+02  0.36871608863E+02  0.00000000000E+00 0. -1.
        -14    1    6    6    0    0  0.47733081234E+02  0.33709138481E+02  0.17830177141E+03  0.18763335191E+03  0.00000000000E+00 0.  1.
         -5    1    5    5    0  503  0.64548138775E+02 -0.18254830806E+02  0.21114981374E+01  0.67277406991E+02  0.47000000000E+01 0.  1.
<mgrwt>
<rscale>  2 0.20667137E+03</rscale>
<asrwt>0</asrwt>
<pdfrwt beam="1">  1       21 0.61184002E-01 0.20669582E+03</pdfrwt>
<pdfrwt beam="2">  1       21 0.17639527E-01 0.20669582E+03</pdfrwt>
<totfact> 0.71959081E+04</totfact>
</mgrwt>
</event>
<event>
12    1  0.2769346E-001  0.2329025E+03  0.7546771E-02  0.1125098E+00
         21   -1    0    0  504  503  0.00000000000E+00  0.00000000000E+00  0.23974557707E+03  0.23974557707E+03  0.00000000000E+00 0. -1.
         21   -1    0    0  502  504 -0.00000000000E+00 -0.00000000000E+00 -0.24751945178E+03  0.24751945178E+03  0.00000000000E+00 0. -1.
          6    2    1    2  502    0 -0.34308012257E+02  0.15016091399E+03 -0.79659444159E+02  0.24352107973E+03  0.17097236453E+03 0.  0.
         24    2    3    3    0    0  0.32910453161E+02  0.28568481119E+02 -0.40933293591E+02  0.99212914462E+02  0.79173302515E+02 0.  0.
         -6    2    1    2    0  503  0.34308012257E+02 -0.15016091399E+03  0.71885569446E+02  0.24374394912E+03  0.17469469895E+03 0.  0.
        -24    2    5    5    0    0 -0.19060357742E+02 -0.51148102533E+02  0.87401638757E+02  0.13010171157E+03  0.79422813255E+02 0.  0.
          2    1    4    4  501    0  0.17092798176E+02  0.86948146926E+01  0.23278198011E+02  0.30160206476E+02  0.00000000000E+00 0. -1.
         -1    1    4    4    0  501  0.15817654985E+02  0.19873666426E+02 -0.64211491602E+02  0.69052707986E+02  0.00000000000E+00 0.  1.
          5    1    3    3  502    0 -0.67218465419E+02  0.12159243287E+03 -0.38726150568E+02  0.14430816526E+03  0.47000000000E+01 0. -1.
         13    1    6    6    0    0  0.73436650988E+01 -0.26213127963E+02  0.89672794168E+02  0.93713753038E+02  0.00000000000E+00 0. -1.
        -14    1    6    6    0    0 -0.26404022841E+02 -0.24934974570E+02 -0.22711554106E+01  0.36387958529E+02  0.00000000000E+00 0.  1.
         -5    1    5    5    0  503  0.53368369999E+02 -0.99012811455E+02 -0.15516069312E+02  0.11364223755E+03  0.47000000000E+01 0.  1.
<mgrwt>
<rscale>  2 0.23220466E+03</rscale>
<asrwt>0</asrwt>
<pdfrwt beam="1">  1       21 0.36883935E-01 0.23290251E+03</pdfrwt>
<pdfrwt beam="2">  1       21 0.38079916E-01 0.23290251E+03</pdfrwt>
<totfact> 0.46265105E+04</totfact>
</mgrwt>
</event>
<event>
12    1  0.2769346E-001  0.1862501E+03  0.7546771E-02  0.1162058E+00
         21   -1    0    0  504  503  0.00000000000E+00  0.00000000000E+00  0.85777134696E+02  0.85777134696E+02  0.00000000000E+00 0. -1.
         21   -1    0    0  502  504 -0.00000000000E+00 -0.00000000000E+00 -0.43525108286E+03  0.43525108286E+03  0.00000000000E+00 0. -1.
          6    2    1    2  502    0  0.41771620023E+02 -0.50813910514E+02 -0.24617257889E+03  0.30869082908E+03  0.17424743216E+03 0.  0.
         24    2    3    3    0    0 -0.32137870120E+02 -0.40831133882E+02 -0.19726553139E+03  0.21938093120E+03  0.80711082947E+02 0.  0.
         -6    2    1    2    0  503 -0.41771620023E+02  0.50813910514E+02 -0.10330136927E+03  0.21233738848E+03  0.17346201864E+03 0.  0.
        -24    2    5    5    0    0 -0.46190930420E+02 -0.29647561211E+02 -0.85990289323E+02  0.12978230247E+03  0.80228026513E+02 0.  0.
          4    1    4    4  501    0 -0.23073552161E+02  0.71071602529E-01 -0.63622642793E+01  0.23934750202E+02  0.00000000000E+00 0. -1.
         -3    1    4    4    0  501 -0.90643179588E+01 -0.40902205484E+02 -0.19090326711E+03  0.19544618100E+03  0.00000000000E+00 0.  1.
          5    1    3    3  502    0  0.73909490143E+02 -0.99827766321E+01 -0.48907047501E+02  0.89309897871E+02  0.47000000000E+01 0. -1.
         13    1    6    6    0    0 -0.20150074287E+01 -0.90489843452E+01  0.15006303744E+02  0.17638977427E+02  0.00000000000E+00 0. -1.
        -14    1    6    6    0    0 -0.44175922991E+02 -0.20598576866E+02 -0.10099659307E+03  0.11214332504E+03  0.00000000000E+00 0.  1.
         -5    1    5    5    0  503  0.44193103967E+01  0.80461471725E+02 -0.17311079946E+02  0.82555086006E+02  0.47000000000E+01 0.  1.
<mgrwt>
<rscale>  2 0.18606615E+03</rscale>
<asrwt>0</asrwt>
<pdfrwt beam="1">  1       21 0.13196482E-01 0.18625007E+03</pdfrwt>
<pdfrwt beam="2">  1       21 0.66961707E-01 0.18625007E+03</pdfrwt>
<totfact> 0.10130588E+05</totfact>
</mgrwt>
</event>
<event>
12    1  0.2769346E-001  0.2911769E+03  0.7546771E-02  0.1089741E+00
         21   -1    0    0  504  503  0.00000000000E+00  0.00000000000E+00  0.44134957440E+03  0.44134957440E+03  0.00000000000E+00 0. -1.
         21   -1    0    0  502  504 -0.00000000000E+00 -0.00000000000E+00 -0.95876657978E+03  0.95876657978E+03  0.00000000000E+00 0. -1.
          6    2    1    2  502    0  0.18057570525E+03 -0.14826501951E+03 -0.88473080307E+03  0.93141430598E+03  0.17376396103E+03 0.  0.
         24    2    3    3    0    0  0.17210767841E+02 -0.51425266085E+02 -0.37876964395E+03  0.39096558024E+03  0.80292423266E+02 0.  0.
         -6    2    1    2    0  503 -0.18057570525E+03  0.14826501951E+03  0.36731379769E+03  0.46870184820E+03  0.17370059066E+03 0.  0.
        -24    2    5    5    0    0 -0.39480639825E+02  0.11418032663E+03  0.18388004998E+03  0.23473686455E+03  0.81814759597E+02 0.  0.
          2    1    4    4  501    0  0.23779782540E+02 -0.69140223961E+02 -0.23925874382E+03  0.25018112463E+03  0.00000000000E+00 0. -1.
         -1    1    4    4    0  501 -0.65690146989E+01  0.17714957876E+02 -0.13951090012E+03  0.14078445560E+03  0.00000000000E+00 0.  1.
          5    1    3    3  502    0  0.16336493740E+03 -0.96839753430E+02 -0.50596115912E+03  0.54044872574E+03  0.47000000000E+01 0. -1.
         13    1    6    6    0    0 -0.57735501522E+02  0.99387519303E+02  0.17550370562E+03  0.20979232068E+03  0.00000000000E+00 0. -1.
        -14    1    6    6    0    0  0.18254861697E+02  0.14792807326E+02  0.83763443615E+01  0.24944543873E+02  0.00000000000E+00 0.  1.
         -5    1    5    5    0  503 -0.14109506542E+03  0.34084692885E+02  0.18343374771E+03  0.23396498365E+03  0.47000000000E+01 0.  1.
<mgrwt>
<rscale>  2 0.29116750E+03</rscale>
<asrwt>0</asrwt>
<pdfrwt beam="1">  1       21 0.67899936E-01 0.29117695E+03</pdfrwt>
<pdfrwt beam="2">  1       21 0.14750255E+00 0.29117695E+03</pdfrwt>
<totfact> 0.56570204E+02</totfact>
</mgrwt>
</event>
<event>
12    1  0.2769346E-001  0.1779611E+03  0.7546771E-02  0.1171566E+00
         21   -1    0    0  504  503  0.00000000000E+00  0.00000000000E+00  0.15445671296E+03  0.15445671296E+03  0.00000000000E+00 0. -1.
         21   -1    0    0  502  504 -0.00000000000E+00 -0.00000000000E+00 -0.20926444654E+03  0.20926444654E+03  0.00000000000E+00 0. -1.
          6    2    1    2  502    0  0.40332180181E+02  0.47013270162E+01 -0.70943516360E+02  0.18503006955E+03  0.16599505080E+03 0.  0.
         24    2    3    3    0    0  0.89285607845E+02  0.10429033611E+02 -0.60724204235E+02  0.13447545509E+03  0.79470337426E+02 0.  0.
         -6    2    1    2    0  503 -0.40332180181E+02 -0.47013270162E+01  0.16135782774E+02  0.17869108995E+03  0.17326671610E+03 0.  0.
        -24    2    5    5    0    0  0.23660709207E+02 -0.47299449346E+02 -0.11849451187E+02  0.96746271700E+02  0.80139656387E+02 0.  0.
          4    1    4    4  501    0  0.10352275851E+03  0.14935504395E+02 -0.56857644622E+02  0.11904966431E+03  0.00000000000E+00 0. -1.
         -3    1    4    4    0  501 -0.14237150661E+02 -0.45064707843E+01 -0.38665596135E+01  0.15425790778E+02  0.00000000000E+00 0.  1.
          5    1    3    3  502    0 -0.48953427663E+02 -0.57277065943E+01 -0.10219312125E+02  0.50554614459E+02  0.47000000000E+01 0. -1.
         13    1    6    6    0    0 -0.18243441033E+02 -0.10424219719E+02  0.22833444652E+02  0.31029883856E+02  0.00000000000E+00 0. -1.
        -14    1    6    6    0    0  0.41904150240E+02 -0.36875229627E+02 -0.34682895839E+02  0.65716387843E+02  0.00000000000E+00 0.  1.
         -5    1    5    5    0  503 -0.63992889388E+02  0.42598122330E+02  0.27985233961E+02  0.81944818250E+02  0.47000000000E+01 0.  1.
<mgrwt>
<rscale>  2 0.17616615E+03</rscale>
<asrwt>0</asrwt>
<pdfrwt beam="1">  1       21 0.23762571E-01 0.17796107E+03</pdfrwt>
<pdfrwt beam="2">  1       21 0.32194530E-01 0.17796107E+03</pdfrwt>
<totfact> 0.15556904E+05</totfact>
</mgrwt>
</event>
<event>
12    1  0.2769346E-001  0.2193166E+03  0.7546771E-02  0.1134438E+00
         21   -1    0    0  504  503  0.00000000000E+00  0.00000000000E+00  0.15123896351E+03  0.15123896351E+03  0.00000000000E+00 0. -1.
         21   -1    0    0  502  504 -0.00000000000E+00 -0.00000000000E+00 -0.42302029333E+03  0.42302029333E+03  0.00000000000E+00 0. -1.
          6    2    1    2  502    0 -0.12597082381E+03 -0.46568812210E+02 -0.27921807950E+03  0.35505280693E+03  0.17338528504E+03 0.  0.
         24    2    3    3    0    0  0.32540444812E+01 -0.36958776575E+02 -0.91667752831E+02  0.12704264399E+03  0.79751592537E+02 0.  0.
         -6    2    1    2    0  503  0.12597082381E+03  0.46568812210E+02  0.74367496822E+01  0.21920644991E+03  0.17308627824E+03 0.  0.
        -24    2    5    5    0    0  0.13709036483E+03  0.42166150557E+02 -0.40569291852E+02  0.16951039729E+03  0.80722704140E+02 0.  0.
          4    1    4    4  501    0  0.87554763948E+01 -0.24745896000E+02 -0.10494770521E+03  0.10818058312E+03  0.00000000000E+00 0. -1.
         -3    1    4    4    0  501 -0.55014319136E+01 -0.12212880575E+02  0.13279952380E+02  0.18862060870E+02  0.00000000000E+00 0.  1.
          5    1    3    3  502    0 -0.12922486829E+03 -0.96100356353E+01 -0.18755032667E+03  0.22801016294E+03  0.47000000000E+01 0. -1.
         13    1    6    6    0    0  0.13183298159E+03  0.16141275571E+02 -0.16802207124E+02  0.13387602465E+03  0.00000000000E+00 0. -1.
        -14    1    6    6    0    0  0.52573832427E+01  0.26024874986E+02 -0.23767084728E+02  0.35634372635E+02  0.00000000000E+00 0.  1.
         -5    1    5    5    0  503 -0.11119541027E+02  0.44026616529E+01  0.48006041535E+02  0.49696052621E+02  0.47000000000E+01 0.  1.
<mgrwt>
<rscale>  2 0.21925747E+03</rscale>
<asrwt>0</asrwt>
<pdfrwt beam="1">  1       21 0.23267533E-01 0.21931657E+03</pdfrwt>
<pdfrwt beam="2">  1       21 0.65080044E-01 0.21931657E+03</pdfrwt>
<totfact> 0.37230057E+04</totfact>
</mgrwt>
</event>
<event>
12    1  0.2769346E-001  0.1920922E+03  0.7546771E-02  0.1156626E+00
         21   -1    0    0  504  503  0.00000000000E+00  0.00000000000E+00  0.73523071228E+02  0.73523071228E+02  0.00000000000E+00 0. -1.
         21   -1    0    0  502  504 -0.00000000000E+00 -0.00000000000E+00 -0.50144374921E+03  0.50144374921E+03  0.00000000000E+00 0. -1.
          6    2    1    2  502    0 -0.64942183416E+02 -0.52766246016E+02 -0.21213729977E+03  0.28606912869E+03  0.17271811870E+03 0.  0.
         24    2    3    3    0    0 -0.33486288507E+02  0.36816517253E+02 -0.74747997295E+02  0.11899891819E+03  0.78081316398E+02 0.  0.
         -6    2    1    2    0  503  0.64942183416E+02  0.52766246016E+02 -0.21578337821E+03  0.28889769175E+03  0.17290935800E+03 0.  0.
        -24    2    5    5    0    0  0.66220108605E+02  0.70185208600E+02 -0.23378391082E+03  0.26337980539E+03  0.73504684475E+02 0.  0.
          2    1    4    4  501    0  0.22160769093E+02 -0.52756346052E+01 -0.19910826372E+02  0.30255132029E+02  0.00000000000E+00 0. -1.
         -1    1    4    4    0  501 -0.55647057600E+02  0.42092151858E+02 -0.54837170923E+02  0.88743786163E+02  0.00000000000E+00 0.  1.
          5    1    3    3  502    0 -0.31455894909E+02 -0.89582763270E+02 -0.13738930248E+03  0.16707021050E+03  0.47000000000E+01 0. -1.
         11    1    6    6    0    0  0.78553024026E+01  0.44531543364E+01  0.39938486647E+01  0.98735599728E+01  0.00000000000E+00 0. -1.
        -12    1    6    6    0    0  0.58364806202E+02  0.65732054264E+02 -0.23777775948E+03  0.25350624542E+03  0.00000000000E+00 0.  1.
         -5    1    5    5    0  503 -0.12779251886E+01 -0.17418962584E+02  0.18000532608E+02  0.25517886363E+02  0.47000000000E+01 0.  1.
<mgrwt>
<rscale>  2 0.19204915E+03</rscale>
<asrwt>0</asrwt>
<pdfrwt beam="1">  1       21 0.11311241E-01 0.19209219E+03</pdfrwt>
<pdfrwt beam="2">  1       21 0.77145195E-01 0.19209219E+03</pdfrwt>
<totfact> 0.97366804E+04</totfact>
</mgrwt>
</event>
<event>
12    1  0.2769346E-001  0.1741767E+03  0.7546771E-02  0.1173790E+00
         21   -1    0    0  504  503  0.00000000000E+00  0.00000000000E+00  0.16536005479E+04  0.16536005479E+04  0.00000000000E+00 0. -1.
         21   -1    0    0  502  504 -0.00000000000E+00 -0.00000000000E+00 -0.30281897329E+02  0.30281897329E+02  0.00000000000E+00 0. -1.
          6    2    1    2  502    0 -0.10257093252E+02 -0.80027172855E-01  0.27970556500E+03  0.32902685848E+03  0.17296894561E+03 0.  0.
         24    2    3    3    0    0 -0.46298725916E+02 -0.22780318316E+02  0.26814029329E+03  0.28464050908E+03  0.80364716142E+02 0.  0.
         -6    2    1    2    0  503  0.10257093252E+02  0.80027172855E-01  0.13436130855E+04  0.13548555867E+04  0.17387444566E+03 0.  0.
        -24    2    5    5    0    0 -0.17878461547E+02 -0.35367379672E+02  0.38961368432E+03  0.39977178116E+03  0.80300455010E+02 0.  0.
          4    1    4    4  501    0 -0.44785894625E+02  0.12000124216E+02  0.73435410800E+02  0.86847791555E+02  0.00000000000E+00 0. -1.
         -3    1    4    4    0  501 -0.15128312909E+01 -0.34780442532E+02  0.19470488249E+03  0.19779271753E+03  0.00000000000E+00 0.  1.
          5    1    3    3  502    0  0.36041632664E+02  0.22700291143E+02  0.11565271704E+02  0.44386349395E+02  0.47000000000E+01 0. -1.
         13    1    6    6    0    0 -0.18950398545E+02  0.11147445376E+02  0.27773758110E+03  0.27860643764E+03  0.00000000000E+00 0. -1.
        -14    1    6    6    0    0  0.10719369980E+01 -0.46514825048E+02  0.11187610322E+03  0.12116534352E+03  0.00000000000E+00 0.  1.
         -5    1    5    5    0  503  0.28135554798E+02  0.35447406845E+02  0.95399940121E+03  0.95508380554E+03  0.47000000000E+01 0.  1.
<mgrwt>
<rscale>  2 0.17395032E+03</rscale>
<asrwt>0</asrwt>
<pdfrwt beam="1">  1       21 0.25440001E+00 0.17417674E+03</pdfrwt>
<pdfrwt beam="2">  1       21 0.46587547E-02 0.17417674E+03</pdfrwt>
<totfact> 0.19321720E+04</totfact>
</mgrwt>
</event>
<event>
12    1  0.2769346E-001  0.2276162E+03  0.7546771E-02  0.1128839E+00
         21   -1    0    0  504  503  0.00000000000E+00  0.00000000000E+00  0.14505395606E+03  0.14505395606E+03  0.00000000000E+00 0. -1.
         21   -1    0    0  502  504 -0.00000000000E+00 -0.00000000000E+00 -0.52306260305E+03  0.52306260305E+03  0.00000000000E+00 0.  1.
          6    2    1    2  502    0  0.96646011778E+02  0.11508612440E+03 -0.38043529763E+03  0.44332851545E+03  0.17094996141E+03 0.  0.
         24    2    3    3    0    0  0.65012733429E+02  0.16325466845E+02 -0.10264933620E+03  0.14677925791E+03  0.80709899977E+02 0.  0.
         -6    2    1    2    0  503 -0.96646011778E+02 -0.11508612440E+03  0.24266506358E+01  0.22478804366E+03  0.16714816277E+03 0.  0.
        -24    2    5    5    0    0 -0.85323292830E+02 -0.14743725049E+03  0.98476531678E+01  0.18940498836E+03  0.82215972982E+02 0.  0.
          2    1    4    4  501    0  0.33313042045E+02 -0.26537130796E+02 -0.16925831367E+02  0.45830795854E+02  0.00000000000E+00 0. -1.
         -1    1    4    4    0  501  0.31699691384E+02  0.42862597640E+02 -0.85723504834E+02  0.10094846206E+03  0.00000000000E+00 0.  1.
          5    1    3    3  502    0  0.31633278349E+02  0.98760657557E+02 -0.27778596143E+03  0.29654925754E+03  0.47000000000E+01 0. -1.
         13    1    6    6    0    0 -0.41064583422E+02 -0.81461698871E+01  0.10850602615E+02  0.43248071316E+02  0.00000000000E+00 0. -1.
        -14    1    6    6    0    0 -0.44258709409E+02 -0.13929108060E+03 -0.10029494470E+01  0.14615691705E+03  0.00000000000E+00 0.  1.
         -5    1    5    5    0  503 -0.11322718948E+02  0.32351126086E+02 -0.74210025320E+01  0.35383055294E+02  0.47000000000E+01 0.  1.
<mgrwt>
<rscale>  2 0.22690257E+03</rscale>
<asrwt>0</asrwt>
<pdfrwt beam="1">  1       21 0.22315993E-01 0.22761625E+03</pdfrwt>
<pdfrwt beam="2">  1       21 0.80471170E-01 0.22761625E+03</pdfrwt>
<totfact> 0.25012160E+04</totfact>
</mgrwt>
</event>
<event>
12    1  0.2769346E-001  0.1841090E+03  0.7546771E-02  0.1165258E+00
         21   -1    0    0  504  503  0.00000000000E+00  0.00000000000E+00  0.11224304218E+03  0.11224304218E+03  0.00000000000E+00 0. -1.
         21   -1    0    0  502  504 -0.00000000000E+00 -0.00000000000E+00 -0.30891517081E+03  0.30891517081E+03  0.00000000000E+00 0.  1.
          6    2    1    2  502    0 -0.59107616457E+02 -0.14768640115E+02 -0.48521093356E+02  0.18484301821E+03  0.16763299742E+03 0.  0.
         24    2    3    3    0    0 -0.21488702977E+02 -0.41439152884E+02  0.26498430800E+02  0.96658450920E+02  0.80384834092E+02 0.  0.
         -6    2    1    2    0  503  0.59107616457E+02  0.14768640115E+02 -0.14815103527E+03  0.23631519478E+03  0.17373634905E+03 0.  0.
        -24    2    5    5    0    0 -0.84212921903E+01 -0.10104310718E+02 -0.14187375102E+03  0.16392519904E+03  0.81057352507E+02 0.  0.
          4    1    4    4  501    0 -0.31149196639E+01  0.13610351674E+01  0.46027348378E+02  0.46152702413E+02  0.00000000000E+00 0. -1.
         -3    1    4    4    0  501 -0.18373783313E+02 -0.42800188052E+02 -0.19528917578E+02  0.50505748508E+02  0.00000000000E+00 0.  1.
          5    1    3    3  502    0 -0.37618913480E+02  0.26670512770E+02 -0.75019524156E+02  0.88184567286E+02  0.47000000000E+01 0. -1.
         13    1    6    6    0    0 -0.27447025677E+02 -0.38571925022E+02 -0.72941696739E+02  0.86957597377E+02  0.00000000000E+00 0. -1.
        -14    1    6    6    0    0  0.19025733486E+02  0.28467614304E+02 -0.68932054279E+02  0.76967601664E+02  0.00000000000E+00 0.  1.
         -5    1    5    5    0  503  0.67528908648E+02  0.24872950833E+02 -0.62772842530E+01  0.72389995744E+02  0.47000000000E+01 0.  1.
<mgrwt>
<rscale>  2 0.18265490E+03</rscale>
<asrwt>0</asrwt>
<pdfrwt beam="1">  1       21 0.17268160E-01 0.18410905E+03</pdfrwt>
<pdfrwt beam="2">  1       21 0.47525411E-01 0.18410905E+03</pdfrwt>
<totfact> 0.12871833E+05</totfact>
</mgrwt>
</event>
<event>
12    1  0.2769346E-001  0.2080861E+03  0.7546771E-02  0.1143229E+00
         21   -1    0    0  504  503  0.00000000000E+00  0.00000000000E+00  0.48958117557E+03  0.48958117557E+03  0.00000000000E+00 0. -1.
         21   -1    0    0  502  504 -0.00000000000E+00 -0.00000000000E+00 -0.97104791007E+02  0.97104791007E+02  0.00000000000E+00 0. -1.
          6    2    1    2  502    0 -0.62201343420E+02  0.95699952305E+02  0.28502778475E+03  0.35249583454E+03  0.17316173738E+03 0.  0.
         24    2    3    3    0    0  0.27516126186E+02  0.10971025350E+02  0.59905002375E+02  0.95726341492E+02  0.68537745428E+02 0.  0.
         -6    2    1    2    0  503  0.62201343420E+02 -0.95699952305E+02  0.10744859981E+03  0.23419013203E+03  0.17398944895E+03 0.  0.
        -24    2    5    5    0    0  0.72617098790E+02 -0.11822078422E+03  0.12501579991E+03  0.20342696657E+03  0.80648519158E+02 0.  0.
          2    1    4    4  501    0  0.44692414069E+01 -0.77493772795E+01  0.64989403282E+02  0.65602206563E+02  0.00000000000E+00 0. -1.
         -1    1    4    4    0  501  0.23046884779E+02  0.18720402630E+02 -0.50844009071E+01  0.30124134929E+02  0.00000000000E+00 0.  1.
          5    1    3    3  502    0 -0.89717469606E+02  0.84728926955E+02  0.22512278238E+03  0.25676949305E+03  0.47000000000E+01 0. -1.
         11    1    6    6    0    0  0.83436533646E+02 -0.10444418092E+03  0.81615483776E+02  0.15662480412E+03  0.00000000000E+00 0. -1.
        -12    1    6    6    0    0 -0.10819434855E+02 -0.13776603299E+02  0.43400316133E+02  0.46802162445E+02  0.00000000000E+00 0.  1.
         -5    1    5    5    0  503 -0.10415755371E+02  0.22520831915E+02 -0.17567200100E+02  0.30763165465E+02  0.47000000000E+01 0.  1.
<mgrwt>
<rscale>  2 0.20791297E+03</rscale>
<asrwt>0</asrwt>
<pdfrwt beam="1">  1       21 0.75320179E-01 0.20808608E+03</pdfrwt>
<pdfrwt beam="2">  1       21 0.14939199E-01 0.20808608E+03</pdfrwt>
<totfact> 0.61788627E+04</totfact>
</mgrwt>
</event>
<event>
12    1  0.2769346E-001  0.2054533E+03  0.7546771E-02  0.1145343E+00
         21   -1    0    0  504  503  0.00000000000E+00  0.00000000000E+00  0.22706329878E+03  0.22706329878E+03  0.00000000000E+00 0.  1.
         21   -1    0    0  502  504 -0.00000000000E+00 -0.00000000000E+00 -0.24474504859E+03  0.24474504859E+03  0.00000000000E+00 0.  1.
          6    2    1    2  502    0 -0.10855277176E+03  0.34002174910E+00 -0.12504820589E+03  0.23999244290E+03  0.17371096390E+03 0.  0.
         24    2    3    3    0    0 -0.92562543341E+02 -0.59651832792E+02 -0.58315592299E+02  0.14872338060E+03  0.81189716385E+02 0.  0.
         -6    2    1    2    0  503  0.10855277176E+03 -0.34002174910E+00  0.10736645608E+03  0.23181590447E+03  0.17443405000E+03 0.  0.
        -24    2    5    5    0    0  0.12013998006E+03  0.12690768106E+02  0.22632677671E+02  0.14517891419E+03  0.77265830887E+02 0.  0.
          2    1    4    4  501    0 -0.29267423718E+02  0.81450207395E+01  0.11656464461E+02  0.32539155147E+02  0.00000000000E+00 0. -1.
         -1    1    4    4    0  501 -0.63295119623E+02 -0.67796853532E+02 -0.69972056760E+02  0.11618422545E+03  0.00000000000E+00 0.  1.
          5    1    3    3  502    0 -0.15990228422E+02  0.59991854541E+02 -0.66732613594E+02  0.91269062301E+02  0.47000000000E+01 0. -1.
         11    1    6    6    0    0  0.45347223091E+02 -0.27341159507E+02 -0.10719108194E+02  0.54026002311E+02  0.00000000000E+00 0. -1.
        -12    1    6    6    0    0  0.74792756970E+02  0.40031927613E+02  0.33351785865E+02  0.91152911879E+02  0.00000000000E+00 0.  1.
         -5    1    5    5    0  503 -0.11587208298E+02 -0.13030789855E+02  0.84733778411E+02  0.86636990277E+02  0.47000000000E+01 0.  1.
<mgrwt>
<rscale>  2 0.20529974E+03</rscale>
<asrwt>0</asrwt>
<pdfrwt beam="1">  1       21 0.34932815E-01 0.20545330E+03</pdfrwt>
<pdfrwt beam="2">  1       21 0.37653084E-01 0.20545330E+03</pdfrwt>
<totfact> 0.53408267E+04</totfact>
</mgrwt>
</event>
<event>
12    1  0.2769346E-001  0.1885744E+03  0.7546771E-02  0.1160923E+00
         21   -1    0    0  504  503  0.00000000000E+00  0.00000000000E+00  0.28833542036E+03  0.28833542036E+03  0.00000000000E+00 0.  1.
         21   -1    0    0  502  504 -0.00000000000E+00 -0.00000000000E+00 -0.27158678226E+03  0.27158678226E+03  0.00000000000E+00 0.  1.
          6    2    1    2  502    0 -0.70989096923E+02  0.16884473447E+02 -0.20069537481E+03  0.27538873148E+03  0.17388439445E+03 0.  0.
         24    2    3    3    0    0 -0.53223780856E+02 -0.42841076763E+02 -0.18177734743E+03  0.21009914914E+03  0.80190521411E+02 0.  0.
         -6    2    1    2    0  503  0.70989096923E+02 -0.16884473447E+02  0.21744401290E+03  0.28453347114E+03  0.16838307554E+03 0.  0.
        -24    2    5    5    0    0 -0.21250831963E+02  0.17115124850E+02  0.10542425730E+03  0.13542045088E+03  0.80497820668E+02 0.  0.
          4    1    4    4  501    0 -0.26902417545E+02 -0.63991476031E+02 -0.14096116701E+03  0.15712638123E+03  0.00000000000E+00 0. -1.
         -3    1    4    4    0  501 -0.26321363311E+02  0.21150399268E+02 -0.40816180415E+02  0.52972767904E+02  0.00000000000E+00 0.  1.
          5    1    3    3  502    0 -0.17765316068E+02  0.59725550210E+02 -0.18918027381E+02  0.65289582346E+02  0.47000000000E+01 0. -1.
         11    1    6    6    0    0 -0.30953899118E+02  0.18640048719E+02  0.73719018815E+01  0.36877367371E+02  0.00000000000E+00 0. -1.
        -12    1    6    6    0    0  0.97030671546E+01 -0.15249238684E+01  0.98052355418E+02  0.98543083512E+02  0.00000000000E+00 0.  1.
         -5    1    5    5    0  503  0.92239928887E+02 -0.33999598297E+02  0.11201975560E+03  0.14911302026E+03  0.47000000000E+01 0.  1.
<mgrwt>
<rscale>  2 0.18729640E+03</rscale>
<asrwt>0</asrwt>
<pdfrwt beam="1">  1       21 0.44359295E-01 0.18857444E+03</pdfrwt>
<pdfrwt beam="2">  1       21 0.41782582E-01 0.18857444E+03</pdfrwt>
<totfact> 0.26970373E+04</totfact>
</mgrwt>
</event>
<event>
12    1  0.2769346E-001  0.2913971E+03  0.7546771E-02  0.1089758E+00
         21   -1    0    0  504  503  0.00000000000E+00  0.00000000000E+00  0.10691364952E+03  0.10691364952E+03  0.00000000000E+00 0.  1.
         21   -1    0    0  502  504 -0.00000000000E+00 -0.00000000000E+00 -0.10710856997E+04  0.10710856997E+04  0.00000000000E+00 0. -1.
          6    2    1    2  502    0 -0.56239605196E+02 -0.22802505749E+03 -0.78372803081E+03  0.83614706785E+03  0.17249339918E+03 0.  0.
         24    2    3    3    0    0 -0.83809432202E+02 -0.20635458856E+03 -0.75255020240E+03  0.78898933710E+03  0.81031659151E+02 0.  0.
         -6    2    1    2    0  503  0.56239605196E+02  0.22802505749E+03 -0.18044401938E+03  0.34185228137E+03  0.17071794902E+03 0.  0.
        -24    2    5    5    0    0  0.55676239034E+02  0.22342320396E+03 -0.20363882923E+03  0.31773623607E+03  0.80434888465E+02 0.  0.
          2    1    4    4  501    0 -0.44880260933E+02 -0.14800212148E+03 -0.62027923190E+03  0.63926926354E+03  0.00000000000E+00 0. -1.
         -1    1    4    4    0  501 -0.38929171270E+02 -0.58352467076E+02 -0.13227097049E+03  0.14972007355E+03  0.00000000000E+00 0.  1.
          5    1    3    3  502    0  0.27569827006E+02 -0.21670468931E+02 -0.31177828411E+02  0.47157730748E+02  0.47000000000E+01 0. -1.
         13    1    6    6    0    0  0.54927959894E+02  0.86632038971E+02 -0.11797550245E+03  0.15633428969E+03  0.00000000000E+00 0. -1.
        -14    1    6    6    0    0  0.74827914007E+00  0.13679116499E+03 -0.85663326771E+02  0.16140194637E+03  0.00000000000E+00 0.  1.
         -5    1    5    5    0  503  0.56336616179E+00  0.46018535299E+01  0.23194809849E+02  0.24116045307E+02  0.47000000000E+01 0.  1.
<mgrwt>
<rscale>  2 0.29113492E+03</rscale>
<asrwt>0</asrwt>
<pdfrwt beam="1">  1       21 0.16448254E-01 0.29139714E+03</pdfrwt>
<pdfrwt beam="2">  1       21 0.16478242E+00 0.29139714E+03</pdfrwt>
<totfact> 0.72049808E+03</totfact>
</mgrwt>
</event>
<event>
12    1  0.2769346E-001  0.2717742E+03  0.7546771E-02  0.1100304E+00
         21   -1    0    0  504  503  0.00000000000E+00  0.00000000000E+00  0.27545185989E+02  0.27545185989E+02  0.00000000000E+00 0.  1.
         21   -1    0    0  502  504 -0.00000000000E+00 -0.00000000000E+00 -0.32754860874E+04  0.32754860874E+04  0.00000000000E+00 0. -1.
          6    2    1    2  502    0  0.20953972141E+03 -0.63235818697E+01 -0.91856626607E+03  0.95785593121E+03  0.17256047421E+03 0.  0.
         24    2    3    3    0    0  0.21467577747E+03 -0.30817150186E+02 -0.88957132551E+03  0.91926693616E+03  0.81726192695E+02 0.  0.
         -6    2    1    2    0  503 -0.20953972141E+03  0.63235818697E+01 -0.23293746353E+04  0.23451753422E+04  0.17295754176E+03 0.  0.
        -24    2    5    5    0    0 -0.12484457228E+03 -0.15599357634E+02 -0.19542172042E+04  0.19599233835E+04  0.80655319817E+02 0.  0.
          4    1    4    4  501    0  0.17404532952E+03 -0.39809489607E+01 -0.78267348836E+03  0.80180135574E+03  0.00000000000E+00 0. -1.
         -3    1    4    4    0  501  0.40630447949E+02 -0.26836201225E+02 -0.10689783715E+03  0.11746558042E+03  0.00000000000E+00 0.  1.
          5    1    3    3  502    0 -0.51360560643E+01  0.24493568316E+02 -0.28994940560E+02  0.38588995048E+02  0.47000000000E+01 0. -1.
         13    1    6    6    0    0 -0.96848790135E+02  0.62412047784E+01 -0.17464093103E+04  0.17491038047E+04  0.00000000000E+00 0. -1.
        -14    1    6    6    0    0 -0.27995782141E+02 -0.21840562413E+02 -0.20780789397E+03  0.21081957874E+03  0.00000000000E+00 0.  1.
         -5    1    5    5    0  503 -0.84695149132E+02  0.21922939504E+02 -0.37515743110E+03  0.38525195868E+03  0.47000000000E+01 0.  1.
<mgrwt>
<rscale>  2 0.27171101E+03</rscale>
<asrwt>0</asrwt>
<pdfrwt beam="1">  1       21 0.42377209E-02 0.27177416E+03</pdfrwt>
<pdfrwt beam="2">  1       21 0.50392094E+00 0.27177416E+03</pdfrwt>
<totfact> 0.56658899E+02</totfact>
</mgrwt>
</event>
<event>
12    1  0.2769346E-001  0.2038179E+03  0.7546771E-02  0.1146954E+00
         21   -1    0    0  504  503  0.00000000000E+00  0.00000000000E+00  0.12162710305E+03  0.12162710305E+03  0.00000000000E+00 0.  1.
         21   -1    0    0  502  504 -0.00000000000E+00 -0.00000000000E+00 -0.48385197185E+03  0.48385197185E+03  0.00000000000E+00 0.  1.
          6    2    1    2  502    0 -0.70637471719E+01 -0.10627620618E+03 -0.14498441624E+02  0.20242148678E+03  0.17152179156E+03 0.  0.
         24    2    3    3    0    0  0.17382861140E+02 -0.35923933221E+01  0.23065696285E+02  0.90284264875E+02  0.85464337520E+02 0.  0.
         -6    2    1    2    0  503  0.70637471719E+01  0.10627620618E+03 -0.34772642717E+03  0.40305758812E+03  0.17377348090E+03 0.  0.
        -24    2    5    5    0    0 -0.41049470238E+02  0.78334344007E+02 -0.31726040291E+03  0.33945021445E+03  0.82164203745E+02 0.  0.
          2    1    4    4  501    0 -0.10579074332E+02  0.15602199288E+02  0.45749956619E+02  0.49481349688E+02  0.00000000000E+00 0. -1.
         -1    1    4    4    0  501  0.27961935472E+02 -0.19194592610E+02 -0.22684260334E+02  0.40802915186E+02  0.00000000000E+00 0.  1.
          5    1    3    3  502    0 -0.24446608312E+02 -0.10268381285E+03 -0.37564137909E+02  0.11213722191E+03  0.47000000000E+01 0. -1.
         13    1    6    6    0    0 -0.92727739311E+01 -0.15741686902E+02 -0.26385393825E+02  0.32093208786E+02  0.00000000000E+00 0. -1.
        -14    1    6    6    0    0 -0.31776696307E+02  0.94076030909E+02 -0.29087500908E+03  0.30735700566E+03  0.00000000000E+00 0.  1.
         -5    1    5    5    0  503  0.48113217410E+02  0.27941862170E+02 -0.30466024261E+02  0.63607373671E+02  0.47000000000E+01 0.  1.
<mgrwt>
<rscale>  2 0.20333715E+03</rscale>
<asrwt>0</asrwt>
<pdfrwt beam="1">  1       21 0.18711862E-01 0.20381794E+03</pdfrwt>
<pdfrwt beam="2">  1       21 0.74438767E-01 0.20381794E+03</pdfrwt>
<totfact> 0.42002912E+04</totfact>
</mgrwt>
</event>
<event>
12    1  0.2769346E-001  0.1855709E+03  0.7546771E-02  0.1164103E+00
         21   -1    0    0  504  503  0.00000000000E+00  0.00000000000E+00  0.42068366199E+03  0.42068366199E+03  0.00000000000E+00 0. -1.
         21   -1    0    0  502  504 -0.00000000000E+00 -0.00000000000E+00 -0.79055725904E+02  0.79055725904E+02  0.00000000000E+00 0. -1.
          6    2    1    2  502    0  0.18872184095E+02 -0.42809332222E+02  0.16424977858E+03  0.24781962081E+03  0.17957665895E+03 0.  0.
         24    2    3    3    0    0  0.72225975751E+02  0.11300386134E+02  0.81963020113E+02  0.13571391479E+03  0.79724774702E+02 0.  0.
         -6    2    1    2    0  503 -0.18872184095E+02  0.42809332222E+02  0.17737815751E+03  0.25191976708E+03  0.17266082366E+03 0.  0.
        -24    2    5    5    0    0 -0.71854098169E+02 -0.36245199755E+01  0.10410596693E+03  0.15016471924E+03  0.80840843551E+02 0.  0.
          4    1    4    4  501    0  0.68791055111E+02  0.17746129393E+02  0.96272896454E+02  0.11964783727E+03  0.00000000000E+00 0. -1.
         -3    1    4    4    0  501  0.34349206406E+01 -0.64457432595E+01 -0.14309876341E+02  0.16066077519E+02  0.00000000000E+00 0.  1.
          5    1    3    3  502    0 -0.53353791656E+02 -0.54109718356E+02  0.82286758464E+02  0.11210570602E+03  0.47000000000E+01 0. -1.
         13    1    6    6    0    0 -0.38332951013E+02  0.19545780411E+02  0.10041812571E+03  0.10924858185E+03  0.00000000000E+00 0. -1.
        -14    1    6    6    0    0 -0.33521147155E+02 -0.23170300386E+02  0.36878412259E+01  0.40916137397E+02  0.00000000000E+00 0.  1.
         -5    1    5    5    0  503  0.52981914073E+02  0.46433852197E+02  0.73272190580E+02  0.10175504784E+03  0.47000000000E+01 0.  1.
<mgrwt>
<rscale>  2 0.18387690E+03</rscale>
<asrwt>0</asrwt>
<pdfrwt beam="1">  1       21 0.64720562E-01 0.18557094E+03</pdfrwt>
<pdfrwt beam="2">  1       21 0.12162420E-01 0.18557094E+03</pdfrwt>
<totfact> 0.12634769E+05</totfact>
</mgrwt>
</event>
<event>
12    1  0.2769346E-001  0.2375931E+03  0.7546771E-02  0.1121958E+00
         21   -1    0    0  504  503  0.00000000000E+00  0.00000000000E+00  0.49465539141E+03  0.49465539141E+03  0.00000000000E+00 0.  1.
         21   -1    0    0  502  504 -0.00000000000E+00 -0.00000000000E+00 -0.12149050880E+03  0.12149050880E+03  0.00000000000E+00 0.  1.
          6    2    1    2  502    0 -0.47596544483E+02 -0.15427759481E+03  0.27125184411E+03  0.36059403077E+03  0.17430859069E+03 0.  0.
         24    2    3    3    0    0  0.41756697699E+02 -0.76628488189E+02  0.14841716973E+03  0.18993696858E+03  0.80205041969E+02 0.  0.
         -6    2    1    2    0  503  0.47596544483E+02  0.15427759481E+03  0.10191303851E+03  0.25555186944E+03  0.16986313093E+03 0.  0.
        -24    2    5    5    0    0 -0.22082801178E+02  0.32574988319E+02  0.15166544309E+02  0.90585873268E+02  0.80168549928E+02 0.  0.
          2    1    4    4  501    0  0.36316901046E+02 -0.68077665205E+01  0.94769776045E+02  0.10171810772E+03  0.00000000000E+00 0. -1.
         -1    1    4    4    0  501  0.54397966530E+01 -0.69820721669E+02  0.53647393687E+02  0.88218860859E+02  0.00000000000E+00 0.  1.
          5    1    3    3  502    0 -0.89353242181E+02 -0.77649106619E+02  0.12283467437E+03  0.17065706219E+03  0.47000000000E+01 0. -1.
         13    1    6    6    0    0  0.50818427078E+01 -0.24528232610E+02  0.10556863330E+02  0.27182838035E+02  0.00000000000E+00 0. -1.
        -14    1    6    6    0    0 -0.27164643885E+02  0.57103220930E+02  0.46096809790E+01  0.63403035232E+02  0.00000000000E+00 0.  1.
         -5    1    5    5    0  503  0.69679345660E+02  0.12170260649E+03  0.86746494199E+02  0.16496599617E+03  0.47000000000E+01 0.  1.
<mgrwt>
<rscale>  2 0.23677846E+03</rscale>
<asrwt>0</asrwt>
<pdfrwt beam="1">  1       21 0.76100828E-01 0.23759312E+03</pdfrwt>
<pdfrwt beam="2">  1       21 0.18690848E-01 0.23759312E+03</pdfrwt>
<totfact> 0.39415776E+04</totfact>
</mgrwt>
</event>
<event>
12    1  0.2769346E-001  0.1771154E+03  0.7546771E-02  0.1171075E+00
         21   -1    0    0  504  503  0.00000000000E+00  0.00000000000E+00  0.35154812707E+03  0.35154812707E+03  0.00000000000E+00 0. -1.
         21   -1    0    0  502  504 -0.00000000000E+00 -0.00000000000E+00 -0.12420585997E+03  0.12420585997E+03  0.00000000000E+00 0. -1.
          6    2    1    2  502    0 -0.82711721462E+01  0.32983774764E+02 -0.14600378306E+02  0.17591053365E+03  0.17197384427E+03 0.  0.
         24    2    3    3    0    0  0.32930757235E+01  0.43090458115E+02  0.50844859404E+02  0.10852324986E+03  0.85583083048E+02 0.  0.
         -6    2    1    2    0  503  0.82711721462E+01 -0.32983774764E+02  0.24194264541E+03  0.29984345340E+03  0.17382034172E+03 0.  0.
        -24    2    5    5    0    0 -0.61822632226E+02 -0.10524216001E+02  0.13198548435E+03  0.16744163900E+03  0.81754127799E+02 0.  0.
          4    1    4    4  501    0 -0.27471505094E+01  0.68832244135E+02  0.31421352948E+02  0.75714767976E+02  0.00000000000E+00 0. -1.
         -3    1    4    4    0  501  0.60402262329E+01 -0.25741786020E+02  0.19423506456E+02  0.32808481884E+02  0.00000000000E+00 0.  1.
          5    1    3    3  502    0 -0.11564247870E+02 -0.10106683351E+02 -0.65445237710E+02  0.67387283786E+02  0.47000000000E+01 0. -1.
         13    1    6    6    0    0 -0.10781482061E+02  0.29977716981E+02  0.72596464641E+02  0.79278941398E+02  0.00000000000E+00 0. -1.
        -14    1    6    6    0    0 -0.51041150166E+02 -0.40501932983E+02  0.59389019714E+02  0.88162697600E+02  0.00000000000E+00 0.  1.
         -5    1    5    5    0  503  0.70093804372E+02 -0.22459558762E+02  0.10995716105E+03  0.13240181441E+03  0.47000000000E+01 0.  1.
<mgrwt>
<rscale>  2 0.17666067E+03</rscale>
<asrwt>0</asrwt>
<pdfrwt beam="1">  1       21 0.54084327E-01 0.17711537E+03</pdfrwt>
<pdfrwt beam="2">  1       21 0.19108594E-01 0.17711537E+03</pdfrwt>
<totfact> 0.81735177E+04</totfact>
</mgrwt>
</event>
<event>
12    1  0.2769346E-001  0.1976370E+03  0.7546771E-02  0.1152528E+00
         21   -1    0    0  504  503  0.00000000000E+00  0.00000000000E+00  0.15571144191E+03  0.15571144191E+03  0.00000000000E+00 0.  1.
         21   -1    0    0  502  504 -0.00000000000E+00 -0.00000000000E+00 -0.28350971089E+03  0.28350971089E+03  0.00000000000E+00 0.  1.
          6    2    1    2  502    0 -0.73947247901E+02 -0.61876350284E+02  0.15149864116E+02  0.19821685520E+03  0.17252108598E+03 0.  0.
         24    2    3    3    0    0 -0.48156555034E+02 -0.53024697598E+02 -0.56720571275E+02  0.12120412199E+03  0.79640088100E+02 0.  0.
         -6    2    1    2    0  503  0.73947247901E+02  0.61876350284E+02 -0.14294813309E+03  0.24100429761E+03  0.16838059423E+03 0.  0.
        -24    2    5    5    0    0  0.82140036113E+02 -0.11675264640E+02 -0.10757222443E+03  0.15884283005E+03  0.82316242953E+02 0.  0.
          4    1    4    4  501    0  0.60129540590E+01 -0.24347385863E+02  0.13102749819E+02  0.28295456662E+02  0.00000000000E+00 0. -1.
         -3    1    4    4    0  501 -0.54169509093E+02 -0.28677311734E+02 -0.69823321094E+02  0.92908665324E+02  0.00000000000E+00 0.  1.
          5    1    3    3  502    0 -0.25790692867E+02 -0.88516526858E+01  0.71870435391E+02  0.77012733214E+02  0.47000000000E+01 0. -1.
         13    1    6    6    0    0  0.66126937203E+01 -0.35080270485E+02 -0.20253810349E+02  0.41043512632E+02  0.00000000000E+00 0. -1.
        -14    1    6    6    0    0  0.75527342392E+02  0.23405005845E+02 -0.87318414077E+02  0.11779931742E+03  0.00000000000E+00 0.  1.
         -5    1    5    5    0  503 -0.81927882119E+01  0.73551614924E+02 -0.35375908669E+02  0.82161467555E+02  0.47000000000E+01 0.  1.
<mgrwt>
<rscale>  2 0.19672987E+03</rscale>
<asrwt>0</asrwt>
<pdfrwt beam="1">  1       21 0.23955607E-01 0.19763705E+03</pdfrwt>
<pdfrwt beam="2">  1       21 0.43616878E-01 0.19763705E+03</pdfrwt>
<totfact> 0.82821827E+04</totfact>
</mgrwt>
</event>
<event>
12    1  0.2769346E-001  0.2062623E+03  0.7546771E-02  0.1145659E+00
         21   -1    0    0  504  503  0.00000000000E+00  0.00000000000E+00  0.11321872937E+04  0.11321872937E+04  0.00000000000E+00 0. -1.
         21   -1    0    0  502  504 -0.00000000000E+00 -0.00000000000E+00 -0.65381730687E+02  0.65381730687E+02  0.00000000000E+00 0. -1.
          6    2    1    2  502    0 -0.34984933605E+02  0.10357859983E+03  0.13228369414E+03  0.24055529868E+03  0.16856869243E+03 0.  0.
         24    2    3    3    0    0 -0.46563386002E+02  0.11516176876E+03  0.15379139420E+03  0.21311624760E+03  0.79601257285E+02 0.  0.
         -6    2    1    2    0  503  0.34984933605E+02 -0.10357859983E+03  0.93452186884E+03  0.95701372567E+03  0.17490476226E+03 0.  0.
        -24    2    5    5    0    0  0.62036591610E+02 -0.42883788146E+02  0.31498075407E+03  0.33390142820E+03  0.81177154036E+02 0.  0.
          4    1    4    4  501    0 -0.70770185678E+01  0.10516700718E+03  0.12344210591E+03  0.16232109260E+03  0.00000000000E+00 0. -1.
         -3    1    4    4    0  501 -0.39486367434E+02  0.99947615869E+01  0.30349288288E+02  0.50795155004E+02  0.00000000000E+00 0.  1.
          5    1    3    3  502    0  0.11578452396E+02 -0.11583168932E+02 -0.21507700058E+02  0.27439051081E+02  0.47000000000E+01 0. -1.
         13    1    6    6    0    0  0.63297401912E+02 -0.46995371627E+02  0.31864434009E+03  0.32825194823E+03  0.00000000000E+00 0. -1.
        -14    1    6    6    0    0 -0.12608103020E+01  0.41115834814E+01 -0.36635860276E+01  0.56494799693E+01  0.00000000000E+00 0.  1.
         -5    1    5    5    0  503 -0.27051658005E+02 -0.60694811686E+02  0.61954111477E+03  0.62311229747E+03  0.47000000000E+01 0.  1.
<mgrwt>
<rscale>  2 0.20491296E+03</rscale>
<asrwt>0</asrwt>
<pdfrwt beam="1">  1       21 0.17418265E+00 0.20626233E+03</pdfrwt>
<pdfrwt beam="2">  1       21 0.10058729E-01 0.20626233E+03</pdfrwt>
<totfact> 0.15863586E+04</totfact>
</mgrwt>
</event>
<event>
12    1  0.2769346E-001  0.2656405E+03  0.7546771E-02  0.1103981E+00
         21   -1    0    0  504  503  0.00000000000E+00  0.00000000000E+00  0.21296720830E+02  0.21296720830E+02  0.00000000000E+00 0.  1.
         21   -1    0    0  502  504 -0.00000000000E+00 -0.00000000000E+00 -0.34262185457E+04  0.34262185457E+04  0.00000000000E+00 0. -1.
          6    2    1    2  502    0  0.98299760524E+02 -0.17424676584E+03 -0.13652928294E+04  0.13906605466E+04  0.17287992239E+03 0.  0.
         24    2    3    3    0    0  0.59651707547E+02 -0.14991445291E+03 -0.12901586506E+04  0.13026096052E+04  0.79055490391E+02 0.  0.
         -6    2    1    2    0  503 -0.98299760524E+02  0.17424676584E+03 -0.20396289955E+04  0.20568547199E+04  0.17475732135E+03 0.  0.
        -24    2    5    5    0    0 -0.12312419794E+03  0.13247482392E+03 -0.18623160919E+04  0.18729441341E+04  0.83602368401E+02 0.  0.
          2    1    4    4  501    0  0.35077934967E+02 -0.12837833452E+03 -0.11860615774E+04  0.11935047230E+04  0.00000000000E+00 0. -1.
         -1    1    4    4    0  501  0.24573772580E+02 -0.21536118392E+02 -0.10409707315E+03  0.10910488226E+03  0.00000000000E+00 0.  1.
          5    1    3    3  502    0  0.38648052977E+02 -0.24332312930E+02 -0.75134178815E+02  0.88050941378E+02  0.47000000000E+01 0. -1.
         13    1    6    6    0    0 -0.94992599107E+02  0.43551167958E+02 -0.86962205020E+03  0.87587830679E+03  0.00000000000E+00 0. -1.
        -14    1    6    6    0    0 -0.28131598837E+02  0.88923655965E+02 -0.99269404172E+03  0.99706582727E+03  0.00000000000E+00 0.  1.
         -5    1    5    5    0  503  0.24824437419E+02  0.41771941918E+02 -0.17731290357E+03  0.18391058588E+03  0.47000000000E+01 0.  1.
<mgrwt>
<rscale>  2 0.26533218E+03</rscale>
<asrwt>0</asrwt>
<pdfrwt beam="1">  1       21 0.32764199E-02 0.26564055E+03</pdfrwt>
<pdfrwt beam="2">  1       21 0.52711034E+00 0.26564055E+03</pdfrwt>
<totfact> 0.59875032E+02</totfact>
</mgrwt>
</event>
<event>
12    1  0.2769346E-001  0.2756076E+03  0.7546771E-02  0.1098129E+00
         21   -1    0    0  504  503  0.00000000000E+00  0.00000000000E+00  0.59387850433E+03  0.59387850433E+03  0.00000000000E+00 0. -1.
         21   -1    0    0  502  504 -0.00000000000E+00 -0.00000000000E+00 -0.91200728414E+03  0.91200728414E+03  0.00000000000E+00 0. -1.
          6    2    1    2  502    0  0.13102496929E+03 -0.16873652282E+03 -0.85723534468E+03  0.90041452722E+03  0.17393771284E+03 0.  0.
         24    2    3    3    0    0  0.15948352180E+03 -0.11976059426E+03 -0.63433604907E+03  0.67038253646E+03  0.85164126117E+02 0.  0.
         -6    2    1    2    0  503 -0.13102496929E+03  0.16873652282E+03  0.53910656487E+03  0.60547126124E+03  0.17412640006E+03 0.  0.
        -24    2    5    5    0    0 -0.13809198100E+03  0.14075802833E+03  0.53526500864E+03  0.57598251148E+03  0.79780989612E+02 0.  0.
          4    1    4    4  501    0  0.12341628541E+03 -0.13011685867E+03 -0.52589849389E+03  0.55563585404E+03  0.00000000000E+00 0. -1.
         -3    1    4    4    0  501  0.36067236391E+02  0.10356264417E+02 -0.10843755518E+03  0.11474668242E+03  0.00000000000E+00 0.  1.
          5    1    3    3  502    0 -0.28458552507E+02 -0.48975928563E+02 -0.22289929561E+03  0.23003199076E+03  0.47000000000E+01 0. -1.
         11    1    6    6    0    0 -0.13898434413E+02 -0.94905492323E+01  0.59429152818E+02  0.61766181755E+02  0.00000000000E+00 0. -1.
        -12    1    6    6    0    0 -0.12419354658E+03  0.15024857756E+03  0.47583585582E+03  0.51421632972E+03  0.00000000000E+00 0.  1.
         -5    1    5    5    0  503  0.70670117036E+01  0.27978494493E+02  0.38415562308E+01  0.29488749766E+02  0.47000000000E+01 0.  1.
<mgrwt>
<rscale>  2 0.27557782E+03</rscale>
<asrwt>0</asrwt>
<pdfrwt beam="1">  1       21 0.91365925E-01 0.27560762E+03</pdfrwt>
<pdfrwt beam="2">  1       21 0.14030881E+00 0.27560762E+03</pdfrwt>
<totfact> 0.33227085E+02</totfact>
</mgrwt>
</event>
<event>
12    1  0.2769346E-001  0.1866839E+03  0.7546771E-02  0.1162146E+00
         21   -1    0    0  504  503  0.00000000000E+00  0.00000000000E+00  0.26068703841E+03  0.26068703841E+03  0.00000000000E+00 0.  1.
         21   -1    0    0  502  504 -0.00000000000E+00 -0.00000000000E+00 -0.18444380986E+03  0.18444380986E+03  0.00000000000E+00 0.  1.
          6    2    1    2  502    0  0.41809692289E+02  0.54991588265E+02 -0.81138635184E+02  0.20095890290E+03  0.17037862949E+03 0.  0.
         24    2    3    3    0    0 -0.61739743086E+01  0.18788643472E+02 -0.10709287194E+03  0.13531746875E+03  0.80316891411E+02 0.  0.
         -6    2    1    2    0  503 -0.41809692289E+02 -0.54991588265E+02  0.15738186373E+03  0.24417194537E+03  0.17343230012E+03 0.  0.
        -24    2    5    5    0    0 -0.76049674857E+02  0.56563956294E+01  0.12759591681E+03  0.16827828957E+03  0.78875325014E+02 0.  0.
          2    1    4    4  501    0 -0.20526593637E+01  0.49638574677E+02 -0.51191017102E+02  0.71335276956E+02  0.00000000000E+00 0. -1.
         -1    1    4    4    0  501 -0.41213149450E+01 -0.30849931206E+02 -0.55901854839E+02  0.63982191793E+02  0.00000000000E+00 0.  1.
          5    1    3    3  502    0  0.47983666598E+02  0.36202944793E+02  0.25954236756E+02  0.65641434152E+02  0.47000000000E+01 0. -1.
         13    1    6    6    0    0 -0.40582135258E+02 -0.30078122884E+02  0.30777173207E+02  0.59150972679E+02  0.00000000000E+00 0. -1.
        -14    1    6    6    0    0 -0.35467539599E+02  0.35734518513E+02  0.96818743602E+02  0.10912731689E+03  0.00000000000E+00 0.  1.
         -5    1    5    5    0  503  0.34239982567E+02 -0.60647983894E+02  0.29785946925E+02  0.75893655801E+02  0.47000000000E+01 0.  1.
<mgrwt>
<rscale>  2 0.18597150E+03</rscale>
<asrwt>0</asrwt>
<pdfrwt beam="1">  1       21 0.40105699E-01 0.18668393E+03</pdfrwt>
<pdfrwt beam="2">  1       21 0.28375971E-01 0.18668393E+03</pdfrwt>
<totfact> 0.71315577E+04</totfact>
</mgrwt>
</event>
<event>
12    1  0.2769346E-001  0.1904385E+03  0.7546771E-02  0.1158154E+00
         21   -1    0    0  504  503  0.00000000000E+00  0.00000000000E+00  0.24788097141E+03  0.24788097141E+03  0.00000000000E+00 0. -1.
         21   -1    0    0  502  504 -0.00000000000E+00 -0.00000000000E+00 -0.25935910067E+03  0.25935910067E+03  0.00000000000E+00 0.  1.
          6    2    1    2  502    0 -0.66195567648E+02 -0.47884344210E+02 -0.17340210413E+03  0.25726767945E+03  0.17159139133E+03 0.  0.
         24    2    3    3    0    0 -0.55970463918E+02 -0.31578842296E+02 -0.20018368063E+03  0.22395454423E+03  0.77150604523E+02 0.  0.
         -6    2    1    2    0  503  0.66195567648E+02  0.47884344210E+02  0.16192397488E+03  0.24997239263E+03  0.17202342817E+03 0.  0.
        -24    2    5    5    0    0 -0.14998734293E+02  0.10171152718E+02  0.13138568956E+03  0.15526507322E+03  0.80725641281E+02 0.  0.
          2    1    4    4  501    0  0.15178596688E+02 -0.21306149736E+02 -0.77083190258E+02  0.81401228703E+02  0.00000000000E+00 0. -1.
         -1    1    4    4    0  501 -0.71149060607E+02 -0.10272692560E+02 -0.12310049037E+03  0.14255331552E+03  0.00000000000E+00 0.  1.
          5    1    3    3  502    0 -0.10225103729E+02 -0.16305501914E+02  0.26781576498E+02  0.33313135227E+02  0.47000000000E+01 0. -1.
         11    1    6    6    0    0  0.25324310423E+02 -0.15199098380E+02  0.79581938242E+02  0.84885912756E+02  0.00000000000E+00 0. -1.
        -12    1    6    6    0    0 -0.40323044716E+02  0.25370251097E+02  0.51803751322E+02  0.70379160459E+02  0.00000000000E+00 0.  1.
         -5    1    5    5    0  503  0.81194301941E+02  0.37713191493E+02  0.30538285312E+02  0.94707319411E+02  0.47000000000E+01 0.  1.
<mgrwt>
<rscale>  2 0.19034089E+03</rscale>
<asrwt>0</asrwt>
<pdfrwt beam="1">  1       21 0.38135534E-01 0.19043850E+03</pdfrwt>
<pdfrwt beam="2">  1       21 0.39901400E-01 0.19043850E+03</pdfrwt>
<totfact> 0.40187452E+04</totfact>
</mgrwt>
</event>
<event>
12    1  0.2769346E-001  0.2192533E+03  0.7546771E-02  0.1134488E+00
         21   -1    0    0  504  503  0.00000000000E+00  0.00000000000E+00  0.29746878822E+03  0.29746878822E+03  0.00000000000E+00 0.  1.
         21   -1    0    0  502  504 -0.00000000000E+00 -0.00000000000E+00 -0.41215588117E+03  0.41215588117E+03  0.00000000000E+00 0.  1.
          6    2    1    2  502    0 -0.12951528870E+03 -0.34087703492E+02 -0.33407507520E+03  0.39945845201E+03  0.17327641929E+03 0.  0.
         24    2    3    3    0    0 -0.16150422344E+03 -0.42245198718E+02 -0.30404657385E+03  0.35458487886E+03  0.73606020407E+02 0.  0.
         -6    2    1    2    0  503  0.12951528870E+03  0.34087703492E+02  0.21938798224E+03  0.31016621738E+03  0.17359669961E+03 0.  0.
        -24    2    5    5    0    0 -0.26635832361E+02  0.13595105708E+02  0.46367010293E+02  0.76154538383E+02  0.52491138376E+02 0.  0.
          4    1    4    4  501    0 -0.11151443430E+03 -0.80746276220E+01 -0.13657955812E+03  0.17650678278E+03  0.00000000000E+00 0. -1.
         -3    1    4    4    0  501 -0.49989789139E+02 -0.34170571096E+02 -0.16746701573E+03  0.17807809608E+03  0.00000000000E+00 0.  1.
          5    1    3    3  502    0  0.31988934746E+02  0.81574952256E+01 -0.30028501348E+02  0.44873573156E+02  0.47000000000E+01 0. -1.
         13    1    6    6    0    0 -0.37122455330E+01  0.30283454456E+02  0.32546242957E+02  0.44610831771E+02  0.00000000000E+00 0. -1.
        -14    1    6    6    0    0 -0.22923586828E+02 -0.16688348749E+02  0.13820767336E+02  0.31543706611E+02  0.00000000000E+00 0.  1.
         -5    1    5    5    0  503  0.15615112106E+03  0.20492597784E+02  0.17302097195E+03  0.23401167900E+03  0.47000000000E+01 0.  1.
<mgrwt>
<rscale>  2 0.21918987E+03</rscale>
<asrwt>0</asrwt>
<pdfrwt beam="1">  1       21 0.45764429E-01 0.21925327E+03</pdfrwt>
<pdfrwt beam="2">  1       21 0.63408597E-01 0.21925327E+03</pdfrwt>
<totfact> 0.10343775E+04</totfact>
</mgrwt>
</event>
<event>
12    1  0.2769346E-001  0.2069800E+03  0.7546771E-02  0.1144100E+00
         21   -1    0    0  504  503  0.00000000000E+00  0.00000000000E+00  0.13770668788E+04  0.13770668788E+04  0.00000000000E+00 0.  1.
         21   -1    0    0  502  504 -0.00000000000E+00 -0.00000000000E+00 -0.76306695020E+02  0.76306695020E+02  0.00000000000E+00 0.  1.
          6    2    1    2  502    0 -0.11321639976E+03 -0.33937325416E+01  0.90942189339E+02  0.22607785497E+03  0.17323753667E+03 0.  0.
         24    2    3    3    0    0 -0.12757498774E+03  0.39577741730E+02  0.45263419838E+02  0.16156927699E+03  0.78829429501E+02 0.  0.
         -6    2    1    2    0  503  0.11321639976E+03  0.33937325416E+01  0.12098179945E+04  0.12272957189E+04  0.17252747967E+03 0.  0.
        -24    2    5    5    0    0  0.47953956154E+02 -0.63181430158E+02  0.59682678304E+03  0.60723785535E+03  0.79019801241E+02 0.  0.
          4    1    4    4  501    0 -0.10087345796E+03  0.34352370567E+02  0.67746380137E+02  0.12627395577E+03  0.00000000000E+00 0. -1.
         -3    1    4    4    0  501 -0.26701529774E+02  0.52253711627E+01 -0.22482960299E+02  0.35295321217E+02  0.00000000000E+00 0.  1.
          5    1    3    3  502    0  0.14358587981E+02 -0.42971474272E+02  0.45678769501E+02  0.64508577980E+02  0.47000000000E+01 0. -1.
         13    1    6    6    0    0  0.85591844935E+00 -0.38607610757E+02  0.43931305170E+03  0.44100707205E+03  0.00000000000E+00 0. -1.
        -14    1    6    6    0    0  0.47098037704E+02 -0.24573819401E+02  0.15751373134E+03  0.16623078330E+03  0.00000000000E+00 0.  1.
         -5    1    5    5    0  503  0.65262443602E+02  0.66575162700E+02  0.61299121144E+03  0.62005786354E+03  0.47000000000E+01 0.  1.
<mgrwt>
<rscale>  2 0.20683134E+03</rscale>
<asrwt>0</asrwt>
<pdfrwt beam="1">  1       21 0.21185642E+00 0.20697999E+03</pdfrwt>
<pdfrwt beam="2">  1       21 0.11739493E-01 0.20697999E+03</pdfrwt>
<totfact> 0.68070470E+03</totfact>
</mgrwt>
</event>
<event>
12    1  0.2769346E-001  0.2201463E+03  0.7546771E-02  0.1133842E+00
         21   -1    0    0  504  503  0.00000000000E+00  0.00000000000E+00  0.98551750756E+03  0.98551750756E+03  0.00000000000E+00 0. -1.
         21   -1    0    0  502  504 -0.00000000000E+00 -0.00000000000E+00 -0.81920357792E+02  0.81920357792E+02  0.00000000000E+00 0.  1.
          6    2    1    2  502    0  0.12488240523E+03  0.53402843214E+02  0.11417519495E+03  0.24799271285E+03  0.17325395143E+03 0.  0.
         24    2    3    3    0    0  0.39537408549E+02 -0.26449462118E+02  0.71975629025E+02  0.12364219018E+03  0.88567032791E+02 0.  0.
         -6    2    1    2    0  503 -0.12488240523E+03 -0.53402843214E+02  0.78942195482E+03  0.81944515250E+03  0.17278847300E+03 0.  0.
        -24    2    5    5    0    0 -0.71024524886E+02  0.33344844680E+02  0.33299033232E+03  0.35170831554E+03  0.81607695706E+02 0.  0.
          2    1    4    4  501    0  0.62601907957E+02 -0.38909597664E+02  0.58876802086E+02  0.94336808797E+02  0.00000000000E+00 0. -1.
         -1    1    4    4    0  501 -0.23064499408E+02  0.12460135545E+02  0.13098826938E+02  0.29305381381E+02  0.00000000000E+00 0.  1.
          5    1    3    3  502    0  0.85344996680E+02  0.79852305332E+02  0.42199565921E+02  0.12435052267E+03  0.47000000000E+01 0. -1.
         13    1    6    6    0    0 -0.72099862764E+02  0.52520598344E+02  0.30489659172E+03  0.31767709251E+03  0.00000000000E+00 0. -1.
        -14    1    6    6    0    0  0.10753378784E+01 -0.19175753664E+02  0.28093740597E+02  0.34031223029E+02  0.00000000000E+00 0.  1.
         -5    1    5    5    0  503 -0.53857880343E+02 -0.86747687894E+02  0.45643162250E+03  0.46773683696E+03  0.47000000000E+01 0.  1.
<mgrwt>
<rscale>  2 0.22005475E+03</rscale>
<asrwt>0</asrwt>
<pdfrwt beam="1">  1       21 0.15161807E+00 0.22014634E+03</pdfrwt>
<pdfrwt beam="2">  1       21 0.12603133E-01 0.22014634E+03</pdfrwt>
<totfact> 0.15325147E+04</totfact>
</mgrwt>
</event>
<event>
12    1  0.2769346E-001  0.1824733E+03  0.7546771E-02  0.1165593E+00
         21   -1    0    0  504  503  0.00000000000E+00  0.00000000000E+00  0.93342937022E+02  0.93342937022E+02  0.00000000000E+00 0.  1.
         21   -1    0    0  502  504 -0.00000000000E+00 -0.00000000000E+00 -0.36028157639E+03  0.36028157639E+03  0.00000000000E+00 0.  1.
          6    2    1    2  502    0  0.36292035468E+02  0.43277443232E+02 -0.10675546914E+03  0.21081766731E+03  0.17279267846E+03 0.  0.
         24    2    3    3    0    0  0.42900993477E+02  0.84773895738E+02 -0.10890504195E+03  0.16848157680E+03  0.86594600979E+02 0.  0.
         -6    2    1    2    0  503 -0.36292035468E+02 -0.43277443232E+02 -0.16018317023E+03  0.24280684609E+03  0.17351215391E+03 0.  0.
        -24    2    5    5    0    0  0.34999466811E+02  0.15019047843E+02 -0.94352384804E+02  0.12950750153E+03  0.80120446579E+02 0.  0.
          4    1    4    4  501    0 -0.14839132075E+01 -0.16691902397E+02 -0.22279078693E+02  0.27877929468E+02  0.00000000000E+00 0. -1.
         -3    1    4    4    0  501  0.44384906684E+02  0.10146579814E+03 -0.86625963261E+02  0.14060364733E+03  0.00000000000E+00 0.  1.
          5    1    3    3  502    0 -0.66089580090E+01 -0.41496452507E+02  0.21495728158E+01  0.42336090513E+02  0.47000000000E+01 0. -1.
         13    1    6    6    0    0  0.21297519677E+02 -0.16746593465E+02  0.19665072415E+01  0.27164312762E+02  0.00000000000E+00 0. -1.
        -14    1    6    6    0    0  0.13701947133E+02  0.31765641308E+02 -0.96318892046E+02  0.10234318877E+03  0.00000000000E+00 0.  1.
         -5    1    5    5    0  503 -0.71291502279E+02 -0.58296491074E+02 -0.65830785423E+02  0.11329934456E+03  0.47000000000E+01 0.  1.
<mgrwt>
<rscale>  2 0.18230209E+03</rscale>
<asrwt>0</asrwt>
<pdfrwt beam="1">  1       21 0.14360452E-01 0.18247333E+03</pdfrwt>
<pdfrwt beam="2">  1       21 0.55427933E-01 0.18247333E+03</pdfrwt>
<totfact> 0.13074810E+05</totfact>
</mgrwt>
</event>
<event>
12    1  0.2769346E-001  0.2017378E+03  0.7546771E-02  0.1148323E+00
         21   -1    0    0  504  503  0.00000000000E+00  0.00000000000E+00  0.57598019686E+02  0.57598019686E+02  0.00000000000E+00 0.  1.
         21   -1    0    0  502  504 -0.00000000000E+00 -0.00000000000E+00 -0.98964058982E+03  0.98964058982E+03  0.00000000000E+00 0.  1.
          6    2    1    2  502    0  0.67041165223E+02 -0.80203553560E+02 -0.74657316274E+03  0.77334961437E+03  0.17254277984E+03 0.  0.
         24    2    3    3    0    0  0.68997448722E+02 -0.12118777794E+03 -0.59724573403E+03  0.61841638791E+03  0.79304707117E+02 0.  0.
         -6    2    1    2    0  503 -0.67041165223E+02  0.80203553560E+02 -0.18546940739E+03  0.27388899514E+03  0.17230540544E+03 0.  0.
        -24    2    5    5    0    0 -0.52064052658E+02  0.39544768639E+02 -0.22825975766E+02  0.10550720710E+03  0.79600824588E+02 0.  0.
          2    1    4    4  501    0  0.32668112624E+02 -0.12654985720E+02 -0.63359117897E+02  0.72399807090E+02  0.00000000000E+00 0. -1.
         -1    1    4    4    0  501  0.36329336098E+02 -0.10853279222E+03 -0.53388661613E+03  0.54601658082E+03  0.00000000000E+00 0.  1.
          5    1    3    3  502    0 -0.19562834986E+01  0.40984224378E+02 -0.14932742872E+03  0.15493322646E+03  0.47000000000E+01 0. -1.
         13    1    6    6    0    0  0.14111794027E+02 -0.37426004981E+01  0.12195225787E+02  0.19022968252E+02  0.00000000000E+00 0. -1.
        -14    1    6    6    0    0 -0.66175846685E+02  0.43287369137E+02 -0.35021201553E+02  0.86484238851E+02  0.00000000000E+00 0.  1.
         -5    1    5    5    0  503 -0.14977112565E+02  0.40658784921E+02 -0.16264343163E+03  0.16838178804E+03  0.47000000000E+01 0.  1.
<mgrwt>
<rscale>  2 0.20168703E+03</rscale>
<asrwt>0</asrwt>
<pdfrwt beam="1">  1       21 0.88612345E-02 0.20173780E+03</pdfrwt>
<pdfrwt beam="2">  1       21 0.15225239E+00 0.20173780E+03</pdfrwt>
<totfact> 0.28681018E+04</totfact>
</mgrwt>
</event>
<event>
12    1  0.2769346E-001  0.1941118E+03  0.7546771E-02  0.1154859E+00
         21   -1    0    0  504  503  0.00000000000E+00  0.00000000000E+00  0.10942949707E+04  0.10942949707E+04  0.00000000000E+00 0. -1.
         21   -1    0    0  502  504 -0.00000000000E+00 -0.00000000000E+00 -0.34926354988E+02  0.34926354988E+02  0.00000000000E+00 0. -1.
          6    2    1    2  502    0 -0.24741421475E+02  0.83843223515E+02  0.45926209839E+03  0.49850171907E+03  0.17303313217E+03 0.  0.
         24    2    3    3    0    0  0.52855575840E+02  0.45957582994E+02  0.23057889762E+03  0.25401304436E+03  0.80313058348E+02 0.  0.
         -6    2    1    2    0  503  0.24741421475E+02 -0.83843223515E+02  0.60010651735E+03  0.63071960665E+03  0.17331349047E+03 0.  0.
        -24    2    5    5    0    0  0.22972967912E+02 -0.42604060670E+02  0.57207299988E+03  0.58060210390E+03  0.86535672522E+02 0.  0.
          2    1    4    4  501    0  0.36082609738E+02  0.30283550778E+02  0.22567423923E+03  0.23053830577E+03  0.00000000000E+00 0. -1.
         -1    1    4    4    0  501  0.16772966102E+02  0.15674032217E+02  0.49046583909E+01  0.23474738587E+02  0.00000000000E+00 0.  1.
          5    1    3    3  502    0 -0.77596997314E+02  0.37885640521E+02  0.22868320077E+03  0.24448867471E+03  0.47000000000E+01 0. -1.
         11    1    6    6    0    0 -0.53645746778E+01 -0.54461248028E+02  0.20280848834E+03  0.21006210782E+03  0.00000000000E+00 0. -1.
        -12    1    6    6    0    0  0.28337542589E+02  0.11857187358E+02  0.36926451154E+03  0.37053999608E+03  0.00000000000E+00 0.  1.
         -5    1    5    5    0  503  0.17684535632E+01 -0.41239162845E+02  0.28033517469E+02  0.50117502749E+02  0.47000000000E+01 0.  1.
<mgrwt>
<rscale>  2 0.19404920E+03</rscale>
<asrwt>0</asrwt>
<pdfrwt beam="1">  1       21 0.16835305E+00 0.19411180E+03</pdfrwt>
<pdfrwt beam="2">  1       21 0.53732862E-02 0.19411180E+03</pdfrwt>
<totfact> 0.52122986E+04</totfact>
</mgrwt>
</event>
<event>
12    1  0.2769346E-001  0.1908975E+03  0.7546771E-02  0.1157670E+00
         21   -1    0    0  504  503  0.00000000000E+00  0.00000000000E+00  0.60351001578E+03  0.60351001578E+03  0.00000000000E+00 0.  1.
         21   -1    0    0  502  504 -0.00000000000E+00 -0.00000000000E+00 -0.61358704859E+02  0.61358704859E+02  0.00000000000E+00 0.  1.
          6    2    1    2  502    0 -0.22157915576E+01  0.81232145933E+02  0.31352174713E+03  0.36706640372E+03  0.17273762633E+03 0.  0.
         24    2    3    3    0    0 -0.12241748333E+02  0.37682323265E+02  0.30919470711E+03  0.32192307487E+03  0.80394535540E+02 0.  0.
         -6    2    1    2    0  503  0.22157915576E+01 -0.81232145933E+02  0.22862956380E+03  0.29780231692E+03  0.17265911866E+03 0.  0.
        -24    2    5    5    0    0  0.68038803020E+02 -0.58961222185E+02  0.15057345477E+03  0.19319108885E+03  0.80899487588E+02 0.  0.
          4    1    4    4  501    0 -0.80781948692E+01 -0.25111521900E+02  0.10411952061E+03  0.10740912594E+03  0.00000000000E+00 0. -1.
         -3    1    4    4    0  501 -0.41635534639E+01  0.62793845165E+02  0.20507518650E+03  0.21451394893E+03  0.00000000000E+00 0.  1.
          5    1    3    3  502    0  0.10025956776E+02  0.43549822668E+02  0.43270400194E+01  0.45143328843E+02  0.47000000000E+01 0. -1.
         11    1    6    6    0    0  0.81936060644E+02 -0.60482343208E+02  0.14687736034E+03  0.17873049783E+03  0.00000000000E+00 0. -1.
        -12    1    6    6    0    0 -0.13897257624E+02  0.15211210230E+01  0.36960944281E+01  0.14460591020E+02  0.00000000000E+00 0.  1.
         -5    1    5    5    0  503 -0.65823011462E+02 -0.22270923748E+02  0.78056109027E+02  0.10461122807E+03  0.47000000000E+01 0.  1.
<mgrwt>
<rscale>  2 0.19087975E+03</rscale>
<asrwt>0</asrwt>
<pdfrwt beam="1">  1       21 0.92847691E-01 0.19089751E+03</pdfrwt>
<pdfrwt beam="2">  1       21 0.94398011E-02 0.19089751E+03</pdfrwt>
<totfact> 0.87853366E+04</totfact>
</mgrwt>
</event>
<event>
12    1  0.2769346E-001  0.1805679E+03  0.7546771E-02  0.1167962E+00
         21   -1    0    0  504  503  0.00000000000E+00  0.00000000000E+00  0.20239378852E+03  0.20239378852E+03  0.00000000000E+00 0.  1.
         21   -1    0    0  502  504 -0.00000000000E+00 -0.00000000000E+00 -0.16419375945E+03  0.16419375945E+03  0.00000000000E+00 0.  1.
          6    2    1    2  502    0  0.42080071356E+02  0.65994400870E+01  0.53351235068E+02  0.18828470621E+03  0.17547219522E+03 0.  0.
         24    2    3    3    0    0 -0.43714017374E+02 -0.90608890692E+01  0.25546841851E+02  0.96627486895E+02  0.81799847612E+02 0.  0.
         -6    2    1    2    0  503 -0.42080071356E+02 -0.65994400870E+01 -0.15151205991E+02  0.17830284176E+03  0.17247625727E+03 0.  0.
        -24    2    5    5    0    0 -0.44202572980E+02  0.57867991337E+02  0.10185560308E+02  0.10884352666E+03  0.80253322533E+02 0.  0.
          2    1    4    4  501    0 -0.29232018272E+02 -0.21995927357E+02 -0.23768857881E+02  0.43626715640E+02  0.00000000000E+00 0. -1.
         -1    1    4    4    0  501 -0.14481999102E+02  0.12935038288E+02  0.49315699733E+02  0.53000771255E+02  0.00000000000E+00 0.  1.
          5    1    3    3  502    0  0.85794088730E+02  0.15660329156E+02  0.27804393217E+02  0.91657219314E+02  0.47000000000E+01 0. -1.
         13    1    6    6    0    0 -0.57351933547E+02  0.63405577197E+02 -0.78402191348E+01  0.85854414780E+02  0.00000000000E+00 0. -1.
        -14    1    6    6    0    0  0.13149360567E+02 -0.55375858598E+01  0.18025779443E+02  0.22989111879E+02  0.00000000000E+00 0.  1.
         -5    1    5    5    0  503  0.21225016241E+01 -0.64467431424E+02 -0.25336766299E+02  0.69459315099E+02  0.47000000000E+01 0.  1.
<mgrwt>
<rscale>  2 0.17983599E+03</rscale>
<asrwt>0</asrwt>
<pdfrwt beam="1">  1       21 0.31137506E-01 0.18056793E+03</pdfrwt>
<pdfrwt beam="2">  1       21 0.25260578E-01 0.18056793E+03</pdfrwt>
<totfact> 0.14772164E+05</totfact>
</mgrwt>
</event>
<event>
12    1  0.2769346E-001  0.2336651E+03  0.7546771E-02  0.1125031E+00
         21   -1    0    0  504  503  0.00000000000E+00  0.00000000000E+00  0.25854732801E+03  0.25854732801E+03  0.00000000000E+00 0.  1.
         21   -1    0    0  502  504 -0.00000000000E+00 -0.00000000000E+00 -0.28863327859E+03  0.28863327859E+03  0.00000000000E+00 0. -1.
          6    2    1    2  502    0  0.10742933913E+03 -0.11002670968E+03  0.13093182466E+03  0.26784794572E+03  0.17593305423E+03 0.  0.
         24    2    3    3    0    0  0.16284498400E+02 -0.82420820228E+02  0.12814686796E+03  0.17245762594E+03  0.79130502864E+02 0.  0.
         -6    2    1    2    0  503 -0.10742933913E+03  0.11002670968E+03 -0.16101777524E+03  0.27933266087E+03  0.16868038338E+03 0.  0.
        -24    2    5    5    0    0 -0.62053355081E+02  0.26400152670E+01 -0.34516834431E+02  0.10724123142E+03  0.80322358653E+02 0.  0.
          4    1    4    4  501    0 -0.23287135230E+01 -0.90262692789E+02  0.81536493527E+02  0.12165926349E+03  0.00000000000E+00 0. -1.
         -3    1    4    4    0  501  0.18613211923E+02  0.78418725615E+01  0.46610374430E+02  0.50798362453E+02  0.00000000000E+00 0.  1.
          5    1    3    3  502    0  0.91144840730E+02 -0.27605889452E+02  0.27849567015E+01  0.95390319781E+02  0.47000000000E+01 0. -1.
         13    1    6    6    0    0 -0.72990781692E+02  0.23994958931E+02 -0.31575050411E+02  0.83068622684E+02  0.00000000000E+00 0. -1.
        -14    1    6    6    0    0  0.10937426611E+02 -0.21354943664E+02 -0.29417840201E+01  0.24172608734E+02  0.00000000000E+00 0.  1.
         -5    1    5    5    0  503 -0.45375984049E+02  0.10738669441E+03 -0.12650094081E+03  0.17209142945E+03  0.47000000000E+01 0.  1.
<mgrwt>
<rscale>  2 0.23230049E+03</rscale>
<asrwt>0</asrwt>
<pdfrwt beam="1">  1       21 0.39776512E-01 0.23366510E+03</pdfrwt>
<pdfrwt beam="2">  1       21 0.44405120E-01 0.23366510E+03</pdfrwt>
<totfact> 0.29038770E+04</totfact>
</mgrwt>
</event>
<event>
12    1  0.2769346E-001  0.2075524E+03  0.7546771E-02  0.1143592E+00
         21   -1    0    0  504  503  0.00000000000E+00  0.00000000000E+00  0.10245485555E+04  0.10245485555E+04  0.00000000000E+00 0. -1.
         21   -1    0    0  502  504 -0.00000000000E+00 -0.00000000000E+00 -0.52705011032E+02  0.52705011032E+02  0.00000000000E+00 0. -1.
          6    2    1    2  502    0 -0.25623904263E+02  0.11125990976E+03  0.24320176915E+03  0.31972658841E+03  0.17332812476E+03 0.  0.
         24    2    3    3    0    0  0.49981681016E+02  0.21409767160E+02  0.13866227542E+03  0.16243752840E+03  0.64824204132E+02 0.  0.
         -6    2    1    2    0  503  0.25623904263E+02 -0.11125990976E+03  0.72864177534E+03  0.75752697815E+03  0.17289573116E+03 0.  0.
        -24    2    5    5    0    0  0.14047225430E+02 -0.98170191441E+02  0.72836950384E+03  0.73942934432E+03  0.79993187772E+02 0.  0.
          4    1    4    4  501    0  0.13810330445E+02  0.16900776535E+02  0.30814426485E+01  0.22042158771E+02  0.00000000000E+00 0. -1.
         -3    1    4    4    0  501  0.36171350571E+02  0.45089906244E+01  0.13558083277E+03  0.14039536963E+03  0.00000000000E+00 0.  1.
          5    1    3    3  502    0 -0.75605585279E+02  0.89850142596E+02  0.10453949373E+03  0.15728906001E+03  0.47000000000E+01 0. -1.
         13    1    6    6    0    0 -0.23379011986E+01 -0.44283326534E+01  0.32302870798E+03  0.32306751940E+03  0.00000000000E+00 0. -1.
        -14    1    6    6    0    0  0.16385126629E+02 -0.93741858788E+02  0.40534079586E+03  0.41636182492E+03  0.00000000000E+00 0.  1.
         -5    1    5    5    0  503  0.11576678833E+02 -0.13089718314E+02  0.27227150703E+00  0.18097633826E+02  0.47000000000E+01 0.  1.
<mgrwt>
<rscale>  2 0.20746208E+03</rscale>
<asrwt>0</asrwt>
<pdfrwt beam="1">  1       21 0.15762284E+00 0.20755238E+03</pdfrwt>
<pdfrwt beam="2">  1       21 0.81084640E-02 0.20755238E+03</pdfrwt>
<totfact> 0.30428685E+04</totfact>
</mgrwt>
</event>
<event>
12    1  0.2769346E-001  0.1893152E+03  0.7546771E-02  0.1159119E+00
         21   -1    0    0  504  503  0.00000000000E+00  0.00000000000E+00  0.14515969738E+03  0.14515969738E+03  0.00000000000E+00 0.  1.
         21   -1    0    0  502  504 -0.00000000000E+00 -0.00000000000E+00 -0.25406896353E+03  0.25406896353E+03  0.00000000000E+00 0. -1.
          6    2    1    2  502    0  0.26752208894E+02 -0.72349752701E+02 -0.88513833449E+02  0.20898553397E+03  0.17288749897E+03 0.  0.
         24    2    3    3    0    0  0.63061746491E+02 -0.11690509306E+02 -0.92189400874E+02  0.13803818641E+03  0.80263337803E+02 0.  0.
         -6    2    1    2    0  503 -0.26752208894E+02  0.72349752701E+02 -0.20395432700E+02  0.19024312694E+03  0.17270294229E+03 0.  0.
        -24    2    5    5    0    0 -0.10589041704E+02  0.91330585190E+02  0.34349318038E+02  0.12990576116E+03  0.85101278122E+02 0.  0.
          2    1    4    4  501    0  0.41622618123E+02 -0.74151490141E+00 -0.10341275373E+03  0.11147730629E+03  0.00000000000E+00 0. -1.
         -1    1    4    4    0  501  0.21439128368E+02 -0.10948994404E+02  0.11223352852E+02  0.26560880123E+02  0.00000000000E+00 0.  1.
          5    1    3    3  502    0 -0.36309537597E+02 -0.60659243395E+02  0.36755674249E+01  0.70947347559E+02  0.47000000000E+01 0. -1.
         13    1    6    6    0    0  0.61697894984E+01  0.46006427765E+02 -0.25517331824E+02  0.52969726463E+02  0.00000000000E+00 0. -1.
        -14    1    6    6    0    0 -0.16758831202E+02  0.45324157425E+02  0.59866649862E+02  0.76936034699E+02  0.00000000000E+00 0.  1.
         -5    1    5    5    0  503 -0.16163167190E+02 -0.18980832489E+02 -0.54744750737E+02  0.60337365777E+02  0.47000000000E+01 0.  1.
<mgrwt>
<rscale>  2 0.18927308E+03</rscale>
<asrwt>0</asrwt>
<pdfrwt beam="1">  1       21 0.22332261E-01 0.18931523E+03</pdfrwt>
<pdfrwt beam="2">  1       21 0.39087533E-01 0.18931523E+03</pdfrwt>
<totfact> 0.11855824E+05</totfact>
</mgrwt>
</event>
<event>
12    1  0.2769346E-001  0.2551200E+03  0.7546771E-02  0.1110274E+00
         21   -1    0    0  504  503  0.00000000000E+00  0.00000000000E+00  0.99419988565E+02  0.99419988565E+02  0.00000000000E+00 0.  1.
         21   -1    0    0  502  504 -0.00000000000E+00 -0.00000000000E+00 -0.84534255378E+03  0.84534255378E+03  0.00000000000E+00 0. -1.
          6    2    1    2  502    0 -0.17422998655E+03  0.68326098271E+02 -0.59830692883E+03  0.65001419708E+03  0.17182180130E+03 0.  0.
         24    2    3    3    0    0 -0.12613912877E+03  0.63807588920E+01 -0.51400234006E+03  0.53477831135E+03  0.76404468537E+02 0.  0.
         -6    2    1    2    0  503  0.17422998655E+03 -0.68326098271E+02 -0.14761563638E+03  0.29474834527E+03  0.17338300671E+03 0.  0.
        -24    2    5    5    0    0  0.13966120816E+03  0.17238454319E+02 -0.83389651750E+02  0.18221674881E+03  0.80291295632E+02 0.  0.
          2    1    4    4  501    0 -0.91670314510E+02 -0.25727690991E+02 -0.40484165657E+03  0.41588715722E+03  0.00000000000E+00 0. -1.
         -1    1    4    4    0  501 -0.34468814264E+02  0.32108449883E+02 -0.10916068349E+03  0.11889115413E+03  0.00000000000E+00 0.  1.
          5    1    3    3  502    0 -0.48090857773E+02  0.61945339379E+02 -0.84304588775E+02  0.11523588573E+03  0.47000000000E+01 0. -1.
         13    1    6    6    0    0  0.90203996116E+02 -0.20389480231E+02 -0.75870511388E+02  0.11961950643E+03  0.00000000000E+00 0. -1.
        -14    1    6    6    0    0  0.49457212048E+02  0.37627934550E+02 -0.75191403617E+01  0.62597242382E+02  0.00000000000E+00 0.  1.
         -5    1    5    5    0  503  0.34568778382E+02 -0.85564552590E+02 -0.64225984634E+02  0.11253159646E+03  0.47000000000E+01 0.  1.
<mgrwt>
<rscale>  2 0.25485497E+03</rscale>
<asrwt>0</asrwt>
<pdfrwt beam="1">  1       21 0.15295383E-01 0.25511999E+03</pdfrwt>
<pdfrwt beam="2">  1       21 0.13005270E+00 0.25511999E+03</pdfrwt>
<totfact> 0.15739556E+04</totfact>
</mgrwt>
</event>
<event>
12    1  0.2769346E-001  0.1865730E+03  0.7546771E-02  0.1161682E+00
         21   -1    0    0  504  503  0.00000000000E+00  0.00000000000E+00  0.96621657934E+02  0.96621657934E+02  0.00000000000E+00 0.  1.
         21   -1    0    0  502  504 -0.00000000000E+00 -0.00000000000E+00 -0.39727014387E+03  0.39727014387E+03  0.00000000000E+00 0.  1.
          6    2    1    2  502    0 -0.36475309080E+02  0.62437649276E+02 -0.22632854839E+03  0.29306119186E+03  0.17155565318E+03 0.  0.
         24    2    3    3    0    0 -0.59500710331E+02  0.13251950064E+02 -0.21448230882E+03  0.23727745317E+03  0.81129404501E+02 0.  0.
         -6    2    1    2    0  503  0.36475309080E+02 -0.62437649276E+02 -0.74319937544E+02  0.20083060994E+03  0.17199003621E+03 0.  0.
        -24    2    5    5    0    0 -0.38826079971E+02 -0.64626290796E+02 -0.50867343925E+02  0.12179135709E+03  0.81003864325E+02 0.  0.
          4    1    4    4  501    0 -0.29122645887E+02  0.35124816103E+02 -0.18226435430E+03  0.18788873318E+03  0.00000000000E+00 0. -1.
         -3    1    4    4    0  501 -0.30378064445E+02 -0.21872866039E+02 -0.32217954525E+02  0.49388719987E+02  0.00000000000E+00 0.  1.
          5    1    3    3  502    0  0.23025401251E+02  0.49185699212E+02 -0.11846239566E+02  0.55783738684E+02  0.47000000000E+01 0. -1.
         11    1    6    6    0    0 -0.60431960822E+01 -0.20976808694E+02 -0.62303299937E+02  0.66017027387E+02  0.00000000000E+00 0. -1.
        -12    1    6    6    0    0 -0.32782883888E+02 -0.43649482102E+02  0.11435956012E+02  0.55774329702E+02  0.00000000000E+00 0.  1.
         -5    1    5    5    0  503  0.75301389050E+02  0.21886415196E+01 -0.23452593618E+02  0.79039252856E+02  0.47000000000E+01 0.  1.
<mgrwt>
<rscale>  2 0.18647282E+03</rscale>
<asrwt>0</asrwt>
<pdfrwt beam="1">  1       21 0.14864871E-01 0.18657299E+03</pdfrwt>
<pdfrwt beam="2">  1       21 0.61118483E-01 0.18657299E+03</pdfrwt>
<totfact> 0.99543871E+04</totfact>
</mgrwt>
</event>
<event>
12    1  0.2769346E-001  0.1984634E+03  0.7546771E-02  0.1151095E+00
         21   -1    0    0  504  503  0.00000000000E+00  0.00000000000E+00  0.41479709867E+03  0.41479709867E+03  0.00000000000E+00 0.  1.
         21   -1    0    0  502  504 -0.00000000000E+00 -0.00000000000E+00 -0.21716514127E+03  0.21716514127E+03  0.00000000000E+00 0. -1.
          6    2    1    2  502    0  0.96259112007E+02 -0.10029363289E+02 -0.13830973904E+03  0.24190353615E+03  0.17326665033E+03 0.  0.
         24    2    3    3    0    0 -0.18967397691E+02  0.17040813220E+01 -0.62803371741E+02  0.10356292837E+03  0.80114608915E+02 0.  0.
         -6    2    1    2    0  503 -0.96259112007E+02  0.10029363289E+02  0.33594169644E+03  0.39005870379E+03  0.17298139849E+03 0.  0.
        -24    2    5    5    0    0 -0.29901845462E+02 -0.54270632339E+02  0.13807208259E+03  0.17162736367E+03  0.80948317303E+02 0.  0.
          2    1    4    4  501    0 -0.29333205542E+02 -0.15514737325E+02  0.43491528467E+01  0.33467284804E+02  0.00000000000E+00 0. -1.
         -1    1    4    4    0  501  0.10365807852E+02  0.17218818648E+02 -0.67152524588E+02  0.70095643563E+02  0.00000000000E+00 0.  1.
          5    1    3    3  502    0  0.11522650970E+03 -0.11733444611E+02 -0.75506367295E+02  0.13834060778E+03  0.47000000000E+01 0. -1.
         13    1    6    6    0    0  0.94916679845E+01 -0.22984635491E+02  0.11246090657E+03  0.11517743154E+03  0.00000000000E+00 0. -1.
        -14    1    6    6    0    0 -0.39393513447E+02 -0.31285996848E+02  0.25611176017E+02  0.56449932130E+02  0.00000000000E+00 0.  1.
         -5    1    5    5    0  503 -0.66357266545E+02  0.64299995628E+02  0.19786961384E+03  0.21843134011E+03  0.47000000000E+01 0.  1.
<mgrwt>
<rscale>  2 0.19840116E+03</rscale>
<asrwt>0</asrwt>
<pdfrwt beam="1">  1       21 0.63814938E-01 0.19846344E+03</pdfrwt>
<pdfrwt beam="2">  1       21 0.33410022E-01 0.19846344E+03</pdfrwt>
<totfact> 0.19502620E+04</totfact>
</mgrwt>
</event>
<event>
12    1  0.2769346E-001  0.2229105E+03  0.7546771E-02  0.1131835E+00
         21   -1    0    0  504  503  0.00000000000E+00  0.00000000000E+00  0.23150474770E+02  0.23150474770E+02  0.00000000000E+00 0.  1.
         21   -1    0    0  502  504 -0.00000000000E+00 -0.00000000000E+00 -0.24175274251E+04  0.24175274251E+04  0.00000000000E+00 0. -1.
          6    2    1    2  502    0 -0.10563517346E+03  0.91874878917E+02 -0.16086165730E+04  0.16239108329E+04  0.17274064602E+03 0.  0.
         24    2    3    3    0    0 -0.13027761020E+03  0.89847139788E+02 -0.15494658558E+04  0.15596281854E+04  0.80937470730E+02 0.  0.
         -6    2    1    2    0  503  0.10563517346E+03 -0.91874878917E+02 -0.78576037724E+03  0.81676706695E+03  0.17346264144E+03 0.  0.
        -24    2    5    5    0    0  0.19916060936E+02 -0.39083882121E+02 -0.58502027452E+03  0.59214886993E+03  0.80419918142E+02 0.  0.
          2    1    4    4  501    0 -0.93525285210E+02  0.92103331225E+02 -0.13788697629E+04  0.13851035433E+04  0.00000000000E+00 0. -1.
         -1    1    4    4    0  501 -0.36752324991E+02 -0.22561914371E+01 -0.17059609291E+03  0.17452464212E+03  0.00000000000E+00 0.  1.
          5    1    3    3  502    0  0.24642436736E+02  0.20277391293E+01 -0.59150717210E+02  0.64282647431E+02  0.47000000000E+01 0. -1.
         13    1    6    6    0    0  0.45592318979E+02 -0.35579944073E+02 -0.49814855752E+03  0.50149434427E+03  0.00000000000E+00 0. -1.
        -14    1    6    6    0    0 -0.25676258043E+02 -0.35039380481E+01 -0.86871716999E+02  0.90654525663E+02  0.00000000000E+00 0.  1.
         -5    1    5    5    0  503  0.85719112528E+02 -0.52790996796E+02 -0.20074010272E+03  0.22461819702E+03  0.47000000000E+01 0.  1.
<mgrwt>
<rscale>  2 0.22276998E+03</rscale>
<asrwt>0</asrwt>
<pdfrwt beam="1">  1       21 0.35616129E-02 0.22291046E+03</pdfrwt>
<pdfrwt beam="2">  1       21 0.37192715E+00 0.22291046E+03</pdfrwt>
<totfact> 0.59354154E+03</totfact>
</mgrwt>
</event>
<event>
12    1  0.2769346E-001  0.2157895E+03  0.7546771E-02  0.1137177E+00
         21   -1    0    0  504  503  0.00000000000E+00  0.00000000000E+00  0.41375403121E+03  0.41375403121E+03  0.00000000000E+00 0.  1.
         21   -1    0    0  502  504 -0.00000000000E+00 -0.00000000000E+00 -0.12851796901E+03  0.12851796901E+03  0.00000000000E+00 0. -1.
          6    2    1    2  502    0  0.60489476813E+02  0.11430029545E+03  0.45911453518E+02  0.22002775089E+03  0.17199074176E+03 0.  0.
         24    2    3    3    0    0  0.36590869724E+02  0.13533463903E+03  0.72646116526E+02  0.17818973902E+03  0.82581890125E+02 0.  0.
         -6    2    1    2    0  503 -0.60489476813E+02 -0.11430029545E+03  0.23932460869E+03  0.32224424933E+03  0.17274707974E+03 0.  0.
        -24    2    5    5    0    0 -0.67881799837E+02 -0.83272117809E+02  0.25352365223E+03  0.28701504149E+03  0.81001280523E+02 0.  0.
          2    1    4    4  501    0 -0.26635555400E+01  0.17842056582E+02 -0.17384303008E+02  0.25052894090E+02  0.00000000000E+00 0. -1.
         -1    1    4    4    0  501  0.39254425264E+02  0.11749258245E+03  0.90030419534E+02  0.15313684493E+03  0.00000000000E+00 0.  1.
          5    1    3    3  502    0  0.23898607089E+02 -0.21034343586E+02 -0.26734663008E+02  0.41838011868E+02  0.47000000000E+01 0. -1.
         13    1    6    6    0    0 -0.12463065946E+02  0.43484147652E+01  0.10534292900E+03  0.10616670577E+03  0.00000000000E+00 0. -1.
        -14    1    6    6    0    0 -0.55418733891E+02 -0.87620532574E+02  0.14818072323E+03  0.18084833572E+03  0.00000000000E+00 0.  1.
         -5    1    5    5    0  503  0.73923230241E+01 -0.31028177637E+02 -0.14199043549E+02  0.35229207837E+02  0.47000000000E+01 0.  1.
<mgrwt>
<rscale>  2 0.21563804E+03</rscale>
<asrwt>0</asrwt>
<pdfrwt beam="1">  1       21 0.63654466E-01 0.21578945E+03</pdfrwt>
<pdfrwt beam="2">  1       21 0.19771995E-01 0.21578945E+03</pdfrwt>
<totfact> 0.53199545E+04</totfact>
</mgrwt>
</event>
<event>
12    1  0.2769346E-001  0.2197696E+03  0.7546771E-02  0.1134283E+00
         21   -1    0    0  504  503  0.00000000000E+00  0.00000000000E+00  0.43727687450E+02  0.43727687450E+02  0.00000000000E+00 0. -1.
         21   -1    0    0  502  504 -0.00000000000E+00 -0.00000000000E+00 -0.11172128217E+04  0.11172128217E+04  0.00000000000E+00 0. -1.
          6    2    1    2  502    0 -0.11920630256E+03 -0.68176203034E+02 -0.61057810607E+03  0.64851334533E+03  0.17001705275E+03 0.  0.
         24    2    3    3    0    0 -0.92308562980E+01  0.93867554713E+00 -0.16557626847E+03  0.18491848913E+03  0.81812328675E+02 0.  0.
         -6    2    1    2    0  503  0.11920630256E+03  0.68176203034E+02 -0.46290702813E+03  0.51242716377E+03  0.17158247069E+03 0.  0.
        -24    2    5    5    0    0  0.13884987229E+03  0.93998888741E+02 -0.37827427279E+03  0.42166663157E+03  0.81217267902E+02 0.  0.
          4    1    4    4  501    0  0.25365798491E+02 -0.22484695975E+02 -0.39241683442E+02  0.51854556266E+02  0.00000000000E+00 0. -1.
         -3    1    4    4    0  501 -0.34596654789E+02  0.23423371522E+02 -0.12633458503E+03  0.13306393287E+03  0.00000000000E+00 0.  1.
          5    1    3    3  502    0 -0.10997544627E+03 -0.69114878581E+02 -0.44500183760E+03  0.46359485620E+03  0.47000000000E+01 0. -1.
         11    1    6    6    0    0  0.97439236561E+01 -0.10467915734E+02 -0.93553725502E+01  0.17089303777E+02  0.00000000000E+00 0. -1.
        -12    1    6    6    0    0  0.12910594864E+03  0.10446680448E+03 -0.36891890024E+03  0.40457732779E+03  0.00000000000E+00 0.  1.
         -5    1    5    5    0  503 -0.19643569729E+02 -0.25822685707E+02 -0.84632755343E+02  0.90760532203E+02  0.47000000000E+01 0.  1.
<mgrwt>
<rscale>  2 0.21946397E+03</rscale>
<asrwt>0</asrwt>
<pdfrwt beam="1">  1       21 0.67273355E-02 0.21976961E+03</pdfrwt>
<pdfrwt beam="2">  1       21 0.17187892E+00 0.21976961E+03</pdfrwt>
<totfact> 0.32966965E+04</totfact>
</mgrwt>
</event>
<event>
12    1  0.2769346E-001  0.3406378E+03  0.7546771E-02  0.1066582E+00
         21   -1    0    0  504  503  0.00000000000E+00  0.00000000000E+00  0.42406138584E+03  0.42406138584E+03  0.00000000000E+00 0. -1.
         21   -1    0    0  502  504 -0.00000000000E+00 -0.00000000000E+00 -0.28491361654E+03  0.28491361654E+03  0.00000000000E+00 0.  1.
          6    2    1    2  502    0 -0.27608387095E+03  0.10093121251E+03  0.14142179685E+03  0.36832960275E+03  0.17104723961E+03 0.  0.
         24    2    3    3    0    0 -0.11073650823E+03 -0.27713884032E+01  0.20637860002E+02  0.13875427918E+03  0.80972673629E+02 0.  0.
         -6    2    1    2    0  503  0.27608387095E+03 -0.10093121251E+03 -0.22740275527E+01  0.34064539963E+03  0.17211828383E+03 0.  0.
        -24    2    5    5    0    0  0.10780265509E+03  0.38433934901E+01  0.34329916059E+02  0.13900655326E+03  0.80672762415E+02 0.  0.
          2    1    4    4  501    0 -0.88503880174E+02 -0.36574447130E+02  0.68408422228E+01  0.96007416959E+02  0.00000000000E+00 0. -1.
         -1    1    4    4    0  501 -0.22232628059E+02  0.33803058727E+02  0.13797017780E+02  0.42746862216E+02  0.00000000000E+00 0.  1.
          5    1    3    3  502    0 -0.16534736272E+03  0.10370260091E+03  0.12078393685E+03  0.22957532358E+03  0.47000000000E+01 0. -1.
         13    1    6    6    0    0 -0.71716082922E+01  0.15152394830E+02 -0.40917398510E+01  0.17255995178E+02  0.00000000000E+00 0. -1.
        -14    1    6    6    0    0  0.11497426338E+03 -0.11309001339E+02  0.38421655910E+02  0.12175055808E+03  0.00000000000E+00 0.  1.
         -5    1    5    5    0  503  0.16828121587E+03 -0.10477460600E+03 -0.36603943611E+02  0.20163884637E+03  0.47000000000E+01 0.  1.
<mgrwt>
<rscale>  2 0.34050275E+03</rscale>
<asrwt>0</asrwt>
<pdfrwt beam="1">  1       21 0.65240214E-01 0.34063781E+03</pdfrwt>
<pdfrwt beam="2">  1       21 0.43832864E-01 0.34063781E+03</pdfrwt>
<totfact> 0.10006698E+04</totfact>
</mgrwt>
</event>
<event>
12    1  0.2769346E-001  0.2112404E+03  0.7546771E-02  0.1140601E+00
         21   -1    0    0  504  503  0.00000000000E+00  0.00000000000E+00  0.55322507239E+03  0.55322507239E+03  0.00000000000E+00 0.  1.
         21   -1    0    0  502  504 -0.00000000000E+00 -0.00000000000E+00 -0.10897155541E+03  0.10897155541E+03  0.00000000000E+00 0.  1.
          6    2    1    2  502    0  0.11911246126E+03 -0.43942032278E+01  0.53308275583E+02  0.21786297266E+03  0.17440015815E+03 0.  0.
         24    2    3    3    0    0  0.12136613699E+03  0.16171553536E+02 -0.14452525459E+02  0.14685842659E+03  0.79795135289E+02 0.  0.
         -6    2    1    2    0  503 -0.11911246126E+03  0.43942032278E+01  0.39094524139E+03  0.44433365514E+03  0.17431904048E+03 0.  0.
        -24    2    5    5    0    0 -0.30282996068E+02  0.41722442833E+02  0.10301195864E+03  0.14066980040E+03  0.80738510238E+02 0.  0.
          2    1    4    4  501    0  0.40525975851E+02  0.44551163123E+02 -0.18043289213E+01  0.60252937332E+02  0.00000000000E+00 0. -1.
         -1    1    4    4    0  501  0.80840161140E+02 -0.28379609588E+02 -0.12648196537E+02  0.86605489255E+02  0.00000000000E+00 0.  1.
          5    1    3    3  502    0 -0.22536757301E+01 -0.20565756763E+02  0.67760801041E+02  0.71004546075E+02  0.47000000000E+01 0. -1.
         13    1    6    6    0    0 -0.53807782756E+02  0.28227396777E+02  0.41894615435E+02  0.73805299379E+02  0.00000000000E+00 0. -1.
        -14    1    6    6    0    0  0.23524786688E+02  0.13495046055E+02  0.61117343201E+02  0.66864501020E+02  0.00000000000E+00 0.  1.
         -5    1    5    5    0  503 -0.88829465192E+02 -0.37328239605E+02  0.28793328275E+03  0.30366385474E+03  0.47000000000E+01 0.  1.
<mgrwt>
<rscale>  2 0.21122365E+03</rscale>
<asrwt>0</asrwt>
<pdfrwt beam="1">  1       21 0.85111548E-01 0.21124039E+03</pdfrwt>
<pdfrwt beam="2">  1       21 0.16764855E-01 0.21124039E+03</pdfrwt>
<totfact> 0.37862765E+04</totfact>
</mgrwt>
</event>
<event>
12    1  0.2769346E-001  0.2621059E+03  0.7546771E-02  0.1106021E+00
         21   -1    0    0  504  503  0.00000000000E+00  0.00000000000E+00  0.77117288498E+03  0.77117288498E+03  0.00000000000E+00 0. -1.
         21   -1    0    0  502  504 -0.00000000000E+00 -0.00000000000E+00 -0.15694050756E+03  0.15694050756E+03  0.00000000000E+00 0.  1.
          6    2    1    2  502    0 -0.13641110113E+03 -0.14140973486E+03  0.15819647416E+01  0.26211067927E+03  0.17347854032E+03 0.  0.
         24    2    3    3    0    0 -0.10954320207E+03 -0.70005759077E+02  0.61758915455E+02  0.16482878396E+03  0.80335826136E+02 0.  0.
         -6    2    1    2    0  503  0.13641110113E+03  0.14140973486E+03  0.61265041268E+03  0.66600271327E+03  0.17208830379E+03 0.  0.
        -24    2    5    5    0    0  0.16238249454E+03  0.88127803049E+02  0.47874982955E+03  0.51949355418E+03  0.80855236966E+02 0.  0.
          4    1    4    4  501    0  0.64487810362E+01  0.69908641162E+01 -0.46418312313E+01  0.10583267696E+02  0.00000000000E+00 0. -1.
         -3    1    4    4    0  501 -0.11599198311E+03 -0.76996623193E+02  0.66400746686E+02  0.15424551627E+03  0.00000000000E+00 0.  1.
          5    1    3    3  502    0 -0.26867899055E+02 -0.71403975778E+02 -0.60176950713E+02  0.97281895303E+02  0.47000000000E+01 0. -1.
         11    1    6    6    0    0  0.12925314914E+03  0.10203306035E+03  0.37079325256E+03  0.40571511940E+03  0.00000000000E+00 0. -1.
        -12    1    6    6    0    0  0.33129345392E+02 -0.13905257297E+02  0.10795657699E+03  0.11377843478E+03  0.00000000000E+00 0.  1.
         -5    1    5    5    0  503 -0.25971393410E+02  0.53281931807E+02  0.13390058313E+03  0.14650915908E+03  0.47000000000E+01 0.  1.
<mgrwt>
<rscale>  2 0.26187609E+03</rscale>
<asrwt>0</asrwt>
<pdfrwt beam="1">  1       21 0.11864198E+00 0.26210591E+03</pdfrwt>
<pdfrwt beam="2">  1       21 0.24144694E-01 0.26210591E+03</pdfrwt>
<totfact> 0.84024615E+03</totfact>
</mgrwt>
</event>
<event>
12    1  0.2769346E-001  0.2238053E+03  0.7546771E-02  0.1131440E+00
         21   -1    0    0  504  503  0.00000000000E+00  0.00000000000E+00  0.71900854129E+02  0.71900854129E+02  0.00000000000E+00 0.  1.
         21   -1    0    0  502  504 -0.00000000000E+00 -0.00000000000E+00 -0.10571467877E+04  0.10571467877E+04  0.00000000000E+00 0. -1.
          6    2    1    2  502    0  0.11466070765E+03 -0.82712395020E+02 -0.82651517263E+03  0.85628040405E+03  0.17349461549E+03 0.  0.
         24    2    3    3    0    0  0.49021929701E+01 -0.62238343539E+01 -0.44077055427E+03  0.44796871912E+03  0.79589724140E+02 0.  0.
         -6    2    1    2    0  503 -0.11466070765E+03  0.82712395020E+02 -0.15873076099E+03  0.27276723782E+03  0.17093300845E+03 0.  0.
        -24    2    5    5    0    0 -0.73134966840E+02  0.36671987125E+02 -0.17412193405E+03  0.20871191394E+03  0.80923773331E+02 0.  0.
          4    1    4    4  501    0  0.15078087691E+02 -0.34375328934E+02 -0.35779723146E+03  0.35976085225E+03  0.00000000000E+00 0. -1.
         -3    1    4    4    0  501 -0.10175894721E+02  0.28151494580E+02 -0.82973322803E+02  0.88207866868E+02  0.00000000000E+00 0.  1.
          5    1    3    3  502    0  0.10975851468E+03 -0.76488560666E+02 -0.38574461837E+03  0.40831168494E+03  0.47000000000E+01 0. -1.
         11    1    6    6    0    0  0.16792676588E+02  0.13583928448E+02 -0.24880962745E+02  0.32948132059E+02  0.00000000000E+00 0. -1.
        -12    1    6    6    0    0 -0.89927643428E+02  0.23088058677E+02 -0.14924097131E+03  0.17576378189E+03  0.00000000000E+00 0.  1.
         -5    1    5    5    0  503 -0.41525740808E+02  0.46040407895E+02  0.15391173066E+02  0.64055323879E+02  0.47000000000E+01 0.  1.
<mgrwt>
<rscale>  2 0.22330866E+03</rscale>
<asrwt>0</asrwt>
<pdfrwt beam="1">  1       21 0.11061669E-01 0.22380527E+03</pdfrwt>
<pdfrwt beam="2">  1       21 0.16263797E+00 0.22380527E+03</pdfrwt>
<totfact> 0.15992252E+04</totfact>
</mgrwt>
</event>
<event>
12    1  0.2769346E-001  0.2436460E+03  0.7546771E-02  0.1117940E+00
         21   -1    0    0  504  503  0.00000000000E+00  0.00000000000E+00  0.73676537070E+03  0.73676537070E+03  0.00000000000E+00 0. -1.
         21   -1    0    0  502  504 -0.00000000000E+00 -0.00000000000E+00 -0.11442765624E+03  0.11442765624E+03  0.00000000000E+00 0. -1.
          6    2    1    2  502    0 -0.14646724276E+03  0.80522021747E+02  0.74422023611E+02  0.25154731139E+03  0.17262955448E+03 0.  0.
         24    2    3    3    0    0 -0.62152960080E+02  0.36015260616E+02 -0.24714092449E+02  0.11392533074E+03  0.84900560506E+02 0.  0.
         -6    2    1    2    0  503  0.14646724276E+03 -0.80522021747E+02  0.54791569086E+03  0.59964571555E+03  0.17727642455E+03 0.  0.
        -24    2    5    5    0    0  0.34557210516E+02 -0.84833667148E+02  0.36864020221E+03  0.38821195185E+03  0.80137188577E+02 0.  0.
          4    1    4    4  501    0 -0.36071723521E+02  0.62050159338E+02 -0.27745072066E+02  0.76949207505E+02  0.00000000000E+00 0. -1.
         -3    1    4    4    0  501 -0.26081236559E+02 -0.26034898722E+02  0.30309796170E+01  0.36976123233E+02  0.00000000000E+00 0.  1.
          5    1    3    3  502    0 -0.84314282682E+02  0.44506761131E+02  0.99136116060E+02  0.13762198065E+03  0.47000000000E+01 0. -1.
         13    1    6    6    0    0  0.60008596636E+02 -0.66718995615E+02  0.29103115738E+03  0.30455145807E+03  0.00000000000E+00 0. -1.
        -14    1    6    6    0    0 -0.25451386119E+02 -0.18114671533E+02  0.77609044824E+02  0.83660493775E+02  0.00000000000E+00 0.  1.
         -5    1    5    5    0  503  0.11191003225E+03  0.43116454012E+01  0.17927548865E+03  0.21143376371E+03  0.47000000000E+01 0.  1.
<mgrwt>
<rscale>  2 0.24280166E+03</rscale>
<asrwt>0</asrwt>
<pdfrwt beam="1">  1       21 0.11334852E+00 0.24364601E+03</pdfrwt>
<pdfrwt beam="2">  1       21 0.17604255E-01 0.24364601E+03</pdfrwt>
<totfact> 0.17231057E+04</totfact>
</mgrwt>
</event>
<event>
12    1  0.2769346E-001  0.2118963E+03  0.7546771E-02  0.1140161E+00
         21   -1    0    0  504  503  0.00000000000E+00  0.00000000000E+00  0.37653281396E+03  0.37653281396E+03  0.00000000000E+00 0.  1.
         21   -1    0    0  502  504 -0.00000000000E+00 -0.00000000000E+00 -0.15674341243E+03  0.15674341243E+03  0.00000000000E+00 0.  1.
          6    2    1    2  502    0  0.12346274280E+03 -0.11365257743E+02 -0.21048055938E+02  0.21249166371E+03  0.17128183950E+03 0.  0.
         24    2    3    3    0    0  0.11157873382E+03  0.49412587124E+02 -0.10126711589E+01  0.14723308006E+03  0.82371941550E+02 0.  0.
         -6    2    1    2    0  503 -0.12346274280E+03  0.11365257743E+02  0.24083745747E+03  0.32078456269E+03  0.17183665731E+03 0.  0.
        -24    2    5    5    0    0 -0.93712128014E+02  0.63141374413E+02  0.10994030918E+03  0.17683311682E+03  0.80089222251E+02 0.  0.
          2    1    4    4  501    0  0.59557684102E+02 -0.63318709926E+01  0.27401059143E+02  0.65863710555E+02  0.00000000000E+00 0. -1.
         -1    1    4    4    0  501  0.52021049715E+02  0.55744458116E+02 -0.28413730302E+02  0.81369369506E+02  0.00000000000E+00 0.  1.
          5    1    3    3  502    0  0.11884008978E+02 -0.60777844866E+02 -0.20035384780E+02  0.65258583644E+02  0.47000000000E+01 0. -1.
         11    1    6    6    0    0 -0.77151645149E+01 -0.15272389131E+02  0.55934821583E+00  0.17119652557E+02  0.00000000000E+00 0. -1.
        -12    1    6    6    0    0 -0.85996963499E+02  0.78413763544E+02  0.10938096096E+03  0.15971346426E+03  0.00000000000E+00 0.  1.
         -5    1    5    5    0  503 -0.29750614782E+02 -0.51776116671E+02  0.13089714829E+03  0.14395144587E+03  0.47000000000E+01 0.  1.
<mgrwt>
<rscale>  2 0.21178382E+03</rscale>
<asrwt>0</asrwt>
<pdfrwt beam="1">  1       21 0.57928125E-01 0.21189633E+03</pdfrwt>
<pdfrwt beam="2">  1       21 0.24114371E-01 0.21189633E+03</pdfrwt>
<totfact> 0.44894621E+04</totfact>
</mgrwt>
</event>
<event>
12    1  0.2769346E-001  0.2017911E+03  0.7546771E-02  0.1148286E+00
         21   -1    0    0  504  503  0.00000000000E+00  0.00000000000E+00  0.68206495224E+02  0.68206495224E+02  0.00000000000E+00 0.  1.
         21   -1    0    0  502  504 -0.00000000000E+00 -0.00000000000E+00 -0.70503181750E+03  0.70503181750E+03  0.00000000000E+00 0. -1.
          6    2    1    2  502    0  0.59770742342E+02  0.83525761443E+02 -0.47007949475E+03  0.51146778504E+03  0.17342280498E+03 0.  0.
         24    2    3    3    0    0  0.52268745190E+02 -0.14529341838E+02 -0.17315179042E+03  0.19864317789E+03  0.80835920849E+02 0.  0.
         -6    2    1    2    0  503 -0.59770742342E+02 -0.83525761443E+02 -0.16674582753E+03  0.26177052769E+03  0.17369670032E+03 0.  0.
        -24    2    5    5    0    0  0.17890465969E+02 -0.67833866799E+02 -0.44895670064E+02  0.11635027563E+03  0.81242003857E+02 0.  0.
          2    1    4    4  501    0  0.25920559412E+02 -0.38913505369E+02 -0.14692030026E+03  0.15418077354E+03  0.00000000000E+00 0. -1.
         -1    1    4    4    0  501  0.26348185777E+02  0.24384163532E+02 -0.26231490158E+02  0.44462404352E+02  0.00000000000E+00 0.  1.
          5    1    3    3  502    0  0.75019971519E+01  0.98055103281E+02 -0.29692770433E+03  0.31282460715E+03  0.47000000000E+01 0. -1.
         11    1    6    6    0    0 -0.40360039613E+01 -0.62936393806E+01 -0.50248468349E+02  0.50801651509E+02  0.00000000000E+00 0. -1.
        -12    1    6    6    0    0  0.21926469930E+02 -0.61540227419E+02  0.53527982854E+01  0.65548624118E+02  0.00000000000E+00 0.  1.
         -5    1    5    5    0  503 -0.77661208310E+02 -0.15691894644E+02 -0.12185015747E+03  0.14542025206E+03  0.47000000000E+01 0.  1.
<mgrwt>
<rscale>  2 0.20173212E+03</rscale>
<asrwt>0</asrwt>
<pdfrwt beam="1">  1       21 0.10493307E-01 0.20179108E+03</pdfrwt>
<pdfrwt beam="2">  1       21 0.10846643E+00 0.20179108E+03</pdfrwt>
<totfact> 0.50108608E+04</totfact>
</mgrwt>
</event>
<event>
12    1  0.2769346E-001  0.1901214E+03  0.7546771E-02  0.1161217E+00
         21   -1    0    0  504  503  0.00000000000E+00  0.00000000000E+00  0.17475288809E+03  0.17475288809E+03  0.00000000000E+00 0. -1.
         21   -1    0    0  502  504 -0.00000000000E+00 -0.00000000000E+00 -0.20443623992E+03  0.20443623992E+03  0.00000000000E+00 0. -1.
          6    2    1    2  502    0  0.70411645637E+02 -0.39638486018E+02 -0.58718556247E+02  0.19898245623E+03  0.17209630916E+03 0.  0.
         24    2    3    3    0    0  0.11895889709E+02 -0.83682850854E+02 -0.53956481634E+02  0.12543813545E+03  0.75359751822E+02 0.  0.
         -6    2    1    2    0  503 -0.70411645637E+02  0.39638486018E+02  0.29035204417E+02  0.18020667178E+03  0.15843734422E+03 0.  0.
        -24    2    5    5    0    0 -0.77846452077E+02  0.50759654295E+02 -0.24901172472E+02  0.12443768862E+03  0.78918041999E+02 0.  0.
          2    1    4    4  501    0  0.13919830760E+02 -0.11464596472E+02 -0.49921698790E+02  0.53078947528E+02  0.00000000000E+00 0. -1.
         -1    1    4    4    0  501 -0.20239410512E+01 -0.72218254383E+02 -0.40347828445E+01  0.72359187917E+02  0.00000000000E+00 0.  1.
          5    1    3    3  502    0  0.58515755928E+02  0.44044364836E+02 -0.47620746129E+01  0.73544320789E+02  0.47000000000E+01 0. -1.
         11    1    6    6    0    0 -0.37848990736E+01 -0.15736285357E+02  0.99272702475E+01  0.18987017470E+02  0.00000000000E+00 0. -1.
        -12    1    6    6    0    0 -0.74061553003E+02  0.66495939652E+02 -0.34828442719E+02  0.10545067115E+03  0.00000000000E+00 0.  1.
         -5    1    5    5    0  503  0.74348064399E+01 -0.11121168277E+02  0.53936376889E+02  0.55768983159E+02  0.47000000000E+01 0.  1.
<mgrwt>
<rscale>  2 0.18697695E+03</rscale>
<asrwt>0</asrwt>
<pdfrwt beam="1">  1       21 0.26885060E-01 0.19012141E+03</pdfrwt>
<pdfrwt beam="2">  1       21 0.31451729E-01 0.19012141E+03</pdfrwt>
<totfact> 0.12814409E+05</totfact>
</mgrwt>
</event>
<event>
12    1  0.2769346E-001  0.1938292E+03  0.7546771E-02  0.1155140E+00
         21   -1    0    0  504  503  0.00000000000E+00  0.00000000000E+00  0.45493360645E+03  0.45493360645E+03  0.00000000000E+00 0.  1.
         21   -1    0    0  502  504 -0.00000000000E+00 -0.00000000000E+00 -0.74890005347E+03  0.74890005347E+03  0.00000000000E+00 0.  1.
          6    2    1    2  502    0  0.77435230235E+02 -0.39274802192E+02 -0.71479903514E+03  0.74050892016E+03  0.17284986326E+03 0.  0.
         24    2    3    3    0    0  0.37741720694E+02  0.44896997736E+02 -0.34530931034E+03  0.35945090183E+03  0.80785228411E+02 0.  0.
         -6    2    1    2    0  503 -0.77435230235E+02  0.39274802192E+02  0.42083258813E+03  0.46332473976E+03  0.17329461122E+03 0.  0.
        -24    2    5    5    0    0  0.20157090287E+02 -0.10158852207E+02  0.16752509347E+03  0.18736328582E+03  0.80813571660E+02 0.  0.
          2    1    4    4  501    0  0.69689059294E+01  0.24757190115E+02 -0.29997127479E+03  0.30107183497E+03  0.00000000000E+00 0. -1.
         -1    1    4    4    0  501  0.30772814764E+02  0.20139807621E+02 -0.45338035548E+02  0.58379066855E+02  0.00000000000E+00 0.  1.
          5    1    3    3  502    0  0.39693509541E+02 -0.84171799928E+02 -0.36948972480E+03  0.38105801834E+03  0.47000000000E+01 0. -1.
         11    1    6    6    0    0  0.46686624625E+02 -0.15704855823E+02  0.66439131469E+02  0.82706962256E+02  0.00000000000E+00 0. -1.
        -12    1    6    6    0    0 -0.26529534338E+02  0.55460036160E+01  0.10108596200E+03  0.10465632357E+03  0.00000000000E+00 0.  1.
         -5    1    5    5    0  503 -0.97592320522E+02  0.49433654399E+02  0.25330749465E+03  0.27596145394E+03  0.47000000000E+01 0.  1.
<mgrwt>
<rscale>  2 0.19372971E+03</rscale>
<asrwt>0</asrwt>
<pdfrwt beam="1">  1       21 0.69989786E-01 0.19382917E+03</pdfrwt>
<pdfrwt beam="2">  1       21 0.11521539E+00 0.19382917E+03</pdfrwt>
<totfact> 0.10804647E+03</totfact>
</mgrwt>
</event>
<event>
12    1  0.2769346E-001  0.1811961E+03  0.7546771E-02  0.1167029E+00
         21   -1    0    0  504  503  0.00000000000E+00  0.00000000000E+00  0.37524342029E+03  0.37524342029E+03  0.00000000000E+00 0.  1.
         21   -1    0    0  502  504 -0.00000000000E+00 -0.00000000000E+00 -0.87421811653E+02  0.87421811653E+02  0.00000000000E+00 0. -1.
          6    2    1    2  502    0 -0.32336181384E+02  0.34402412807E+02  0.12407686611E+03  0.21960671863E+03  0.17493681011E+03 0.  0.
         24    2    3    3    0    0  0.28217117241E+02 -0.30149074384E+02  0.77994790793E+02  0.11971055185E+03  0.80884216264E+02 0.  0.
         -6    2    1    2    0  503  0.32336181384E+02 -0.34402412807E+02  0.16374474252E+03  0.24305851331E+03  0.17330881557E+03 0.  0.
        -24    2    5    5    0    0 -0.19890489996E+02  0.15604147454E+02  0.15223303556E+03  0.16969032763E+03  0.70574706279E+02 0.  0.
          2    1    4    4  501    0  0.56072103542E+02 -0.20978445875E+02  0.62483165518E+02  0.86535090918E+02  0.00000000000E+00 0. -1.
         -1    1    4    4    0  501 -0.27854986301E+02 -0.91706285081E+01  0.15511625275E+02  0.33175460928E+02  0.00000000000E+00 0.  1.
          5    1    3    3  502    0 -0.60553298625E+02  0.64551487191E+02  0.46082075318E+02  0.99896166785E+02  0.47000000000E+01 0. -1.
         11    1    6    6    0    0  0.16168397547E+02 -0.15447904941E+02  0.23479697168E+02  0.32424543565E+02  0.00000000000E+00 0. -1.
        -12    1    6    6    0    0 -0.36058887543E+02  0.31052052394E+02  0.12875333839E+03  0.13726578407E+03  0.00000000000E+00 0.  1.
         -5    1    5    5    0  503  0.52226671380E+02 -0.50006560261E+02  0.11511706967E+02  0.73368185679E+02  0.47000000000E+01 0.  1.
<mgrwt>
<rscale>  2 0.18080205E+03</rscale>
<asrwt>0</asrwt>
<pdfrwt beam="1">  1       21 0.57729756E-01 0.18119614E+03</pdfrwt>
<pdfrwt beam="2">  1       21 0.13449510E-01 0.18119614E+03</pdfrwt>
<totfact> 0.13507308E+05</totfact>
</mgrwt>
</event>
<event>
12    1  0.2769346E-001  0.2078128E+03  0.7546771E-02  0.1144716E+00
         21   -1    0    0  504  503  0.00000000000E+00  0.00000000000E+00  0.27987258148E+03  0.27987258148E+03  0.00000000000E+00 0. -1.
         21   -1    0    0  502  504 -0.00000000000E+00 -0.00000000000E+00 -0.20016120372E+03  0.20016120372E+03  0.00000000000E+00 0.  1.
          6    2    1    2  502    0 -0.12115060535E+02 -0.11522174703E+03 -0.80692590464E+02  0.22292922838E+03  0.17252049452E+03 0.  0.
         24    2    3    3    0    0 -0.58503375934E+02 -0.41309026198E+02 -0.68028491189E+01  0.10848819560E+03  0.81205475109E+02 0.  0.
         -6    2    1    2    0  503  0.12115060535E+02  0.11522174703E+03  0.16040396823E+03  0.25710455682E+03  0.16416605750E+03 0.  0.
        -24    2    5    5    0    0 -0.25747728120E+02  0.12013056177E+03  0.16078142909E+03  0.21863483232E+03  0.82802322344E+02 0.  0.
          2    1    4    4  501    0 -0.43561616915E+02  0.17981452330E+02 -0.25261708018E+01  0.47194582688E+02  0.00000000000E+00 0. -1.
         -1    1    4    4    0  501 -0.14941759019E+02 -0.59290478528E+02 -0.42766783170E+01  0.61293612914E+02  0.00000000000E+00 0.  1.
          5    1    3    3  502    0  0.46388315399E+02 -0.73912720833E+02 -0.73889741345E+02  0.11444103277E+03  0.47000000000E+01 0. -1.
         13    1    6    6    0    0  0.83244118827E+01  0.89264841592E+01  0.70100157911E+02  0.71154831823E+02  0.00000000000E+00 0. -1.
        -14    1    6    6    0    0 -0.34072140002E+02  0.11120407761E+03  0.90681271183E+02  0.14748000049E+03  0.00000000000E+00 0.  1.
         -5    1    5    5    0  503  0.37862788655E+02 -0.49088147415E+01 -0.37746086883E+00  0.38469724506E+02  0.47000000000E+01 0.  1.
<mgrwt>
<rscale>  2 0.20607057E+03</rscale>
<asrwt>0</asrwt>
<pdfrwt beam="1">  1       21 0.43057320E-01 0.20781277E+03</pdfrwt>
<pdfrwt beam="2">  1       21 0.30794031E-01 0.20781277E+03</pdfrwt>
<totfact> 0.52142495E+04</totfact>
</mgrwt>
</event>
<event>
12    1  0.2769346E-001  0.2056163E+03  0.7546771E-02  0.1145269E+00
         21   -1    0    0  504  503  0.00000000000E+00  0.00000000000E+00  0.21870611090E+04  0.21870611090E+04  0.00000000000E+00 0.  1.
         21   -1    0    0  502  504 -0.00000000000E+00 -0.00000000000E+00 -0.20845939432E+02  0.20845939432E+02  0.00000000000E+00 0. -1.
          6    2    1    2  502    0 -0.15667742667E+02 -0.10781794962E+03  0.77511413229E+03  0.80169221384E+03  0.17331560587E+03 0.  0.
         24    2    3    3    0    0  0.34965036465E+02 -0.10831210388E+03  0.67453882252E+03  0.68899170166E+03  0.82175886017E+02 0.  0.
         -6    2    1    2    0  503  0.15667742667E+02  0.10781794962E+03  0.13911010372E+04  0.14062148345E+04  0.17437854423E+03 0.  0.
        -24    2    5    5    0    0  0.18916497853E+02  0.11897150434E+03  0.69369994012E+03  0.70870115264E+03  0.80781582641E+02 0.  0.
          2    1    4    4  501    0 -0.13417326489E+02 -0.57648766930E+02  0.17916403277E+03  0.18868798482E+03  0.00000000000E+00 0. -1.
         -1    1    4    4    0  501  0.48382362954E+02 -0.50663336952E+02  0.49537478975E+03  0.50030371684E+03  0.00000000000E+00 0.  1.
          5    1    3    3  502    0 -0.50632779133E+02  0.49415426546E+00  0.10057530977E+03  0.11270051218E+03  0.47000000000E+01 0. -1.
         11    1    6    6    0    0  0.15057839327E+02  0.10055493428E+03  0.34955549336E+03  0.36404268468E+03  0.00000000000E+00 0. -1.
        -12    1    6    6    0    0  0.38586585260E+01  0.18416570063E+02  0.34414444677E+03  0.34465846796E+03  0.00000000000E+00 0.  1.
         -5    1    5    5    0  503 -0.32487551859E+01 -0.11153554725E+02  0.69740109711E+03  0.69751368191E+03  0.47000000000E+01 0.  1.
<mgrwt>
<rscale>  2 0.20539076E+03</rscale>
<asrwt>0</asrwt>
<pdfrwt beam="1">  1       21 0.33647076E+00 0.20561631E+03</pdfrwt>
<pdfrwt beam="2">  1       21 0.32070693E-02 0.20561631E+03</pdfrwt>
<totfact> 0.11723486E+04</totfact>
</mgrwt>
</event>
<event>
12    1  0.2769346E-001  0.1836166E+03  0.7546771E-02  0.1164479E+00
         21   -1    0    0  504  503  0.00000000000E+00  0.00000000000E+00  0.11933285674E+04  0.11933285674E+04  0.00000000000E+00 0. -1.
         21   -1    0    0  502  504 -0.00000000000E+00 -0.00000000000E+00 -0.28201372800E+02  0.28201372800E+02  0.00000000000E+00 0. -1.
          6    2    1    2  502    0 -0.13800182627E+00 -0.60726636210E+02  0.60464139735E+03  0.63190686703E+03  0.17328394566E+03 0.  0.
         24    2    3    3    0    0 -0.14148973495E+02  0.30200429570E+02  0.37391603370E+03  0.38347111669E+03  0.78260064390E+02 0.  0.
         -6    2    1    2    0  503  0.13800182627E+00  0.60726636210E+02  0.56048579728E+03  0.58962307319E+03  0.17269422718E+03 0.  0.
        -24    2    5    5    0    0  0.45609104617E+02  0.93015589615E+02  0.35623185398E+03  0.37784025743E+03  0.71624269686E+02 0.  0.
          4    1    4    4  501    0  0.16308556160E+02 -0.48684300071E+01  0.25849182773E+03  0.25905153081E+03  0.00000000000E+00 0. -1.
         -3    1    4    4    0  501 -0.30457529656E+02  0.35068859577E+02  0.11542420598E+03  0.12441958588E+03  0.00000000000E+00 0.  1.
          5    1    3    3  502    0  0.14010971669E+02 -0.90927065780E+02  0.23072536365E+03  0.24843575034E+03  0.47000000000E+01 0. -1.
         11    1    6    6    0    0  0.22602220040E+02  0.12500227758E+02  0.18959887328E+03  0.19135006870E+03  0.00000000000E+00 0. -1.
        -12    1    6    6    0    0  0.23006884577E+02  0.80515361856E+02  0.16663298071E+03  0.18649018873E+03  0.00000000000E+00 0.  1.
         -5    1    5    5    0  503 -0.45471102791E+02 -0.32288953404E+02  0.20425394329E+03  0.21178281576E+03  0.47000000000E+01 0.  1.
<mgrwt>
<rscale>  2 0.18347737E+03</rscale>
<asrwt>0</asrwt>
<pdfrwt beam="1">  1       21 0.18358897E+00 0.18361664E+03</pdfrwt>
<pdfrwt beam="2">  1       21 0.43386736E-02 0.18361664E+03</pdfrwt>
<totfact> 0.59140476E+04</totfact>
</mgrwt>
</event>
<event>
12    1  0.2769346E-001  0.2049393E+03  0.7546771E-02  0.1146111E+00
         21   -1    0    0  504  503  0.00000000000E+00  0.00000000000E+00  0.38191268274E+02  0.38191268274E+02  0.00000000000E+00 0.  1.
         21   -1    0    0  502  504 -0.00000000000E+00 -0.00000000000E+00 -0.18471845797E+04  0.18471845797E+04  0.00000000000E+00 0.  1.
          6    2    1    2  502    0 -0.31476722824E+02 -0.10283831749E+03 -0.15120831992E+04  0.15259081666E+04  0.17445236550E+03 0.  0.
         24    2    3    3    0    0 -0.20278210561E+02  0.52875652559E+01 -0.41171733364E+03  0.42017594703E+03  0.81224992925E+02 0.  0.
         -6    2    1    2    0  503  0.31476722824E+02  0.10283831749E+03 -0.29691011223E+03  0.35946768142E+03  0.17174078030E+03 0.  0.
        -24    2    5    5    0    0 -0.23387791025E+02  0.20969427829E+02 -0.20851056339E+03  0.22699428708E+03  0.84041927913E+02 0.  0.
          4    1    4    4  501    0 -0.50643235840E+02 -0.67250502329E+01 -0.23908922420E+03  0.24448644291E+03  0.00000000000E+00 0. -1.
         -3    1    4    4    0  501  0.30365025279E+02  0.12012615489E+02 -0.17262810944E+03  0.17568950412E+03  0.00000000000E+00 0.  1.
          5    1    3    3  502    0 -0.11198512263E+02 -0.10812588275E+03 -0.11003658656E+04  0.11057322195E+04  0.47000000000E+01 0. -1.
         13    1    6    6    0    0 -0.35455167778E+02  0.21667907808E+02 -0.21065844219E+03  0.21471736404E+03  0.00000000000E+00 0. -1.
        -14    1    6    6    0    0  0.12067376753E+02 -0.69847997896E+00  0.21478788033E+01  0.12276923040E+02  0.00000000000E+00 0.  1.
         -5    1    5    5    0  503  0.54864513849E+02  0.81868889664E+02 -0.88399548836E+02  0.13247339434E+03  0.47000000000E+01 0.  1.
<mgrwt>
<rscale>  2 0.20436109E+03</rscale>
<asrwt>0</asrwt>
<pdfrwt beam="1">  1       21 0.58755779E-02 0.20493934E+03</pdfrwt>
<pdfrwt beam="2">  1       21 0.28418233E+00 0.20493934E+03</pdfrwt>
<totfact> 0.84954799E+03</totfact>
</mgrwt>
</event>
<event>
12    1  0.2769346E-001  0.3207999E+03  0.7546771E-02  0.1075350E+00
         21   -1    0    0  504  503  0.00000000000E+00  0.00000000000E+00  0.26136428815E+03  0.26136428815E+03  0.00000000000E+00 0.  1.
         21   -1    0    0  502  504 -0.00000000000E+00 -0.00000000000E+00 -0.39680344165E+03  0.39680344165E+03  0.00000000000E+00 0. -1.
          6    2    1    2  502    0 -0.84919480934E+01  0.26916616806E+03 -0.99884259108E+02  0.33599028389E+03  0.17432746899E+03 0.  0.
         24    2    3    3    0    0 -0.35503348951E+02  0.24869920665E+03 -0.12656748997E+03  0.29260137869E+03  0.80526108292E+02 0.  0.
         -6    2    1    2    0  503  0.84919480934E+01 -0.26916616806E+03 -0.35554894384E+02  0.32217744591E+03  0.17323861269E+03 0.  0.
        -24    2    5    5    0    0  0.63238115566E+02 -0.22175777682E+03 -0.64588635604E+01  0.24398941983E+03  0.79457845604E+02 0.  0.
          4    1    4    4  501    0 -0.33256301370E+02  0.47782179753E+02 -0.52692511052E+02  0.78521455690E+02  0.00000000000E+00 0. -1.
         -3    1    4    4    0  501 -0.22470475813E+01  0.20091702690E+03 -0.73874978922E+02  0.21407992300E+03  0.00000000000E+00 0.  1.
          5    1    3    3  502    0  0.27011400858E+02  0.20466961405E+02  0.26683230866E+02  0.43388905205E+02  0.47000000000E+01 0. -1.
         11    1    6    6    0    0  0.77563024942E+02 -0.15024211716E+03  0.94220008201E+01  0.16934429635E+03  0.00000000000E+00 0. -1.
        -12    1    6    6    0    0 -0.14324909376E+02 -0.71515659662E+02 -0.15880864381E+02  0.74645123478E+02  0.00000000000E+00 0.  1.
         -5    1    5    5    0  503 -0.54746167472E+02 -0.47408391237E+02 -0.29096030823E+02  0.78188026080E+02  0.47000000000E+01 0.  1.
<mgrwt>
<rscale>  2 0.32065225E+03</rscale>
<asrwt>0</asrwt>
<pdfrwt beam="1">  1       21 0.40209891E-01 0.32079995E+03</pdfrwt>
<pdfrwt beam="2">  1       21 0.61046683E-01 0.32079995E+03</pdfrwt>
<totfact> 0.13939802E+04</totfact>
</mgrwt>
</event>
<event>
12    1  0.2769346E-001  0.2224084E+03  0.7546771E-02  0.1132147E+00
         21   -1    0    0  504  503  0.00000000000E+00  0.00000000000E+00  0.90355095196E+03  0.90355095196E+03  0.00000000000E+00 0. -1.
         21   -1    0    0  502  504 -0.00000000000E+00 -0.00000000000E+00 -0.55025448692E+02  0.55025448692E+02  0.00000000000E+00 0. -1.
          6    2    1    2  502    0 -0.13121976347E+03  0.46104409087E+02  0.38671550206E+03  0.44611028217E+03  0.17355477942E+03 0.  0.
         24    2    3    3    0    0 -0.37148822279E+02 -0.37548513290E+02  0.15794218506E+03  0.18494659026E+03  0.80433709229E+02 0.  0.
         -6    2    1    2    0  503  0.13121976347E+03 -0.46104409087E+02  0.46181000120E+03  0.51246611848E+03  0.17323048958E+03 0.  0.
        -24    2    5    5    0    0  0.10358125530E+03 -0.28168355335E+02  0.16105088103E+03  0.20987112923E+03  0.81154001187E+02 0.  0.
          2    1    4    4  501    0 -0.52041784381E+02 -0.23868894659E+02  0.52821582214E+02  0.77898594348E+02  0.00000000000E+00 0. -1.
         -1    1    4    4    0  501  0.14892962102E+02 -0.13679618630E+02  0.10512060285E+03  0.10704799591E+03  0.00000000000E+00 0.  1.
          5    1    3    3  502    0 -0.94070941189E+02  0.83652922377E+02  0.22877331700E+03  0.26116369191E+03  0.47000000000E+01 0. -1.
         13    1    6    6    0    0  0.21204213927E+01 -0.32327211112E+02  0.30671629383E+02  0.44612706869E+02  0.00000000000E+00 0. -1.
        -14    1    6    6    0    0  0.10146083391E+03  0.41588557765E+01  0.13037925165E+03  0.16525842236E+03  0.00000000000E+00 0.  1.
         -5    1    5    5    0  503  0.27638508164E+02 -0.17936053751E+02  0.30075912017E+03  0.30259498925E+03  0.47000000000E+01 0.  1.
<mgrwt>
<rscale>  2 0.22234515E+03</rscale>
<asrwt>0</asrwt>
<pdfrwt beam="1">  1       21 0.13900783E+00 0.22240842E+03</pdfrwt>
<pdfrwt beam="2">  1       21 0.84654543E-02 0.22240842E+03</pdfrwt>
<totfact> 0.38971614E+04</totfact>
</mgrwt>
</event>
<event>
12    1  0.2769346E-001  0.2904197E+03  0.7546771E-02  0.1090197E+00
         21   -1    0    0  504  503  0.00000000000E+00  0.00000000000E+00  0.15839044292E+03  0.15839044292E+03  0.00000000000E+00 0. -1.
         21   -1    0    0  502  504 -0.00000000000E+00 -0.00000000000E+00 -0.53896417251E+03  0.53896417251E+03  0.00000000000E+00 0. -1.
          6    2    1    2  502    0  0.22859885539E+03  0.42762525413E+02 -0.23097917638E+03  0.37067103691E+03  0.17308832260E+03 0.  0.
         24    2    3    3    0    0  0.70084474930E+02 -0.38253065857E+02 -0.96788231532E+02  0.14769203674E+03  0.77909211767E+02 0.  0.
         -6    2    1    2    0  503 -0.22859885539E+03 -0.42762525413E+02 -0.14959455321E+03  0.32668357852E+03  0.17394700302E+03 0.  0.
        -24    2    5    5    0    0 -0.21398823852E+03 -0.45479265554E+02 -0.17913035957E+03  0.29328740119E+03  0.77913311815E+02 0.  0.
          4    1    4    4  501    0  0.40400545404E+02 -0.22624440280E+01 -0.92353691892E+02  0.10082919779E+03  0.00000000000E+00 0. -1.
         -3    1    4    4    0  501  0.29683929527E+02 -0.35990621829E+02 -0.44345396405E+01  0.46862838941E+02  0.00000000000E+00 0.  1.
          5    1    3    3  502    0  0.15851438046E+03  0.81015591269E+02 -0.13419094485E+03  0.22297900018E+03  0.47000000000E+01 0. -1.
         11    1    6    6    0    0 -0.18862375735E+03 -0.44176026380E+02 -0.11736987555E+03  0.22650856679E+03  0.00000000000E+00 0. -1.
        -12    1    6    6    0    0 -0.25364481168E+02 -0.13032391743E+01 -0.61760484020E+02  0.66778834399E+02  0.00000000000E+00 0.  1.
         -5    1    5    5    0  503 -0.14610616867E+02  0.27167401411E+01  0.29535806363E+02  0.33396177323E+02  0.47000000000E+01 0.  1.
<mgrwt>
<rscale>  2 0.29029129E+03</rscale>
<asrwt>0</asrwt>
<pdfrwt beam="1">  1       21 0.24367761E-01 0.29041975E+03</pdfrwt>
<pdfrwt beam="2">  1       21 0.82917564E-01 0.29041975E+03</pdfrwt>
<totfact> 0.19178786E+04</totfact>
</mgrwt>
</event>
<event>
12    1  0.2769346E-001  0.1777821E+03  0.7546771E-02  0.1170260E+00
         21   -1    0    0  504  503  0.00000000000E+00  0.00000000000E+00  0.34745885682E+02  0.34745885682E+02  0.00000000000E+00 0. -1.
         21   -1    0    0  502  504 -0.00000000000E+00 -0.00000000000E+00 -0.13213712818E+04  0.13213712818E+04  0.00000000000E+00 0. -1.
          6    2    1    2  502    0  0.39594723767E+02  0.10873011888E+01 -0.10231071786E+04  0.10382361752E+04  0.17209628802E+03 0.  0.
         24    2    3    3    0    0 -0.53031561265E+00 -0.59433301618E+02 -0.69662261634E+03  0.70374100109E+03  0.80222992008E+02 0.  0.
         -6    2    1    2    0  503 -0.39594723767E+02 -0.10873011888E+01 -0.26351821751E+03  0.31788099222E+03  0.17331344401E+03 0.  0.
        -24    2    5    5    0    0 -0.12966858408E+00  0.62591809514E+02 -0.16942094499E+03  0.19751111884E+03  0.79933935414E+02 0.  0.
          4    1    4    4  501    0 -0.69442994505E+01 -0.78024292841E+02 -0.49475489635E+03  0.50091757908E+03  0.00000000000E+00 0. -1.
         -3    1    4    4    0  501  0.64139838379E+01  0.18590991223E+02 -0.20186771999E+03  0.20282342202E+03  0.00000000000E+00 0.  1.
          5    1    3    3  502    0  0.40125039379E+02  0.60520602807E+02 -0.32648456223E+03  0.33449517414E+03  0.47000000000E+01 0. -1.
         13    1    6    6    0    0 -0.15187958231E+02 -0.19173323884E+00  0.10478377979E+01  0.15225268500E+02  0.00000000000E+00 0. -1.
        -14    1    6    6    0    0  0.15058289647E+02  0.62783542753E+02 -0.17046878279E+03  0.18228585034E+03  0.00000000000E+00 0.  1.
         -5    1    5    5    0  503 -0.39465055183E+02 -0.63679110703E+02 -0.94097272522E+02  0.12036987338E+03  0.47000000000E+01 0.  1.
<mgrwt>
<rscale>  2 0.17748476E+03</rscale>
<asrwt>0</asrwt>
<pdfrwt beam="1">  1       21 0.53455211E-02 0.17778210E+03</pdfrwt>
<pdfrwt beam="2">  1       21 0.20328788E+00 0.17778210E+03</pdfrwt>
<totfact> 0.31054111E+04</totfact>
</mgrwt>
</event>
<event>
12    1  0.2769346E-001  0.2592629E+03  0.7546771E-02  0.1108000E+00
         21   -1    0    0  504  503  0.00000000000E+00  0.00000000000E+00  0.14789434843E+03  0.14789434843E+03  0.00000000000E+00 0. -1.
         21   -1    0    0  502  504 -0.00000000000E+00 -0.00000000000E+00 -0.45885886391E+03  0.45885886391E+03  0.00000000000E+00 0. -1.
          6    2    1    2  502    0  0.10532495621E+03  0.16070258986E+03 -0.19746497273E+03  0.32373480761E+03  0.16997982648E+03 0.  0.
         24    2    3    3    0    0  0.79203658336E+02  0.51493490951E+02 -0.40240751029E+02  0.13047204509E+03  0.80491225616E+02 0.  0.
         -6    2    1    2    0  503 -0.10532495621E+03 -0.16070258986E+03 -0.11349954274E+03  0.28301840473E+03  0.17406493738E+03 0.  0.
        -24    2    5    5    0    0 -0.13331534483E+03 -0.16877081986E+03 -0.99257388232E+02  0.25025429090E+03  0.80737910500E+02 0.  0.
          4    1    4    4  501    0  0.80092328526E+02  0.63227741855E+02 -0.15682458650E+02  0.10323985635E+03  0.00000000000E+00 0. -1.
         -3    1    4    4    0  501 -0.88867019043E+00 -0.11734250904E+02 -0.24558292379E+02  0.27232188740E+02  0.00000000000E+00 0.  1.
          5    1    3    3  502    0  0.26121297876E+02  0.10920909891E+03 -0.15722422170E+03  0.19326276252E+03  0.47000000000E+01 0. -1.
         13    1    6    6    0    0 -0.46361283185E+02 -0.83373753558E+02 -0.38468802926E+01  0.95474341312E+02  0.00000000000E+00 0. -1.
        -14    1    6    6    0    0 -0.86954061640E+02 -0.85397066307E+02 -0.95410507940E+02  0.15477994959E+03  0.00000000000E+00 0.  1.
         -5    1    5    5    0  503  0.27990388614E+02  0.80682300010E+01 -0.14242154506E+02  0.32764113830E+02  0.47000000000E+01 0.  1.
<mgrwt>
<rscale>  2 0.25857903E+03</rscale>
<asrwt>0</asrwt>
<pdfrwt beam="1">  1       21 0.22752977E-01 0.25926294E+03</pdfrwt>
<pdfrwt beam="2">  1       21 0.70593671E-01 0.25926294E+03</pdfrwt>
<totfact> 0.31888919E+04</totfact>
</mgrwt>
</event>
<event>
12    1  0.2769346E-001  0.2518021E+03  0.7546771E-02  0.1112684E+00
         21   -1    0    0  504  503  0.00000000000E+00  0.00000000000E+00  0.44094922672E+03  0.44094922672E+03  0.00000000000E+00 0. -1.
         21   -1    0    0  502  504 -0.00000000000E+00 -0.00000000000E+00 -0.14873434687E+03  0.14873434687E+03  0.00000000000E+00 0.  1.
          6    2    1    2  502    0  0.40611634226E+02 -0.17819434440E+03  0.21003303792E+03  0.32789961132E+03  0.17321012925E+03 0.  0.
         24    2    3    3    0    0 -0.87259693516E+01 -0.25075535422E+02  0.49862744745E+02  0.10083974784E+03  0.83531050588E+02 0.  0.
         -6    2    1    2    0  503 -0.40611634226E+02  0.17819434440E+03  0.82181841928E+02  0.26178396227E+03  0.16844719809E+03 0.  0.
        -24    2    5    5    0    0 -0.23844289897E+02  0.31470742229E+02  0.27169966564E+01  0.94017127330E+02  0.85281184229E+02 0.  0.
          4    1    4    4  501    0 -0.40467990678E+02  0.71135333273E+01  0.14961398520E+02  0.43727612233E+02  0.00000000000E+00 0. -1.
         -3    1    4    4    0  501  0.31742021327E+02 -0.32189068750E+02  0.34901346225E+02  0.57112135603E+02  0.00000000000E+00 0.  1.
          5    1    3    3  502    0  0.49337603578E+02 -0.15311880898E+03  0.16017029318E+03  0.22705986349E+03  0.47000000000E+01 0. -1.
         13    1    6    6    0    0 -0.17683483958E+01  0.55220292372E+02  0.18086670921E+02  0.58133771688E+02  0.00000000000E+00 0. -1.
        -14    1    6    6    0    0 -0.22075941501E+02 -0.23749550143E+02 -0.15369674264E+02  0.35883355642E+02  0.00000000000E+00 0.  1.
         -5    1    5    5    0  503 -0.16767344329E+02  0.14672360217E+03  0.79464845272E+02  0.16776683493E+03  0.47000000000E+01 0.  1.
<mgrwt>
<rscale>  2 0.25098502E+03</rscale>
<asrwt>0</asrwt>
<pdfrwt beam="1">  1       21 0.67838342E-01 0.25180206E+03</pdfrwt>
<pdfrwt beam="2">  1       21 0.22882207E-01 0.25180206E+03</pdfrwt>
<totfact> 0.34567340E+04</totfact>
</mgrwt>
</event>
<event>
12    1  0.2769346E-001  0.2104797E+03  0.7546771E-02  0.1141267E+00
         21   -1    0    0  504  503  0.00000000000E+00  0.00000000000E+00  0.38989112805E+03  0.38989112805E+03  0.00000000000E+00 0.  1.
         21   -1    0    0  502  504 -0.00000000000E+00 -0.00000000000E+00 -0.13343785431E+03  0.13343785431E+03  0.00000000000E+00 0. -1.
          6    2    1    2  502    0  0.11743769544E+03  0.21689195514E+02  0.26736157007E+02  0.21176572066E+03  0.17282321848E+03 0.  0.
         24    2    3    3    0    0  0.55684207755E+02 -0.53456374501E+02  0.30993863588E+02  0.11429486349E+03  0.78386103814E+02 0.  0.
         -6    2    1    2    0  503 -0.11743769544E+03 -0.21689195514E+02  0.22971711673E+03  0.31156326170E+03  0.17331958576E+03 0.  0.
        -24    2    5    5    0    0 -0.83333207971E+02 -0.55552284413E+02  0.72035103205E+02  0.14665258210E+03  0.79293403819E+02 0.  0.
          4    1    4    4  501    0  0.72700891613E+02 -0.33540950741E+02  0.99246220871E+01  0.80677835503E+02  0.00000000000E+00 0. -1.
         -3    1    4    4    0  501 -0.17016683857E+02 -0.19915423760E+02  0.21069241500E+02  0.33617027983E+02  0.00000000000E+00 0.  1.
          5    1    3    3  502    0  0.61753487682E+02  0.75145570015E+02 -0.42577065803E+01  0.97470857178E+02  0.47000000000E+01 0. -1.
         13    1    6    6    0    0 -0.55538273842E+02 -0.75293894519E+02  0.50362260428E+02  0.10625454197E+03  0.00000000000E+00 0. -1.
        -14    1    6    6    0    0 -0.27794934128E+02  0.19741610105E+02  0.21672842777E+02  0.40398040135E+02  0.00000000000E+00 0.  1.
         -5    1    5    5    0  503 -0.34104487466E+02  0.33863088900E+02  0.15768201352E+03  0.16491067959E+03  0.47000000000E+01 0.  1.
<mgrwt>
<rscale>  2 0.21037751E+03</rscale>
<asrwt>0</asrwt>
<pdfrwt beam="1">  1       21 0.59983250E-01 0.21047972E+03</pdfrwt>
<pdfrwt beam="2">  1       21 0.20528901E-01 0.21047972E+03</pdfrwt>
<totfact> 0.56520275E+04</totfact>
</mgrwt>
</event>
<event>
12    1  0.2769346E-001  0.1822516E+03  0.7546771E-02  0.1165963E+00
         21   -1    0    0  504  503  0.00000000000E+00  0.00000000000E+00  0.36402479865E+03  0.36402479865E+03  0.00000000000E+00 0.  1.
         21   -1    0    0  502  504 -0.00000000000E+00 -0.00000000000E+00 -0.11532651649E+03  0.11532651649E+03  0.00000000000E+00 0.  1.
          6    2    1    2  502    0  0.41031900729E+02  0.40279580330E+02  0.13672853203E+02  0.18276374414E+03  0.17294385733E+03 0.  0.
         24    2    3    3    0    0  0.82460688322E+01 -0.43908009579E+02  0.90453110452E+01  0.92176961359E+02  0.80117810736E+02 0.  0.
         -6    2    1    2    0  503 -0.41031900729E+02 -0.40279580330E+02  0.23502542896E+03  0.29658757101E+03  0.17152601420E+03 0.  0.
        -24    2    5    5    0    0  0.37726362568E+01 -0.45302191447E+02  0.23351001298E+03  0.25123275161E+03  0.80774055151E+02 0.  0.
          2    1    4    4  501    0 -0.10337673824E+02 -0.33436652850E+02 -0.31033279590E+02  0.46775439026E+02  0.00000000000E+00 0. -1.
         -1    1    4    4    0  501  0.18583742657E+02 -0.10471356729E+02  0.40078590635E+02  0.45401522333E+02  0.00000000000E+00 0.  1.
          5    1    3    3  502    0  0.32785831897E+02  0.84187589909E+02  0.46275421577E+01  0.90586782780E+02  0.47000000000E+01 0. -1.
         13    1    6    6    0    0 -0.68876970200E+01 -0.36134492505E+02  0.30635078342E+02  0.47871180723E+02  0.00000000000E+00 0. -1.
        -14    1    6    6    0    0  0.10660333277E+02 -0.91676989425E+01  0.20287493464E+03  0.20336157088E+03  0.00000000000E+00 0.  1.
         -5    1    5    5    0  503 -0.44804536986E+02  0.50226111166E+01  0.15154159848E+01  0.45354819398E+02  0.47000000000E+01 0.  1.
<mgrwt>
<rscale>  2 0.18191443E+03</rscale>
<asrwt>0</asrwt>
<pdfrwt beam="1">  1       21 0.56003815E-01 0.18225158E+03</pdfrwt>
<pdfrwt beam="2">  1       21 0.17742541E-01 0.18225158E+03</pdfrwt>
<totfact> 0.86913787E+04</totfact>
</mgrwt>
</event>
<event>
12    1  0.2769346E-001  0.2384171E+03  0.7546771E-02  0.1120875E+00
         21   -1    0    0  504  503  0.00000000000E+00  0.00000000000E+00  0.17913809621E+03  0.17913809621E+03  0.00000000000E+00 0.  1.
         21   -1    0    0  502  504 -0.00000000000E+00 -0.00000000000E+00 -0.42724950688E+03  0.42724950688E+03  0.00000000000E+00 0.  1.
          6    2    1    2  502    0 -0.12704388271E+03 -0.10377381349E+03 -0.27800616501E+03  0.36623781829E+03  0.17301317657E+03 0.  0.
         24    2    3    3    0    0 -0.14886013412E+03 -0.10984577725E+03 -0.27735370076E+03  0.34310054795E+03  0.81039967723E+02 0.  0.
         -6    2    1    2    0  503  0.12704388271E+03  0.10377381349E+03  0.29894754336E+02  0.24014978480E+03  0.17282670598E+03 0.  0.
        -24    2    5    5    0    0  0.46938740524E+02 -0.93329505418E+01  0.38218332072E+02  0.10122050127E+03  0.80589078936E+02 0.  0.
          2    1    4    4  501    0 -0.28524888565E+02 -0.63482120938E+02 -0.12864811808E+03  0.14626683572E+03  0.00000000000E+00 0. -1.
         -1    1    4    4    0  501 -0.12033524555E+03 -0.46363656310E+02 -0.14870558268E+03  0.19683371223E+03  0.00000000000E+00 0.  1.
          5    1    3    3  502    0  0.21816251411E+02  0.60719637588E+01 -0.65246424956E+00  0.23137270347E+02  0.47000000000E+01 0. -1.
         13    1    6    6    0    0 -0.72233118359E+01 -0.20245123978E+02  0.40578110693E+02  0.45919759867E+02  0.00000000000E+00 0. -1.
        -14    1    6    6    0    0  0.54162052360E+02  0.10912173437E+02 -0.23597786212E+01  0.55300741406E+02  0.00000000000E+00 0.  1.
         -5    1    5    5    0  503  0.80105142184E+02  0.11310676403E+03 -0.83235777364E+01  0.13892928352E+03  0.47000000000E+01 0.  1.
<mgrwt>
<rscale>  2 0.23838327E+03</rscale>
<asrwt>0</asrwt>
<pdfrwt beam="1">  1       21 0.27559707E-01 0.23841710E+03</pdfrwt>
<pdfrwt beam="2">  1       21 0.65730693E-01 0.23841710E+03</pdfrwt>
<totfact> 0.26077711E+04</totfact>
</mgrwt>
</event>
<event>
12    1  0.2769346E-001  0.2168073E+03  0.7546771E-02  0.1136293E+00
         21   -1    0    0  504  503  0.00000000000E+00  0.00000000000E+00  0.77069322084E+03  0.77069322084E+03  0.00000000000E+00 0. -1.
         21   -1    0    0  502  504 -0.00000000000E+00 -0.00000000000E+00 -0.84602083312E+02  0.84602083312E+02  0.00000000000E+00 0.  1.
          6    2    1    2  502    0  0.10768269981E+03  0.73578431542E+02  0.11705303230E+03  0.24635378832E+03  0.17314568208E+03 0.  0.
         24    2    3    3    0    0  0.72002475714E+02 -0.16467340342E+02  0.98356168518E+02  0.14759660053E+03  0.81579965646E+02 0.  0.
         -6    2    1    2    0  503 -0.10768269981E+03 -0.73578431542E+02  0.56903810523E+03  0.60894151583E+03  0.17319369234E+03 0.  0.
        -24    2    5    5    0    0  0.67948936631E+01 -0.36054906442E+02  0.32253447838E+03  0.33453440515E+03  0.80861929373E+02 0.  0.
          2    1    4    4  501    0  0.50718263670E+02 -0.37395339457E+02  0.99443163167E+02  0.11772721174E+03  0.00000000000E+00 0. -1.
         -1    1    4    4    0  501  0.21284212044E+02  0.20927999115E+02 -0.10869946490E+01  0.29869388790E+02  0.00000000000E+00 0.  1.
          5    1    3    3  502    0  0.35680224100E+02  0.90045771884E+02  0.18696863779E+02  0.98757187795E+02  0.47000000000E+01 0. -1.
         13    1    6    6    0    0 -0.25143600884E+02  0.13371444578E+02  0.13551433531E+03  0.13847429823E+03  0.00000000000E+00 0. -1.
        -14    1    6    6    0    0  0.31938494548E+02 -0.49426351020E+02  0.18702014308E+03  0.19606010692E+03  0.00000000000E+00 0.  1.
         -5    1    5    5    0  503 -0.11447759348E+03 -0.37523525100E+02  0.24650362684E+03  0.27440711068E+03  0.47000000000E+01 0.  1.
<mgrwt>
<rscale>  2 0.21679771E+03</rscale>
<asrwt>0</asrwt>
<pdfrwt beam="1">  1       21 0.11856818E+00 0.21680730E+03</pdfrwt>
<pdfrwt beam="2">  1       21 0.13015706E-01 0.21680730E+03</pdfrwt>
<totfact> 0.27205949E+04</totfact>
</mgrwt>
</event>
<event>
12    1  0.2769346E-001  0.2476773E+03  0.7546771E-02  0.1114881E+00
         21   -1    0    0  504  503  0.00000000000E+00  0.00000000000E+00  0.11610454553E+03  0.11610454553E+03  0.00000000000E+00 0. -1.
         21   -1    0    0  502  504 -0.00000000000E+00 -0.00000000000E+00 -0.56662413375E+03  0.56662413375E+03  0.00000000000E+00 0.  1.
          6    2    1    2  502    0 -0.10666329237E+03  0.14006874383E+03 -0.31575631335E+03  0.40130550132E+03  0.17420604188E+03 0.  0.
         24    2    3    3    0    0 -0.49285250986E+02  0.11536817885E+03 -0.30375937028E+03  0.33752169312E+03  0.76891388621E+02 0.  0.
         -6    2    1    2    0  503  0.10666329237E+03 -0.14006874383E+03 -0.13476327488E+03  0.28142317797E+03  0.17332499503E+03 0.  0.
        -24    2    5    5    0    0  0.30446833996E+02 -0.16013797778E+02 -0.95445666289E+02  0.13053731874E+03  0.82138084661E+02 0.  0.
          2    1    4    4  501    0  0.14334592127E+02  0.59891799128E+02 -0.14930065649E+03  0.16150292308E+03  0.00000000000E+00 0. -1.
         -1    1    4    4    0  501 -0.63619843113E+02  0.55476379717E+02 -0.15445871378E+03  0.17601877004E+03  0.00000000000E+00 0.  1.
          5    1    3    3  502    0 -0.57378041389E+02  0.24700564985E+02 -0.11996943074E+02  0.63783808191E+02  0.47000000000E+01 0. -1.
         11    1    6    6    0    0  0.43486118722E+02 -0.25986925207E+02 -0.21914701286E+02  0.55196167762E+02  0.00000000000E+00 0. -1.
        -12    1    6    6    0    0 -0.13039284726E+02  0.99731274292E+01 -0.73530965003E+02  0.75341150981E+02  0.00000000000E+00 0.  1.
         -5    1    5    5    0  503  0.76216458379E+02 -0.12405494605E+03 -0.39317608587E+02  0.15088585922E+03  0.47000000000E+01 0.  1.
<mgrwt>
<rscale>  2 0.24752245E+03</rscale>
<asrwt>0</asrwt>
<pdfrwt beam="1">  1       21 0.17862238E-01 0.24767732E+03</pdfrwt>
<pdfrwt beam="2">  1       21 0.87172943E-01 0.24767732E+03</pdfrwt>
<totfact> 0.31310767E+04</totfact>
</mgrwt>
</event>
<event>
12    1  0.2769346E-001  0.1886483E+03  0.7546771E-02  0.1159969E+00
         21   -1    0    0  504  503  0.00000000000E+00  0.00000000000E+00  0.14485546104E+02  0.14485546104E+02  0.00000000000E+00 0. -1.
         21   -1    0    0  502  504 -0.00000000000E+00 -0.00000000000E+00 -0.25625929572E+04  0.25625929572E+04  0.00000000000E+00 0.  1.
          6    2    1    2  502    0 -0.52726629532E+02  0.52797069442E+02 -0.15510942926E+04  0.15623749242E+04  0.17191355754E+03 0.  0.
         24    2    3    3    0    0 -0.10092968937E+03  0.33918279090E+02 -0.10803101020E+04  0.10887297112E+04  0.83217880786E+02 0.  0.
         -6    2    1    2    0  503  0.52726629532E+02 -0.52797069442E+02 -0.99701311850E+03  0.10147035791E+04  0.17326444230E+03 0.  0.
        -24    2    5    5    0    0 -0.85464412040E+01  0.10244806216E+02 -0.30832340380E+03  0.32040949125E+03  0.86144779533E+02 0.  0.
          4    1    4    4  501    0 -0.54999893953E+02 -0.25150517372E+01 -0.82238102741E+03  0.82422197742E+03  0.00000000000E+00 0. -1.
         -3    1    4    4    0  501 -0.45929795421E+02  0.36433330827E+02 -0.25792907459E+03  0.26450773376E+03  0.00000000000E+00 0.  1.
          5    1    3    3  502    0  0.48203059841E+02  0.18878790352E+02 -0.47078419061E+03  0.47364521303E+03  0.47000000000E+01 0. -1.
         11    1    6    6    0    0  0.32688619077E+02  0.95607137739E+01 -0.62746595819E+02  0.71393895761E+02  0.00000000000E+00 0. -1.
        -12    1    6    6    0    0 -0.41235060281E+02  0.68409244241E+00 -0.24557680799E+03  0.24901559549E+03  0.00000000000E+00 0.  1.
         -5    1    5    5    0  503  0.61273070736E+02 -0.63041875658E+02 -0.68868971469E+03  0.69429408784E+03  0.47000000000E+01 0.  1.
<mgrwt>
<rscale>  2 0.18833758E+03</rscale>
<asrwt>0</asrwt>
<pdfrwt beam="1">  1       21 0.22285449E-02 0.18864834E+03</pdfrwt>
<pdfrwt beam="2">  1       21 0.39424519E+00 0.18864834E+03</pdfrwt>
<totfact> 0.98089031E+03</totfact>
</mgrwt>
</event>
<event>
12    1  0.2769346E-001  0.2789344E+03  0.7546771E-02  0.1096341E+00
         21   -1    0    0  504  503  0.00000000000E+00  0.00000000000E+00  0.10799958515E+04  0.10799958515E+04  0.00000000000E+00 0. -1.
         21   -1    0    0  502  504 -0.00000000000E+00 -0.00000000000E+00 -0.93492114865E+02  0.93492114865E+02  0.00000000000E+00 0. -1.
          6    2    1    2  502    0  0.11805516097E+03  0.18140716015E+03  0.21101029009E+03  0.34935538598E+03  0.17515211791E+03 0.  0.
         24    2    3    3    0    0  0.41604480166E+00  0.28902286865E+02  0.68541091311E+02  0.10973848210E+03  0.80679228897E+02 0.  0.
         -6    2    1    2    0  503 -0.11805516097E+03 -0.18140716015E+03  0.77549344652E+03  0.82413258035E+03  0.17595125924E+03 0.  0.
        -24    2    5    5    0    0 -0.22885490573E+01 -0.99373326913E+02  0.26228861991E+03  0.29165465378E+03  0.79917591198E+02 0.  0.
          2    1    4    4  501    0 -0.29111755214E+02  0.22754745968E+02  0.23791274112E+01  0.37026112448E+02  0.00000000000E+00 0. -1.
         -1    1    4    4    0  501  0.29527800016E+02  0.61475408964E+01  0.66161963900E+02  0.72712369649E+02  0.00000000000E+00 0.  1.
          5    1    3    3  502    0  0.11763911617E+03  0.15250487328E+03  0.14246919878E+03  0.23961690389E+03  0.47000000000E+01 0. -1.
         13    1    6    6    0    0  0.26645056678E+02 -0.78680362884E+02  0.22624773358E+03  0.24101575778E+03  0.00000000000E+00 0. -1.
        -14    1    6    6    0    0 -0.28933605735E+02 -0.20692964029E+02  0.36040886326E+02  0.50638896002E+02  0.00000000000E+00 0.  1.
         -5    1    5    5    0  503 -0.11576661191E+03 -0.82033833235E+02  0.51320482661E+03  0.53247792657E+03  0.47000000000E+01 0.  1.
<mgrwt>
<rscale>  2 0.27880851E+03</rscale>
<asrwt>0</asrwt>
<pdfrwt beam="1">  1       21 0.16615320E+00 0.27893444E+03</pdfrwt>
<pdfrwt beam="2">  1       21 0.14383403E-01 0.27893444E+03</pdfrwt>
<totfact> 0.90761687E+03</totfact>
</mgrwt>
</event>
<event>
12    1  0.2769346E-001  0.1895531E+03  0.7546771E-02  0.1159107E+00
         21   -1    0    0  504  503  0.00000000000E+00  0.00000000000E+00  0.35533016470E+03  0.35533016470E+03  0.00000000000E+00 0.  1.
         21   -1    0    0  502  504 -0.00000000000E+00 -0.00000000000E+00 -0.10140303501E+03  0.10140303501E+03  0.00000000000E+00 0.  1.
          6    2    1    2  502    0 -0.94054770017E+01 -0.76325861194E+02  0.10637992213E+03  0.21736386095E+03  0.17325201335E+03 0.  0.
         24    2    3    3    0    0  0.20746374517E+02 -0.11095580902E+03  0.98751168880E+02  0.17058079443E+03  0.81267524023E+02 0.  0.
         -6    2    1    2    0  503  0.94054770017E+01  0.76325861194E+02  0.14754720756E+03  0.23936933876E+03  0.17208544911E+03 0.  0.
        -24    2    5    5    0    0 -0.49931616396E+02  0.76913503808E+01  0.96552117884E+02  0.13518596246E+03  0.80003811104E+02 0.  0.
          2    1    4    4  501    0  0.45485611552E+02 -0.71536129049E+02  0.89227211477E+02  0.12307661795E+03  0.00000000000E+00 0. -1.
         -1    1    4    4    0  501 -0.24739237035E+02 -0.39419679975E+02  0.95239574031E+01  0.47504176480E+02  0.00000000000E+00 0.  1.
          5    1    3    3  502    0 -0.30151851519E+02  0.34629947830E+02  0.76287532525E+01  0.46783066519E+02  0.47000000000E+01 0. -1.
         11    1    6    6    0    0 -0.31505997946E+02 -0.35595712831E+02  0.50451338077E+02  0.69318252952E+02  0.00000000000E+00 0. -1.
        -12    1    6    6    0    0 -0.18425618449E+02  0.43287063212E+02  0.46100779806E+02  0.65867709505E+02  0.00000000000E+00 0.  1.
         -5    1    5    5    0  503  0.59337093398E+02  0.68634510813E+02  0.50995089673E+02  0.10418337630E+03  0.47000000000E+01 0.  1.
<mgrwt>
<rscale>  2 0.18928608E+03</rscale>
<asrwt>0</asrwt>
<pdfrwt beam="1">  1       21 0.54666179E-01 0.18955305E+03</pdfrwt>
<pdfrwt beam="2">  1       21 0.15600467E-01 0.18955305E+03</pdfrwt>
<totfact> 0.11551478E+05</totfact>
</mgrwt>
</event>
<event>
12    1  0.2769346E-001  0.2030297E+03  0.7546771E-02  0.1147209E+00
         21   -1    0    0  504  503  0.00000000000E+00  0.00000000000E+00  0.50886792460E+03  0.50886792460E+03  0.00000000000E+00 0.  1.
         21   -1    0    0  502  504 -0.00000000000E+00 -0.00000000000E+00 -0.81595057648E+02  0.81595057648E+02  0.00000000000E+00 0.  1.
          6    2    1    2  502    0  0.56382766517E+02 -0.89449253795E+02  0.18848104850E+03  0.27702625675E+03  0.17331548090E+03 0.  0.
         24    2    3    3    0    0 -0.23066791037E+02 -0.89805244383E+02  0.11979176357E+03  0.17189459269E+03  0.81244234299E+02 0.  0.
         -6    2    1    2    0  503 -0.56382766517E+02  0.89449253795E+02  0.23879181845E+03  0.31343672550E+03  0.17332300184E+03 0.  0.
        -24    2    5    5    0    0  0.13968261966E+02  0.45407487065E+02  0.45961620759E+02  0.10344977455E+03  0.79576586058E+02 0.  0.
          4    1    4    4  501    0 -0.24312793163E+02 -0.47389646148E+01  0.67816803617E+02  0.72198951168E+02  0.00000000000E+00 0. -1.
         -3    1    4    4    0  501  0.12460021259E+01 -0.85066279769E+02  0.51974959957E+02  0.99695641517E+02  0.00000000000E+00 0.  1.
          5    1    3    3  502    0  0.79449557555E+02  0.35599058858E+00  0.68689284929E+02  0.10513166406E+03  0.47000000000E+01 0. -1.
         11    1    6    6    0    0 -0.72810427366E+01 -0.21129070335E+02  0.67346837054E+01  0.23341104540E+02  0.00000000000E+00 0. -1.
        -12    1    6    6    0    0  0.21249304702E+02  0.66536557399E+02  0.39226937054E+02  0.80108670015E+02  0.00000000000E+00 0.  1.
         -5    1    5    5    0  503 -0.70351028483E+02  0.44041766730E+02  0.19283019769E+03  0.20998695094E+03  0.47000000000E+01 0.  1.
<mgrwt>
<rscale>  2 0.20302807E+03</rscale>
<asrwt>0</asrwt>
<pdfrwt beam="1">  1       21 0.78287371E-01 0.20302967E+03</pdfrwt>
<pdfrwt beam="2">  1       21 0.12553086E-01 0.20302967E+03</pdfrwt>
<totfact> 0.77809995E+04</totfact>
</mgrwt>
</event>
<event>
12    1  0.2769346E-001  0.1946299E+03  0.7546771E-02  0.1154621E+00
         21   -1    0    0  504  503  0.00000000000E+00  0.00000000000E+00  0.17116422471E+03  0.17116422471E+03  0.00000000000E+00 0. -1.
         21   -1    0    0  502  504 -0.00000000000E+00 -0.00000000000E+00 -0.22562784576E+03  0.22562784576E+03  0.00000000000E+00 0. -1.
          6    2    1    2  502    0  0.36412055503E+02 -0.80218064435E+02  0.42621420070E+01  0.19467651844E+03  0.17355116055E+03 0.  0.
         24    2    3    3    0    0 -0.10105599388E+02  0.35197297449E+01 -0.37909956923E+02  0.89907790667E+02  0.80819145952E+02 0.  0.
         -6    2    1    2    0  503 -0.36412055503E+02  0.80218064435E+02 -0.58725763065E+02  0.20211555203E+03  0.17216621468E+03 0.  0.
        -24    2    5    5    0    0 -0.85694320493E+02  0.82203968242E+02 -0.33010582475E+02  0.14629399733E+03  0.78811332564E+02 0.  0.
          2    1    4    4  501    0  0.25620527026E+02  0.20549186532E+02  0.30085698953E+01  0.32980781753E+02  0.00000000000E+00 0. -1.
         -1    1    4    4    0  501 -0.35726126414E+02 -0.17029456787E+02 -0.40918526818E+02  0.56927008914E+02  0.00000000000E+00 0.  1.
          5    1    3    3  502    0  0.46517654891E+02 -0.83737794180E+02  0.42172098930E+02  0.10476872777E+03  0.47000000000E+01 0. -1.
         11    1    6    6    0    0 -0.29221330214E+02 -0.10339583420E+02  0.50259842288E+01  0.31401491084E+02  0.00000000000E+00 0. -1.
        -12    1    6    6    0    0 -0.56472990279E+02  0.92543551663E+02 -0.38036566704E+02  0.11489250625E+03  0.00000000000E+00 0.  1.
         -5    1    5    5    0  503  0.49282264990E+02 -0.19859038070E+01 -0.25715180589E+02  0.55821554701E+02  0.47000000000E+01 0.  1.
<mgrwt>
<rscale>  2 0.19432064E+03</rscale>
<asrwt>0</asrwt>
<pdfrwt beam="1">  1       21 0.26332958E-01 0.19462986E+03</pdfrwt>
<pdfrwt beam="2">  1       21 0.34711976E-01 0.19462986E+03</pdfrwt>
<totfact> 0.10961826E+05</totfact>
</mgrwt>
</event>
<event>
12    1  0.2769346E-001  0.2008474E+03  0.7546771E-02  0.1152545E+00
         21   -1    0    0  504  503  0.00000000000E+00  0.00000000000E+00  0.41584155385E+02  0.41584155385E+02  0.00000000000E+00 0. -1.
         21   -1    0    0  502  504 -0.00000000000E+00 -0.00000000000E+00 -0.10092233211E+04  0.10092233211E+04  0.00000000000E+00 0. -1.
          6    2    1    2  502    0  0.20849978039E+02 -0.62499691967E+02 -0.67895523071E+03  0.70803947155E+03  0.18973337842E+03 0.  0.
         24    2    3    3    0    0  0.38821498114E+01 -0.90645182537E+01 -0.12232804090E+03  0.14857620786E+03  0.83746661865E+02 0.  0.
         -6    2    1    2    0  503 -0.20849978039E+02  0.62499691967E+02 -0.28868393499E+03  0.34276800492E+03  0.17265734214E+03 0.  0.
        -24    2    5    5    0    0 -0.73070278049E+02  0.51626439390E+02 -0.24461721696E+03  0.27341994804E+03  0.83164477843E+02 0.  0.
          2    1    4    4  501    0  0.38695812481E+02  0.21581454351E+01 -0.29207627160E+02  0.48529465066E+02  0.00000000000E+00 0. -1.
         -1    1    4    4    0  501 -0.34813662669E+02 -0.11222663689E+02 -0.93120413742E+02  0.10004674280E+03  0.00000000000E+00 0.  1.
          5    1    3    3  502    0  0.16967828228E+02 -0.53435173713E+02 -0.55662718980E+03  0.55946326368E+03  0.47000000000E+01 0. -1.
         13    1    6    6    0    0 -0.84355996617E+02  0.19883682196E+02 -0.15354182485E+03  0.17631332043E+03  0.00000000000E+00 0. -1.
        -14    1    6    6    0    0  0.11285718568E+02  0.31742757194E+02 -0.91075392107E+02  0.97106627608E+02  0.00000000000E+00 0.  1.
         -5    1    5    5    0  503  0.52220300010E+02  0.10873252577E+02 -0.44066718030E+02  0.69348056877E+02  0.47000000000E+01 0.  1.
<mgrwt>
<rscale>  2 0.19670976E+03</rscale>
<asrwt>0</asrwt>
<pdfrwt beam="1">  1       21 0.63975625E-02 0.20084742E+03</pdfrwt>
<pdfrwt beam="2">  1       21 0.15526512E+00 0.20084742E+03</pdfrwt>
<totfact> 0.47961633E+04</totfact>
</mgrwt>
</event>
<event>
12    1  0.2769346E-001  0.1903793E+03  0.7546771E-02  0.1158244E+00
         21   -1    0    0  504  503  0.00000000000E+00  0.00000000000E+00  0.43743402698E+02  0.43743402698E+02  0.00000000000E+00 0.  1.
         21   -1    0    0  502  504 -0.00000000000E+00 -0.00000000000E+00 -0.86160288615E+03  0.86160288615E+03  0.00000000000E+00 0.  1.
          6    2    1    2  502    0 -0.41419947267E+02 -0.65469963857E+02 -0.31769435008E+03  0.37037004404E+03  0.17390325254E+03 0.  0.
         24    2    3    3    0    0 -0.24487860049E+02 -0.45895351494E+02 -0.63438249773E+02  0.11475682925E+03  0.80241384257E+02 0.  0.
         -6    2    1    2    0  503  0.41419947267E+02  0.65469963857E+02 -0.50016513337E+03  0.53497624482E+03  0.17329885653E+03 0.  0.
        -24    2    5    5    0    0 -0.12237964650E+02 -0.83952527908E+01 -0.17249127320E+03  0.19478881063E+03  0.89270338667E+02 0.  0.
          4    1    4    4  501    0  0.29550408221E+02 -0.12832766667E+02 -0.19459844233E+02  0.37637641583E+02  0.00000000000E+00 0. -1.
         -3    1    4    4    0  501 -0.54038268270E+02 -0.33062584827E+02 -0.43978405540E+02  0.77119187671E+02  0.00000000000E+00 0.  1.
          5    1    3    3  502    0 -0.16932087218E+02 -0.19574612363E+02 -0.25425610031E+03  0.25561321478E+03  0.47000000000E+01 0. -1.
         11    1    6    6    0    0  0.33051628554E+02 -0.22742509158E+02 -0.55186089683E+02  0.68228559763E+02  0.00000000000E+00 0. -1.
        -12    1    6    6    0    0 -0.45289593204E+02  0.14347256367E+02 -0.11730518352E+03  0.12656025086E+03  0.00000000000E+00 0.  1.
         -5    1    5    5    0  503  0.53657911917E+02  0.73865216648E+02 -0.32767386017E+03  0.34018743419E+03  0.47000000000E+01 0.  1.
<mgrwt>
<rscale>  2 0.19024115E+03</rscale>
<asrwt>0</asrwt>
<pdfrwt beam="1">  1       21 0.67297548E-02 0.19037928E+03</pdfrwt>
<pdfrwt beam="2">  1       21 0.13255428E+00 0.19037928E+03</pdfrwt>
<totfact> 0.66697669E+04</totfact>
</mgrwt>
</event>
<event>
12    1  0.2769346E-001  0.2483014E+03  0.7546771E-02  0.1114469E+00
         21   -1    0    0  504  503  0.00000000000E+00  0.00000000000E+00  0.56847030370E+03  0.56847030370E+03  0.00000000000E+00 0. -1.
         21   -1    0    0  502  504 -0.00000000000E+00 -0.00000000000E+00 -0.15339893933E+03  0.15339893933E+03  0.00000000000E+00 0.  1.
          6    2    1    2  502    0 -0.17707238949E+03 -0.18406302426E+02  0.11496331172E+02  0.24802708328E+03  0.17231321865E+03 0.  0.
         24    2    3    3    0    0 -0.14254725667E+03  0.60836131778E+01 -0.51809008452E+02  0.17172900475E+03  0.80311561946E+02 0.  0.
         -6    2    1    2    0  503  0.17707238949E+03  0.18406302426E+02  0.40357503320E+03  0.47384215975E+03  0.17309003970E+03 0.  0.
        -24    2    5    5    0    0  0.88471842728E+02  0.61356979980E+02  0.31174885375E+03  0.33912410297E+03  0.78904140918E+02 0.  0.
          4    1    4    4  501    0 -0.71841856216E+02  0.23000816584E+02  0.10269591466E+02  0.76129852075E+02  0.00000000000E+00 0. -1.
         -3    1    4    4    0  501 -0.70705400454E+02 -0.16917203406E+02 -0.62078599918E+02  0.95599152675E+02  0.00000000000E+00 0.  1.
          5    1    3    3  502    0 -0.34525132822E+02 -0.24489915603E+02  0.63305339624E+02  0.76298078531E+02  0.47000000000E+01 0. -1.
         11    1    6    6    0    0  0.85658738802E+02  0.56509284809E+02  0.17954994258E+03  0.20680643289E+03  0.00000000000E+00 0. -1.
        -12    1    6    6    0    0  0.28131039257E+01  0.48476951708E+01  0.13219891117E+03  0.13231767009E+03  0.00000000000E+00 0.  1.
         -5    1    5    5    0  503  0.88600546765E+02 -0.42950677554E+02  0.91826179449E+02  0.13471805678E+03  0.47000000000E+01 0.  1.
<mgrwt>
<rscale>  2 0.24816607E+03</rscale>
<asrwt>0</asrwt>
<pdfrwt beam="1">  1       21 0.87456969E-01 0.24830140E+03</pdfrwt>
<pdfrwt beam="2">  1       21 0.23599837E-01 0.24830140E+03</pdfrwt>
<totfact> 0.18382782E+04</totfact>
</mgrwt>
</event>
<event>
12    1  0.2769346E-001  0.2259689E+03  0.7546771E-02  0.1129685E+00
         21   -1    0    0  504  503  0.00000000000E+00  0.00000000000E+00  0.83893261337E+03  0.83893261337E+03  0.00000000000E+00 0. -1.
         21   -1    0    0  502  504 -0.00000000000E+00 -0.00000000000E+00 -0.11609644348E+03  0.11609644348E+03  0.00000000000E+00 0.  1.
          6    2    1    2  502    0  0.19196091559E+02  0.14308565187E+03  0.31687711005E+02  0.22817984078E+03  0.17383881905E+03 0.  0.
         24    2    3    3    0    0 -0.55857589597E+02  0.65189270807E+02  0.13022766653E+02  0.11831004791E+03  0.80361456193E+02 0.  0.
         -6    2    1    2    0  503 -0.19196091559E+02 -0.14308565187E+03  0.69114845888E+03  0.72684921607E+03  0.17257345386E+03 0.  0.
        -24    2    5    5    0    0  0.13770864854E+01 -0.15547694104E+03  0.42548489245E+03  0.46006087255E+03  0.80272269130E+02 0.  0.
          2    1    4    4  501    0 -0.41226962327E+01  0.40308349778E+02  0.38143036703E+02  0.55647560009E+02  0.00000000000E+00 0. -1.
         -1    1    4    4    0  501 -0.51734893365E+02  0.24880921029E+02 -0.25120270050E+02  0.62662487902E+02  0.00000000000E+00 0.  1.
          5    1    3    3  502    0  0.75053681156E+02  0.77896381061E+02  0.18664944352E+02  0.10986979287E+03  0.47000000000E+01 0. -1.
         11    1    6    6    0    0 -0.21463403162E+02 -0.29480329024E+02  0.17482419872E+03  0.17858686383E+03  0.00000000000E+00 0. -1.
        -12    1    6    6    0    0  0.22840489647E+02 -0.12599661202E+03  0.25066069373E+03  0.28147400873E+03  0.00000000000E+00 0.  1.
         -5    1    5    5    0  503 -0.20573178044E+02  0.12391289174E+02  0.26566356644E+03  0.26678834351E+03  0.47000000000E+01 0.  1.
<mgrwt>
<rscale>  2 0.22572547E+03</rscale>
<asrwt>0</asrwt>
<pdfrwt beam="1">  1       21 0.12906655E+00 0.22596887E+03</pdfrwt>
<pdfrwt beam="2">  1       21 0.17860992E-01 0.22596887E+03</pdfrwt>
<totfact> 0.12257833E+04</totfact>
</mgrwt>
</event>
<event>
12    1  0.2769346E-001  0.1856586E+03  0.7546771E-02  0.1162577E+00
         21   -1    0    0  504  503  0.00000000000E+00  0.00000000000E+00  0.18157412358E+03  0.18157412358E+03  0.00000000000E+00 0.  1.
         21   -1    0    0  502  504 -0.00000000000E+00 -0.00000000000E+00 -0.22008521714E+03  0.22008521714E+03  0.00000000000E+00 0.  1.
          6    2    1    2  502    0  0.47294124840E+02  0.45287986027E+02 -0.94439246756E+02  0.20775972367E+03  0.17308262630E+03 0.  0.
         24    2    3    3    0    0 -0.25682137898E+02  0.55080498684E+02 -0.18726241265E+02  0.10204322813E+03  0.79804227668E+02 0.  0.
         -6    2    1    2    0  503 -0.47294124840E+02 -0.45287986027E+02  0.55928153189E+02  0.19389961705E+03  0.17372785399E+03 0.  0.
        -24    2    5    5    0    0 -0.65954789445E+02 -0.91302813511E+01  0.91162519321E+02  0.13987045301E+03  0.82581731679E+02 0.  0.
          2    1    4    4  501    0 -0.46857583640E+02  0.55492063173E+02  0.16576546220E+01  0.72648124812E+02  0.00000000000E+00 0. -1.
         -1    1    4    4    0  501  0.21175445742E+02 -0.41156448958E+00 -0.20383895887E+02  0.29395103321E+02  0.00000000000E+00 0.  1.
          5    1    3    3  502    0  0.72976262738E+02 -0.97925126564E+01 -0.75713005491E+02  0.10571649553E+03  0.47000000000E+01 0. -1.
         11    1    6    6    0    0 -0.12959515267E+02  0.22671707727E+02  0.69722021112E+02  0.74452102691E+02  0.00000000000E+00 0. -1.
        -12    1    6    6    0    0 -0.52995274178E+02 -0.31801989079E+02  0.21440498210E+02  0.65418350316E+02  0.00000000000E+00 0.  1.
         -5    1    5    5    0  503  0.18660664605E+02 -0.36157704676E+02 -0.35234366132E+02  0.54029164048E+02  0.47000000000E+01 0.  1.
<mgrwt>
<rscale>  2 0.18550748E+03</rscale>
<asrwt>0</asrwt>
<pdfrwt beam="1">  1       21 0.27934481E-01 0.18565857E+03</pdfrwt>
<pdfrwt beam="2">  1       21 0.33859264E-01 0.18565857E+03</pdfrwt>
<totfact> 0.10311210E+05</totfact>
</mgrwt>
</event>
<event>
12    1  0.2769346E-001  0.2018032E+03  0.7546771E-02  0.1148487E+00
         21   -1    0    0  504  503  0.00000000000E+00  0.00000000000E+00  0.28229656963E+04  0.28229656963E+04  0.00000000000E+00 0. -1.
         21   -1    0    0  502  504 -0.00000000000E+00 -0.00000000000E+00 -0.14522547479E+02  0.14522547479E+02  0.00000000000E+00 0. -1.
          6    2    1    2  502    0 -0.78781672298E+02  0.65308041099E+02  0.15601260937E+04  0.15729646189E+04  0.17248933907E+03 0.  0.
         24    2    3    3    0    0 -0.18779364358E+02  0.95809959984E+02  0.11846671372E+04  0.11914909474E+04  0.81744963048E+02 0.  0.
         -6    2    1    2    0  503  0.78781672298E+02 -0.65308041099E+02  0.12483170551E+04  0.12645236248E+04  0.17393342269E+03 0.  0.
        -24    2    5    5    0    0  0.89290796468E+02  0.55990222028E+01  0.57613667873E+03  0.58851563544E+03  0.80081116345E+02 0.  0.
          4    1    4    4  501    0 -0.41435642061E+02  0.91238261506E+02  0.10577903650E+04  0.10625261358E+04  0.00000000000E+00 0. -1.
         -3    1    4    4    0  501  0.22656277703E+02  0.45716984779E+01  0.12687677213E+03  0.12896481169E+03  0.00000000000E+00 0.  1.
          5    1    3    3  502    0 -0.60002307940E+02 -0.30501918885E+02  0.37545895652E+03  0.38147367150E+03  0.47000000000E+01 0. -1.
         13    1    6    6    0    0  0.18991039797E+02 -0.15680132869E+02  0.34748008445E+03  0.34835174070E+03  0.00000000000E+00 0. -1.
        -14    1    6    6    0    0  0.70299756671E+02  0.21279155072E+02  0.22865659428E+03  0.24016389474E+03  0.00000000000E+00 0.  1.
         -5    1    5    5    0  503 -0.10509124170E+02 -0.70907063301E+02  0.67218037635E+03  0.67600798935E+03  0.47000000000E+01 0.  1.
<mgrwt>
<rscale>  2 0.20149164E+03</rscale>
<asrwt>0</asrwt>
<pdfrwt beam="1">  1       21 0.43430198E+00 0.20180319E+03</pdfrwt>
<pdfrwt beam="2">  1       21 0.22342403E-02 0.20180319E+03</pdfrwt>
<totfact> 0.53518552E+03</totfact>
</mgrwt>
</event>
<event>
12    1  0.2769346E-001  0.2118758E+03  0.7546771E-02  0.1140348E+00
         21   -1    0    0  504  503  0.00000000000E+00  0.00000000000E+00  0.96930715255E+02  0.96930715255E+02  0.00000000000E+00 0. -1.
         21   -1    0    0  502  504 -0.00000000000E+00 -0.00000000000E+00 -0.75816413821E+03  0.75816413821E+03  0.00000000000E+00 0.  1.
          6    2    1    2  502    0  0.90619491742E+02  0.82572965989E+02 -0.59925074026E+03  0.63560427969E+03  0.17280382999E+03 0.  0.
         24    2    3    3    0    0  0.24155802907E+02 -0.15938591819E+02 -0.17179849762E+03  0.19191580937E+03  0.80494798453E+02 0.  0.
         -6    2    1    2    0  503 -0.90619491742E+02 -0.82572965989E+02 -0.61982682695E+02  0.21949057378E+03  0.17118432179E+03 0.  0.
        -24    2    5    5    0    0 -0.10341379918E+03 -0.39695565961E+02  0.10051619668E+02  0.13456003479E+03  0.75731209457E+02 0.  0.
          2    1    4    4  501    0  0.22375313323E+02 -0.26919128805E+02 -0.21234410430E+02  0.40941352301E+02  0.00000000000E+00 0. -1.
         -1    1    4    4    0  501  0.17804895835E+01  0.10980536986E+02 -0.15056408719E+03  0.15097445707E+03  0.00000000000E+00 0.  1.
          5    1    3    3  502    0  0.66463688835E+02  0.98511557808E+02 -0.42745224264E+03  0.44368847032E+03  0.47000000000E+01 0. -1.
         11    1    6    6    0    0 -0.12889015010E+02  0.17482211891E+02  0.16529080775E+02  0.27294046087E+02  0.00000000000E+00 0. -1.
        -12    1    6    6    0    0 -0.90524784174E+02 -0.57177777852E+02 -0.64774611070E+01  0.10726598870E+03  0.00000000000E+00 0.  1.
         -5    1    5    5    0  503  0.12794307442E+02 -0.42877400027E+02 -0.72034302363E+02  0.84930538989E+02  0.47000000000E+01 0.  1.
<mgrwt>
<rscale>  2 0.21154533E+03</rscale>
<asrwt>0</asrwt>
<pdfrwt beam="1">  1       21 0.14912418E-01 0.21187579E+03</pdfrwt>
<pdfrwt beam="2">  1       21 0.11664063E+00 0.21187579E+03</pdfrwt>
<totfact> 0.22191068E+04</totfact>
</mgrwt>
</event>
<event>
12    1  0.2769346E-001  0.2637954E+03  0.7546771E-02  0.1104992E+00
         21   -1    0    0  504  503  0.00000000000E+00  0.00000000000E+00  0.14369518296E+04  0.14369518296E+04  0.00000000000E+00 0.  1.
         21   -1    0    0  502  504 -0.00000000000E+00 -0.00000000000E+00 -0.11149825384E+03  0.11149825384E+03  0.00000000000E+00 0.  1.
          6    2    1    2  502    0 -0.77623744148E+02  0.18238521832E+03  0.79405709628E+02  0.27478478485E+03  0.17294969716E+03 0.  0.
         24    2    3    3    0    0 -0.11962411084E+03  0.14683161511E+03  0.52848622579E+02  0.21350299003E+03  0.83193141267E+02 0.  0.
         -6    2    1    2    0  503  0.77623744148E+02 -0.18238521832E+03  0.12460478662E+04  0.12736652986E+04  0.17406376595E+03 0.  0.
        -24    2    5    5    0    0 -0.16223799819E+02 -0.13165559334E+03  0.65824831649E+03  0.67624479599E+03  0.80123473519E+02 0.  0.
          4    1    4    4  501    0 -0.29563108896E+02  0.33566823190E+02  0.52269722233E+02  0.68795587714E+02  0.00000000000E+00 0. -1.
         -3    1    4    4    0  501 -0.90061001946E+02  0.11326479192E+03  0.57890034586E+00  0.14470740232E+03  0.00000000000E+00 0.  1.
          5    1    3    3  502    0  0.42000366693E+02  0.35553603214E+02  0.26557087049E+02  0.61281794820E+02  0.47000000000E+01 0. -1.
         11    1    6    6    0    0 -0.15692074086E+02 -0.29477495823E+02  0.34810362741E+03  0.34970172915E+03  0.00000000000E+00 0. -1.
        -12    1    6    6    0    0 -0.53172573272E+00 -0.10217809751E+03  0.31014468908E+03  0.32654306685E+03  0.00000000000E+00 0.  1.
         -5    1    5    5    0  503  0.93847543967E+02 -0.50729624983E+02  0.58779954969E+03  0.59742050264E+03  0.47000000000E+01 0.  1.
<mgrwt>
<rscale>  2 0.26361175E+03</rscale>
<asrwt>0</asrwt>
<pdfrwt beam="1">  1       21 0.22106950E+00 0.26379539E+03</pdfrwt>
<pdfrwt beam="2">  1       21 0.17153579E-01 0.26379539E+03</pdfrwt>
<totfact> 0.28526230E+03</totfact>
</mgrwt>
</event>
<event>
12    1  0.2769346E-001  0.2317360E+03  0.7546771E-02  0.1126329E+00
         21   -1    0    0  504  503  0.00000000000E+00  0.00000000000E+00  0.32004148732E+03  0.32004148732E+03  0.00000000000E+00 0.  1.
         21   -1    0    0  502  504 -0.00000000000E+00 -0.00000000000E+00 -0.28491085644E+03  0.28491085644E+03  0.00000000000E+00 0.  1.
          6    2    1    2  502    0 -0.10823116094E+03  0.97386467728E+02  0.21440996560E+03  0.31196320907E+03  0.17364130318E+03 0.  0.
         24    2    3    3    0    0 -0.11061645501E+01  0.62860086019E+02  0.15267854865E+03  0.18350818300E+03  0.80074340416E+02 0.  0.
         -6    2    1    2    0  503  0.10823116094E+03 -0.97386467728E+02 -0.17927933472E+03  0.29298913469E+03  0.18028711793E+03 0.  0.
        -24    2    5    5    0    0  0.10983877032E+03 -0.11629566225E+03 -0.88397915729E+02  0.20002858196E+03  0.81289640005E+02 0.  0.
          2    1    4    4  501    0  0.31247809891E+02  0.48705024382E+02  0.55777186713E+02  0.80372256287E+02  0.00000000000E+00 0. -1.
         -1    1    4    4    0  501 -0.32353974441E+02  0.14155061637E+02  0.96901361940E+02  0.10313592671E+03  0.00000000000E+00 0.  1.
          5    1    3    3  502    0 -0.10712499639E+03  0.34526381709E+02  0.61731416946E+02  0.12845502607E+03  0.47000000000E+01 0. -1.
         13    1    6    6    0    0  0.55669794914E+02 -0.96810873278E+02 -0.25087317320E+02  0.11445892163E+03  0.00000000000E+00 0. -1.
        -14    1    6    6    0    0  0.54168975403E+02 -0.19484788970E+02 -0.63310598409E+02  0.85569660326E+02  0.00000000000E+00 0.  1.
         -5    1    5    5    0  503 -0.16076093770E+01  0.18909194520E+02 -0.90881418994E+02  0.92960552729E+02  0.47000000000E+01 0.  1.
<mgrwt>
<rscale>  2 0.23044219E+03</rscale>
<asrwt>0</asrwt>
<pdfrwt beam="1">  1       21 0.49237152E-01 0.23173596E+03</pdfrwt>
<pdfrwt beam="2">  1       21 0.43832439E-01 0.23173596E+03</pdfrwt>
<totfact> 0.19240631E+04</totfact>
</mgrwt>
</event>
<event>
12    1  0.2769346E-001  0.1999911E+03  0.7546771E-02  0.1149816E+00
         21   -1    0    0  504  503  0.00000000000E+00  0.00000000000E+00  0.11566504118E+03  0.11566504118E+03  0.00000000000E+00 0. -1.
         21   -1    0    0  502  504 -0.00000000000E+00 -0.00000000000E+00 -0.35613668937E+03  0.35613668937E+03  0.00000000000E+00 0. -1.
          6    2    1    2  502    0 -0.98723099951E+02  0.15351065218E+02 -0.79047604789E+02  0.21504639061E+03  0.17324699312E+03 0.  0.
         24    2    3    3    0    0  0.94706123038E+01 -0.66971297453E+01 -0.19020187886E+01  0.80266816075E+02  0.79401511592E+02 0.  0.
         -6    2    1    2    0  503  0.98723099951E+02 -0.15351065218E+02 -0.16142404341E+03  0.25675533994E+03  0.17286895942E+03 0.  0.
        -24    2    5    5    0    0  0.78748208665E+02 -0.71953044710E+02 -0.76639843792E+02  0.15276865393E+03  0.78013299858E+02 0.  0.
          2    1    4    4  501    0  0.38511684671E+02 -0.73605070221E-01  0.19904090806E+02  0.43351218030E+02  0.00000000000E+00 0. -1.
         -1    1    4    4    0  501 -0.29041072367E+02 -0.66235246750E+01 -0.21806109594E+02  0.36915598045E+02  0.00000000000E+00 0.  1.
          5    1    3    3  502    0 -0.10819371225E+03  0.22048194963E+02 -0.77145586001E+02  0.13477957454E+03  0.47000000000E+01 0. -1.
         11    1    6    6    0    0  0.17828383693E+01 -0.24183988176E+02 -0.54301988834E+02  0.59470579181E+02  0.00000000000E+00 0. -1.
        -12    1    6    6    0    0  0.76965370295E+02 -0.47769056534E+02 -0.22337854958E+02  0.93298074744E+02  0.00000000000E+00 0.  1.
         -5    1    5    5    0  503  0.19974891286E+02  0.56601979493E+02 -0.84784199613E+02  0.10398668602E+03  0.47000000000E+01 0.  1.
<mgrwt>
<rscale>  2 0.19990917E+03</rscale>
<asrwt>0</asrwt>
<pdfrwt beam="1">  1       21 0.17794622E-01 0.19999107E+03</pdfrwt>
<pdfrwt beam="2">  1       21 0.54790258E-01 0.19999107E+03</pdfrwt>
<totfact> 0.89898814E+04</totfact>
</mgrwt>
</event>
<event>
12    1  0.2769346E-001  0.2334414E+03  0.7546771E-02  0.1124693E+00
         21   -1    0    0  504  503  0.00000000000E+00  0.00000000000E+00  0.43961465038E+03  0.43961465038E+03  0.00000000000E+00 0. -1.
         21   -1    0    0  502  504 -0.00000000000E+00 -0.00000000000E+00 -0.26143077231E+03  0.26143077231E+03  0.00000000000E+00 0.  1.
          6    2    1    2  502    0  0.89060507358E+02 -0.12538973276E+03 -0.16612454732E+03  0.28651743164E+03  0.17561467581E+03 0.  0.
         24    2    3    3    0    0  0.63391902546E+02 -0.10134202903E+03 -0.19384862105E+03  0.24148540313E+03  0.80306736246E+02 0.  0.
         -6    2    1    2    0  503 -0.89060507358E+02  0.12538973276E+03  0.34430842539E+03  0.41452799105E+03  0.17213600588E+03 0.  0.
        -24    2    5    5    0    0 -0.43168791975E+02  0.12048440712E+03  0.33432275736E+03  0.36707364113E+03  0.81186913758E+02 0.  0.
          4    1    4    4  501    0  0.20123584487E+02 -0.87882956679E+02 -0.16423365843E+03  0.18735278831E+03  0.00000000000E+00 0. -1.
         -3    1    4    4    0  501  0.43268318058E+02 -0.13459072348E+02 -0.29614962620E+02  0.54132614818E+02  0.00000000000E+00 0.  1.
          5    1    3    3  502    0  0.25668604813E+02 -0.24047703736E+02  0.27724073726E+02  0.45032028513E+02  0.47000000000E+01 0. -1.
         11    1    6    6    0    0 -0.14028584494E+02  0.11562969423E+03  0.21924809991E+03  0.24826751033E+03  0.00000000000E+00 0. -1.
        -12    1    6    6    0    0 -0.29140207480E+02  0.48547128901E+01  0.11507465745E+03  0.11880613081E+03  0.00000000000E+00 0.  1.
         -5    1    5    5    0  503 -0.45891715384E+02  0.49053256439E+01  0.99856680298E+01  0.47454349922E+02  0.47000000000E+01 0.  1.
<mgrwt>
<rscale>  2 0.23278723E+03</rscale>
<asrwt>0</asrwt>
<pdfrwt beam="1">  1       21 0.67633023E-01 0.23344137E+03</pdfrwt>
<pdfrwt beam="2">  1       21 0.40220119E-01 0.23344137E+03</pdfrwt>
<totfact> 0.11602088E+04</totfact>
</mgrwt>
</event>
<event>
12    1  0.2769346E-001  0.1933355E+03  0.7546771E-02  0.1158580E+00
         21   -1    0    0  504  503  0.00000000000E+00  0.00000000000E+00  0.18502524877E+03  0.18502524877E+03  0.00000000000E+00 0.  1.
         21   -1    0    0  502  504 -0.00000000000E+00 -0.00000000000E+00 -0.26247623540E+03  0.26247623540E+03  0.00000000000E+00 0.  1.
          6    2    1    2  502    0  0.54451021072E+02 -0.16549148551E+02 -0.15873411932E+03  0.25015021957E+03  0.18476965038E+03 0.  0.
         24    2    3    3    0    0 -0.59191999657E+01 -0.72092559109E+02 -0.11190304531E+03  0.15557287800E+03  0.80301026230E+02 0.  0.
         -6    2    1    2    0  503 -0.54451021072E+02  0.16549148551E+02  0.81283132697E+02  0.19735126460E+03  0.17059245577E+03 0.  0.
        -24    2    5    5    0    0 -0.91975499338E+02 -0.41876530931E+01  0.21812608353E+02  0.12388743216E+03  0.79970476095E+02 0.  0.
          4    1    4    4  501    0 -0.22136933454E+02  0.96093984195E+01 -0.32625737924E+02  0.40581068688E+02  0.00000000000E+00 0. -1.
         -3    1    4    4    0  501  0.16217733488E+02 -0.81701957529E+02 -0.79277307381E+02  0.11499180931E+03  0.00000000000E+00 0.  1.
          5    1    3    3  502    0  0.60370221038E+02  0.55543410558E+02 -0.46831074018E+02  0.94577341569E+02  0.47000000000E+01 0. -1.
         13    1    6    6    0    0 -0.51294691976E+01  0.19509519135E+02 -0.16491716692E+02  0.26055892051E+02  0.00000000000E+00 0. -1.
        -14    1    6    6    0    0 -0.86846030141E+02 -0.23697172228E+02  0.38304325045E+02  0.97831540108E+02  0.00000000000E+00 0.  1.
         -5    1    5    5    0  503  0.37524478266E+02  0.20736801645E+02  0.59470524344E+02  0.73463832444E+02  0.47000000000E+01 0.  1.
<mgrwt>
<rscale>  2 0.18986816E+03</rscale>
<asrwt>0</asrwt>
<pdfrwt beam="1">  1       21 0.28465423E-01 0.19333549E+03</pdfrwt>
<pdfrwt beam="2">  1       21 0.40380959E-01 0.19333549E+03</pdfrwt>
<totfact> 0.69717572E+04</totfact>
</mgrwt>
</event>
<event>
12    1  0.2769346E-001  0.2236560E+03  0.7546771E-02  0.1131235E+00
         21   -1    0    0  504  503  0.00000000000E+00  0.00000000000E+00  0.20534499816E+03  0.20534499816E+03  0.00000000000E+00 0.  1.
         21   -1    0    0  502  504 -0.00000000000E+00 -0.00000000000E+00 -0.38208941578E+03  0.38208941578E+03  0.00000000000E+00 0.  1.
          6    2    1    2  502    0 -0.12199579866E+03 -0.71243905550E+02  0.88609446262E+02  0.24056936944E+03  0.17338776940E+03 0.  0.
         24    2    3    3    0    0 -0.36388339707E+01 -0.54768363616E+02  0.11374407770E+02  0.98206608355E+02  0.80637125486E+02 0.  0.
         -6    2    1    2    0  503  0.12199579866E+03  0.71243905550E+02 -0.26535386388E+03  0.34686504450E+03  0.17304339643E+03 0.  0.
        -24    2    5    5    0    0  0.33345994690E+02  0.97400675412E+02 -0.13786170101E+03  0.18932360250E+03  0.78985637458E+02 0.  0.
          4    1    4    4  501    0  0.76178068242E+01 -0.74052255535E+02  0.13919156833E+02  0.75733152962E+02  0.00000000000E+00 0. -1.
         -3    1    4    4    0  501 -0.11256640795E+02  0.19283891919E+02 -0.25447490626E+01  0.22473455393E+02  0.00000000000E+00 0.  1.
          5    1    3    3  502    0 -0.11835696469E+03 -0.16475541934E+02  0.77235038491E+02  0.14236276108E+03  0.47000000000E+01 0. -1.
         13    1    6    6    0    0 -0.11468659112E+02  0.77129821667E+02 -0.10229000692E+03  0.12862264594E+03  0.00000000000E+00 0. -1.
        -14    1    6    6    0    0  0.44814653802E+02  0.20270853745E+02 -0.35571694092E+02  0.60700956562E+02  0.00000000000E+00 0.  1.
         -5    1    5    5    0  503  0.88649803970E+02 -0.26156769862E+02 -0.12749216287E+03  0.15754144200E+03  0.47000000000E+01 0.  1.
<mgrwt>
<rscale>  2 0.22358921E+03</rscale>
<asrwt>0</asrwt>
<pdfrwt beam="1">  1       21 0.31591538E-01 0.22365596E+03</pdfrwt>
<pdfrwt beam="2">  1       21 0.58782987E-01 0.22365596E+03</pdfrwt>
<totfact> 0.25638383E+04</totfact>
</mgrwt>
</event>
<event>
12    1  0.2769346E-001  0.1928000E+03  0.7546771E-02  0.1156250E+00
         21   -1    0    0  504  503  0.00000000000E+00  0.00000000000E+00  0.96463065443E+03  0.96463065443E+03  0.00000000000E+00 0.  1.
         21   -1    0    0  502  504 -0.00000000000E+00 -0.00000000000E+00 -0.50063248117E+02  0.50063248117E+02  0.00000000000E+00 0.  1.
          6    2    1    2  502    0 -0.73610950885E+02  0.38691742937E+02  0.21227394752E+03  0.28676134178E+03  0.17394313808E+03 0.  0.
         24    2    3    3    0    0 -0.79885463953E+02 -0.71508425866E+01  0.21164831990E+03  0.24024904694E+03  0.80571529335E+02 0.  0.
         -6    2    1    2    0  503  0.73610950885E+02 -0.38691742937E+02  0.70229345879E+03  0.72793256076E+03  0.17249373233E+03 0.  0.
        -24    2    5    5    0    0  0.65034008677E+02 -0.83228249050E+02  0.61274509666E+03  0.62744343958E+03  0.84097281007E+02 0.  0.
          2    1    4    4  501    0 -0.75035070565E+00  0.23585627617E+02  0.81603616417E+02  0.84947013300E+02  0.00000000000E+00 0. -1.
         -1    1    4    4    0  501 -0.79135113248E+02 -0.30736470204E+02  0.13004470348E+03  0.15530203364E+03  0.00000000000E+00 0.  1.
          5    1    3    3  502    0  0.62745130688E+01  0.45842585524E+02  0.62562762318E+00  0.46512294845E+02  0.47000000000E+01 0. -1.
         13    1    6    6    0    0  0.48363399735E+02 -0.30782505376E+02  0.13679098901E+03  0.14831842686E+03  0.00000000000E+00 0. -1.
        -14    1    6    6    0    0  0.16670608942E+02 -0.52445743674E+02  0.47595410765E+03  0.47912501273E+03  0.00000000000E+00 0.  1.
         -5    1    5    5    0  503  0.85769422075E+01  0.44536506112E+02  0.89548362133E+02  0.10048912118E+03  0.47000000000E+01 0.  1.
<mgrwt>
<rscale>  2 0.19247251E+03</rscale>
<asrwt>0</asrwt>
<pdfrwt beam="1">  1       21 0.14840470E+00 0.19280000E+03</pdfrwt>
<pdfrwt beam="2">  1       21 0.77020389E-02 0.19280000E+03</pdfrwt>
<totfact> 0.39406475E+04</totfact>
</mgrwt>
</event>
<event>
12    1  0.2769346E-001  0.1771584E+03  0.7546771E-02  0.1171855E+00
         21   -1    0    0  504  503  0.00000000000E+00  0.00000000000E+00  0.45929583669E+03  0.45929583669E+03  0.00000000000E+00 0. -1.
         21   -1    0    0  502  504 -0.00000000000E+00 -0.00000000000E+00 -0.13731967775E+03  0.13731967775E+03  0.00000000000E+00 0. -1.
          6    2    1    2  502    0  0.10457141226E+02 -0.23480986276E+02 -0.52264116921E+02  0.18470689592E+03  0.17528374415E+03 0.  0.
         24    2    3    3    0    0  0.20133418741E+02 -0.82260635677E+02 -0.25656091224E+02  0.11929470622E+03  0.80005157222E+02 0.  0.
         -6    2    1    2    0  503 -0.10457141226E+02  0.23480986276E+02  0.37424027586E+03  0.41190861853E+03  0.17015351134E+03 0.  0.
        -24    2    5    5    0    0  0.11525033498E+01  0.59960082204E+02  0.15780243892E+03  0.19206109058E+03  0.91593193317E+02 0.  0.
          4    1    4    4  501    0  0.11827728128E+02 -0.66535435686E+02 -0.53543595640E+02  0.86219348111E+02  0.00000000000E+00 0. -1.
         -3    1    4    4    0  501  0.83056906132E+01 -0.15725199991E+02  0.27887504415E+02  0.33075358106E+02  0.00000000000E+00 0.  1.
          5    1    3    3  502    0 -0.96762775147E+01  0.58779649402E+02 -0.26608025697E+02  0.65412189703E+02  0.47000000000E+01 0. -1.
         11    1    6    6    0    0 -0.41265637517E+02  0.10591704679E+02  0.46044692993E+02  0.62730780327E+02  0.00000000000E+00 0. -1.
        -12    1    6    6    0    0  0.42418140867E+02  0.49368377525E+02  0.11175774593E+03  0.12933031025E+03  0.00000000000E+00 0.  1.
         -5    1    5    5    0  503 -0.11609644576E+02 -0.36479095928E+02  0.21643783694E+03  0.21984752795E+03  0.47000000000E+01 0.  1.
<mgrwt>
<rscale>  2 0.17587596E+03</rscale>
<asrwt>0</asrwt>
<pdfrwt beam="1">  1       21 0.70660897E-01 0.17715840E+03</pdfrwt>
<pdfrwt beam="2">  1       21 0.21126105E-01 0.17715840E+03</pdfrwt>
<totfact> 0.38113314E+04</totfact>
</mgrwt>
</event>
<event>
12    1  0.2769346E-001  0.2198539E+03  0.7546771E-02  0.1134712E+00
         21   -1    0    0  504  503  0.00000000000E+00  0.00000000000E+00  0.11548063528E+03  0.11548063528E+03  0.00000000000E+00 0.  1.
         21   -1    0    0  502  504 -0.00000000000E+00 -0.00000000000E+00 -0.51314782186E+03  0.51314782186E+03  0.00000000000E+00 0.  1.
          6    2    1    2  502    0  0.10886442391E+03  0.73945376999E+02 -0.34024796799E+03  0.40509806089E+03  0.17611467185E+03 0.  0.
         24    2    3    3    0    0  0.90871313231E+02  0.44889082119E+02 -0.10261533215E+03  0.16497438459E+03  0.80087551570E+02 0.  0.
         -6    2    1    2    0  503 -0.10886442391E+03 -0.73945376999E+02 -0.57419218593E+02  0.22353039626E+03  0.17131692799E+03 0.  0.
        -24    2    5    5    0    0 -0.68442585775E+02 -0.10799156159E+03 -0.73910904450E+02  0.16796841838E+03  0.80025013938E+02 0.  0.
          4    1    4    4  501    0  0.90033946935E+02  0.36288838936E+02 -0.45495433220E+02  0.10720459820E+03  0.00000000000E+00 0. -1.
         -3    1    4    4    0  501  0.83736629540E+00  0.86002431828E+01 -0.57119898932E+02  0.57769786387E+02  0.00000000000E+00 0.  1.
          5    1    3    3  502    0  0.17993110676E+02  0.29056294881E+02 -0.23763263584E+03  0.24012367630E+03  0.47000000000E+01 0. -1.
         13    1    6    6    0    0  0.13846548553E+02 -0.43847606885E+02 -0.16311475237E+02  0.48789381640E+02  0.00000000000E+00 0. -1.
        -14    1    6    6    0    0 -0.82289134328E+02 -0.64143954702E+02 -0.57599429213E+02  0.11917903674E+03  0.00000000000E+00 0.  1.
         -5    1    5    5    0  503 -0.40421838132E+02  0.34046184588E+02  0.16491685857E+02  0.55561977875E+02  0.47000000000E+01 0.  1.
<mgrwt>
<rscale>  2 0.21889161E+03</rscale>
<asrwt>0</asrwt>
<pdfrwt beam="1">  1       21 0.17766252E-01 0.21985395E+03</pdfrwt>
<pdfrwt beam="2">  1       21 0.78945818E-01 0.21985395E+03</pdfrwt>
<totfact> 0.40199175E+04</totfact>
</mgrwt>
</event>
<event>
12    1  0.2769346E-001  0.2130587E+03  0.7546771E-02  0.1141451E+00
         21   -1    0    0  504  503  0.00000000000E+00  0.00000000000E+00  0.92152067036E+03  0.92152067036E+03  0.00000000000E+00 0. -1.
         21   -1    0    0  502  504 -0.00000000000E+00 -0.00000000000E+00 -0.12762828638E+03  0.12762828638E+03  0.00000000000E+00 0. -1.
          6    2    1    2  502    0 -0.10419655159E+03 -0.84297041886E+01 -0.24824924731E+02  0.20316311125E+03  0.17242677172E+03 0.  0.
         24    2    3    3    0    0  0.34687232467E+01  0.20214624768E+01 -0.44211098295E+02  0.93167874911E+02  0.81911619148E+02 0.  0.
         -6    2    1    2    0  503  0.10419655159E+03  0.84297041886E+01  0.81871730871E+03  0.84598584549E+03  0.18565031086E+03 0.  0.
        -24    2    5    5    0    0  0.11050197630E+03  0.67542732299E+02  0.55623563956E+03  0.57681522096E+03  0.80901204949E+02 0.  0.
          4    1    4    4  501    0 -0.14968199044E+02 -0.31486531753E+02 -0.20371273558E+00  0.34863880497E+02  0.00000000000E+00 0. -1.
         -3    1    4    4    0  501  0.18436922290E+02  0.33507994230E+02 -0.44007385559E+02  0.58303994414E+02  0.00000000000E+00 0.  1.
          5    1    3    3  502    0 -0.10766527484E+03 -0.10451166665E+02  0.19386173563E+02  0.10999523634E+03  0.47000000000E+01 0. -1.
         11    1    6    6    0    0  0.34548693112E+02  0.53620006233E+02  0.36579633287E+03  0.37131613809E+03  0.00000000000E+00 0. -1.
        -12    1    6    6    0    0  0.75953283191E+02  0.13922726066E+02  0.19043930669E+03  0.20549908287E+03  0.00000000000E+00 0.  1.
         -5    1    5    5    0  503 -0.63054247093E+01 -0.59113028111E+02  0.26248166914E+03  0.26917062453E+03  0.47000000000E+01 0.  1.
<mgrwt>
<rscale>  2 0.21014499E+03</rscale>
<asrwt>0</asrwt>
<pdfrwt beam="1">  1       21 0.14177241E+00 0.21305872E+03</pdfrwt>
<pdfrwt beam="2">  1       21 0.19635121E-01 0.21305872E+03</pdfrwt>
<totfact> 0.81481828E+03</totfact>
</mgrwt>
</event>
<event>
12    1  0.2769346E-001  0.2258966E+03  0.7546771E-02  0.1129597E+00
         21   -1    0    0  504  503  0.00000000000E+00  0.00000000000E+00  0.48463868222E+02  0.48463868222E+02  0.00000000000E+00 0. -1.
         21   -1    0    0  502  504 -0.00000000000E+00 -0.00000000000E+00 -0.11748653548E+04  0.11748653548E+04  0.00000000000E+00 0. -1.
          6    2    1    2  502    0  0.84758695339E+02 -0.11924231521E+03 -0.76121033633E+03  0.79402169212E+03  0.17212351741E+03 0.  0.
         24    2    3    3    0    0 -0.11921080812E+02 -0.11156377177E+02 -0.22419647722E+03  0.23775240122E+03  0.77431046551E+02 0.  0.
         -6    2    1    2    0  503 -0.84758695339E+02  0.11924231521E+03 -0.36519115028E+03  0.42930753093E+03  0.17186510322E+03 0.  0.
        -24    2    5    5    0    0  0.21420413494E+02  0.70698740669E+02 -0.17834113703E+03  0.20893171731E+03  0.79935944938E+02 0.  0.
          4    1    4    4  501    0 -0.25711915114E+02 -0.28255446362E+02 -0.54018523721E+02  0.66162479798E+02  0.00000000000E+00 0. -1.
         -3    1    4    4    0  501  0.13790834302E+02  0.17099069184E+02 -0.17017795350E+03  0.17158992142E+03  0.00000000000E+00 0.  1.
          5    1    3    3  502    0  0.96679776151E+02 -0.10808593803E+03 -0.53701385912E+03  0.55626929090E+03  0.47000000000E+01 0. -1.
         11    1    6    6    0    0  0.24344593664E+01  0.83899356676E+02 -0.12254748809E+03  0.14853590637E+03  0.00000000000E+00 0. -1.
        -12    1    6    6    0    0  0.18985954128E+02 -0.13200616006E+02 -0.55793648938E+02  0.60395810939E+02  0.00000000000E+00 0.  1.
         -5    1    5    5    0  503 -0.10617910883E+03  0.48543574537E+02 -0.18685001325E+03  0.22037581363E+03  0.47000000000E+01 0.  1.
<mgrwt>
<rscale>  2 0.22584737E+03</rscale>
<asrwt>0</asrwt>
<pdfrwt beam="1">  1       21 0.74559802E-02 0.22589659E+03</pdfrwt>
<pdfrwt beam="2">  1       21 0.18074850E+00 0.22589659E+03</pdfrwt>
<totfact> 0.23850621E+04</totfact>
</mgrwt>
</event>
<event>
12    1  0.2769346E-001  0.2290466E+03  0.7546771E-02  0.1127959E+00
         21   -1    0    0  504  503  0.00000000000E+00  0.00000000000E+00  0.27395847546E+03  0.27395847546E+03  0.00000000000E+00 0.  1.
         21   -1    0    0  502  504 -0.00000000000E+00 -0.00000000000E+00 -0.19820448292E+03  0.19820448292E+03  0.00000000000E+00 0.  1.
          6    2    1    2  502    0 -0.96553674308E+02  0.11426505050E+03 -0.14119507275E+02  0.22948140193E+03  0.17344520622E+03 0.  0.
         24    2    3    3    0    0 -0.10293197141E+03  0.12027221080E+03 -0.54568822386E+02  0.18782800181E+03  0.85095278713E+02 0.  0.
         -6    2    1    2    0  503  0.96553674308E+02 -0.11426505050E+03  0.89873499813E+02  0.24268155644E+03  0.16863563705E+03 0.  0.
        -24    2    5    5    0    0  0.45529996221E+02  0.50034237002E+01  0.18699950886E+02  0.94640519129E+02  0.80679147822E+02 0.  0.
          4    1    4    4  501    0 -0.10274858225E+03  0.76423998867E+02 -0.15298370111E+02  0.12896487462E+03  0.00000000000E+00 0. -1.
         -3    1    4    4    0  501 -0.18338916006E+00  0.43848211928E+02 -0.39270452275E+02  0.58863127192E+02  0.00000000000E+00 0.  1.
          5    1    3    3  502    0  0.63782971018E+01 -0.60071602996E+01  0.40449315111E+02  0.41653400122E+02  0.47000000000E+01 0. -1.
         11    1    6    6    0    0  0.14975438721E+01  0.59094388963E+00  0.43756590718E+02  0.43786197409E+02  0.00000000000E+00 0. -1.
        -12    1    6    6    0    0  0.44032452348E+02  0.44124798106E+01 -0.25056639832E+02  0.50854321720E+02  0.00000000000E+00 0.  1.
         -5    1    5    5    0  503  0.51023678087E+02 -0.11926847420E+03  0.71173548928E+02  0.14804103732E+03  0.47000000000E+01 0.  1.
<mgrwt>
<rscale>  2 0.22813617E+03</rscale>
<asrwt>0</asrwt>
<pdfrwt beam="1">  1       21 0.42147458E-01 0.22904662E+03</pdfrwt>
<pdfrwt beam="2">  1       21 0.30492997E-01 0.22904662E+03</pdfrwt>
<totfact> 0.55007657E+04</totfact>
</mgrwt>
</event>
<event>
12    1  0.2769346E-001  0.2448881E+03  0.7546771E-02  0.1116637E+00
         21   -1    0    0  504  503  0.00000000000E+00  0.00000000000E+00  0.78275272380E+03  0.78275272380E+03  0.00000000000E+00 0. -1.
         21   -1    0    0  502  504 -0.00000000000E+00 -0.00000000000E+00 -0.76502056614E+02  0.76502056614E+02  0.00000000000E+00 0. -1.
          6    2    1    2  502    0 -0.94044683342E+02  0.14528998538E+03  0.35363878136E+03  0.43015177589E+03  0.17325293735E+03 0.  0.
         24    2    3    3    0    0  0.12463631521E+02  0.52605497446E+02  0.19534163846E+03  0.21798554179E+03  0.80228799332E+02 0.  0.
         -6    2    1    2    0  503  0.94044683342E+02 -0.14528998538E+03  0.35261188583E+03  0.42910300453E+03  0.17274450541E+03 0.  0.
        -24    2    5    5    0    0  0.79490188615E+02 -0.12195235551E+03  0.36309224910E+03  0.39929685921E+03  0.80068304040E+02 0.  0.
          2    1    4    4  501    0 -0.66367486865E+01  0.32826637449E+02  0.17040483062E+02  0.37576756411E+02  0.00000000000E+00 0. -1.
         -1    1    4    4    0  501  0.19100380208E+02  0.19778859996E+02  0.17830115540E+03  0.18040878538E+03  0.00000000000E+00 0.  1.
          5    1    3    3  502    0 -0.10650831486E+03  0.92684487939E+02  0.15829714290E+03  0.21216623409E+03  0.47000000000E+01 0. -1.
         13    1    6    6    0    0  0.66592885703E+02 -0.92222936062E+02  0.17698068231E+03  0.21038499061E+03  0.00000000000E+00 0. -1.
        -14    1    6    6    0    0  0.12897302912E+02 -0.29729419451E+02  0.18611156679E+03  0.18891186859E+03  0.00000000000E+00 0.  1.
         -5    1    5    5    0  503  0.14554494728E+02 -0.23337629872E+02 -0.10480363272E+02  0.29806145325E+02  0.47000000000E+01 0.  1.
<mgrwt>
<rscale>  2 0.24479815E+03</rscale>
<asrwt>0</asrwt>
<pdfrwt beam="1">  1       21 0.12042349E+00 0.24488806E+03</pdfrwt>
<pdfrwt beam="2">  1       21 0.11769548E-01 0.24488806E+03</pdfrwt>
<totfact> 0.30919134E+04</totfact>
</mgrwt>
</event>
<event>
12    1  0.2769346E-001  0.1811851E+03  0.7546771E-02  0.1167071E+00
         21   -1    0    0  504  503  0.00000000000E+00  0.00000000000E+00  0.24674908154E+03  0.24674908154E+03  0.00000000000E+00 0. -1.
         21   -1    0    0  502  504 -0.00000000000E+00 -0.00000000000E+00 -0.32573903095E+03  0.32573903095E+03  0.00000000000E+00 0. -1.
          6    2    1    2  502    0 -0.20247226145E+02  0.48936939711E+02 -0.26028866394E+03  0.31617336517E+03  0.17149528866E+03 0.  0.
         24    2    3    3    0    0 -0.12186367848E+02  0.57238052333E+02 -0.27739760957E+03  0.29499101572E+03  0.81520324863E+02 0.  0.
         -6    2    1    2    0  503  0.20247226145E+02 -0.48936939711E+02  0.18129871453E+03  0.25631474732E+03  0.17327218925E+03 0.  0.
        -24    2    5    5    0    0 -0.33784996112E+02 -0.73985922985E+02  0.13771450233E+03  0.18236472258E+03  0.87614297515E+02 0.  0.
          4    1    4    4  501    0 -0.39042234774E+02  0.53495409048E+02 -0.23885129399E+03  0.24786285629E+03  0.00000000000E+00 0. -1.
         -3    1    4    4    0  501  0.26855866926E+02  0.37426432849E+01 -0.38546315580E+02  0.47128159437E+02  0.00000000000E+00 0.  1.
          5    1    3    3  502    0 -0.80608582974E+01 -0.83011126213E+01  0.17108945635E+02  0.21182349445E+02  0.47000000000E+01 0. -1.
         11    1    6    6    0    0 -0.29694882847E+02 -0.12313003966E+02  0.11004749857E+03  0.11464662261E+03  0.00000000000E+00 0. -1.
        -12    1    6    6    0    0 -0.40901132644E+01 -0.61672919019E+02  0.27667003752E+02  0.67718099969E+02  0.00000000000E+00 0.  1.
         -5    1    5    5    0  503  0.54032222257E+02  0.25048983274E+02  0.43584212202E+02  0.73950024735E+02  0.47000000000E+01 0.  1.
<mgrwt>
<rscale>  2 0.18075892E+03</rscale>
<asrwt>0</asrwt>
<pdfrwt beam="1">  1       21 0.37961397E-01 0.18118506E+03</pdfrwt>
<pdfrwt beam="2">  1       21 0.50113697E-01 0.18118506E+03</pdfrwt>
<totfact> 0.25543577E+04</totfact>
</mgrwt>
</event>
<event>
12    1  0.2769346E-001  0.1770968E+03  0.7546771E-02  0.1170995E+00
         21   -1    0    0  504  503  0.00000000000E+00  0.00000000000E+00  0.31227410983E+03  0.31227410983E+03  0.00000000000E+00 0.  1.
         21   -1    0    0  502  504 -0.00000000000E+00 -0.00000000000E+00 -0.28615825280E+03  0.28615825280E+03  0.00000000000E+00 0.  1.
          6    2    1    2  502    0  0.29723871147E+02  0.45418709457E+01 -0.22849890438E+03  0.28909347119E+03  0.17452549578E+03 0.  0.
         24    2    3    3    0    0  0.48243363738E+02  0.52754950928E+02 -0.20794219596E+03  0.23330690518E+03  0.77984922570E+02 0.  0.
         -6    2    1    2    0  503 -0.29723871147E+02 -0.45418709457E+01  0.25461476141E+03  0.30933889144E+03  0.17308303188E+03 0.  0.
        -24    2    5    5    0    0 -0.11760824253E+02  0.15315474427E+02  0.38402976347E+02  0.91424662404E+02  0.80689525710E+02 0.  0.
          4    1    4    4  501    0  0.69680119812E+02  0.38496664778E+02 -0.14753533013E+03  0.16764243476E+03  0.00000000000E+00 0. -1.
         -3    1    4    4    0  501 -0.21436756075E+02  0.14258286150E+02 -0.60406865833E+02  0.65664470414E+02  0.00000000000E+00 0.  1.
          5    1    3    3  502    0 -0.18519492591E+02 -0.48213079983E+02 -0.20556708411E+02  0.55786566017E+02  0.47000000000E+01 0. -1.
         13    1    6    6    0    0 -0.25568842792E+02  0.40664442541E+02  0.66184855377E+01  0.48488833351E+02  0.00000000000E+00 0. -1.
        -14    1    6    6    0    0  0.13808018539E+02 -0.25348968115E+02  0.31784490809E+02  0.42935829053E+02  0.00000000000E+00 0.  1.
         -5    1    5    5    0  503 -0.17963046894E+02 -0.19857345372E+02  0.21621178506E+03  0.21791422904E+03  0.47000000000E+01 0.  1.
<mgrwt>
<rscale>  2 0.17674041E+03</rscale>
<asrwt>0</asrwt>
<pdfrwt beam="1">  1       21 0.48042171E-01 0.17709683E+03</pdfrwt>
<pdfrwt beam="2">  1       21 0.44024347E-01 0.17709683E+03</pdfrwt>
<totfact> 0.20712507E+04</totfact>
</mgrwt>
</event>
<event>
12    1  0.2769346E-001  0.1988415E+03  0.7546771E-02  0.1151679E+00
         21   -1    0    0  504  503  0.00000000000E+00  0.00000000000E+00  0.11528410357E+03  0.11528410357E+03  0.00000000000E+00 0.  1.
         21   -1    0    0  502  504 -0.00000000000E+00 -0.00000000000E+00 -0.37547930783E+03  0.37547930783E+03  0.00000000000E+00 0.  1.
          6    2    1    2  502    0  0.87073495277E+02  0.14960960642E+02 -0.21166238378E+03  0.29041163882E+03  0.17813571044E+03 0.  0.
         24    2    3    3    0    0  0.95974462845E+01 -0.13594795052E+02 -0.18725345919E+03  0.20418023532E+03  0.79679238744E+02 0.  0.
         -6    2    1    2    0  503 -0.87073495277E+02 -0.14960960642E+02 -0.48532820488E+02  0.20035177257E+03  0.17314668402E+03 0.  0.
        -24    2    5    5    0    0 -0.12401868899E+03  0.67484553633E+01 -0.53009001538E+02  0.15701158016E+03  0.80103091028E+02 0.  0.
          4    1    4    4  501    0 -0.27965502728E+00 -0.30818300571E+02 -0.18064428072E+03  0.18325447338E+03  0.00000000000E+00 0. -1.
         -3    1    4    4    0  501  0.98771013117E+01  0.17223505519E+02 -0.66091784771E+01  0.20925761941E+02  0.00000000000E+00 0.  1.
          5    1    3    3  502    0  0.77476048993E+02  0.28555755694E+02 -0.24408924582E+02  0.86231403503E+02  0.47000000000E+01 0. -1.
         13    1    6    6    0    0 -0.41200219832E+01  0.12117288841E+02  0.14474684068E+02  0.19321484128E+02  0.00000000000E+00 0. -1.
        -14    1    6    6    0    0 -0.11989866700E+03 -0.53688334782E+01 -0.67483685607E+02  0.13769009603E+03  0.00000000000E+00 0.  1.
         -5    1    5    5    0  503  0.36945193711E+02 -0.21709416006E+02  0.44761810504E+01  0.43340192413E+02  0.47000000000E+01 0.  1.
<mgrwt>
<rscale>  2 0.19771783E+03</rscale>
<asrwt>0</asrwt>
<pdfrwt beam="1">  1       21 0.17736016E-01 0.19884153E+03</pdfrwt>
<pdfrwt beam="2">  1       21 0.57766048E-01 0.19884153E+03</pdfrwt>
<totfact> 0.80872287E+04</totfact>
</mgrwt>
</event>
<event>
12    1  0.2769346E-001  0.2319726E+03  0.7546771E-02  0.1125367E+00
         21   -1    0    0  504  503  0.00000000000E+00  0.00000000000E+00  0.53470872198E+03  0.53470872198E+03  0.00000000000E+00 0. -1.
         21   -1    0    0  502  504 -0.00000000000E+00 -0.00000000000E+00 -0.10041518851E+03  0.10041518851E+03  0.00000000000E+00 0.  1.
          6    2    1    2  502    0  0.83787901830E+02 -0.12870133920E+03  0.22435717275E+03  0.32271879223E+03  0.17385865148E+03 0.  0.
         24    2    3    3    0    0  0.90920298182E+02 -0.39008234402E+02  0.18537293910E+03  0.22454759178E+03  0.79185550770E+02 0.  0.
         -6    2    1    2    0  503 -0.83787901830E+02  0.12870133920E+03  0.20993636072E+03  0.31240511826E+03  0.17302957885E+03 0.  0.
        -24    2    5    5    0    0 -0.11411397995E+03  0.69375576243E+02  0.18283791443E+03  0.24032437911E+03  0.80567569423E+02 0.  0.
          4    1    4    4  501    0  0.60549430606E+02 -0.40680971399E+02  0.17924454548E+03  0.19351946172E+03  0.00000000000E+00 0. -1.
         -3    1    4    4    0  501  0.30370867576E+02  0.16727369970E+01  0.61283936164E+01  0.31028130055E+02  0.00000000000E+00 0.  1.
          5    1    3    3  502    0 -0.71323963526E+01 -0.89693104797E+02  0.38984233652E+02  0.98171200458E+02  0.47000000000E+01 0. -1.
         13    1    6    6    0    0 -0.88389877064E+02  0.80327933211E+01  0.93170888347E+02  0.12867832207E+03  0.00000000000E+00 0. -1.
        -14    1    6    6    0    0 -0.25724102888E+02  0.61342782922E+02  0.89667026078E+02  0.11164605704E+03  0.00000000000E+00 0.  1.
         -5    1    5    5    0  503  0.30326078123E+02  0.59325762957E+02  0.27098446294E+02  0.72080739149E+02  0.47000000000E+01 0.  1.
<mgrwt>
<rscale>  2 0.23181724E+03</rscale>
<asrwt>0</asrwt>
<pdfrwt beam="1">  1       21 0.82262878E-01 0.23197258E+03</pdfrwt>
<pdfrwt beam="2">  1       21 0.15448491E-01 0.23197258E+03</pdfrwt>
<totfact> 0.47099309E+04</totfact>
</mgrwt>
</event>
<event>
12    1  0.2769346E-001  0.2173951E+03  0.7546771E-02  0.1136666E+00
         21   -1    0    0  504  503  0.00000000000E+00  0.00000000000E+00  0.83186035736E+03  0.83186035736E+03  0.00000000000E+00 0. -1.
         21   -1    0    0  502  504 -0.00000000000E+00 -0.00000000000E+00 -0.72187350639E+02  0.72187350639E+02  0.00000000000E+00 0.  1.
          6    2    1    2  502    0  0.11293719081E+03 -0.53441777294E+02  0.16669555982E+03  0.27394895936E+03  0.17790387867E+03 0.  0.
         24    2    3    3    0    0  0.14423233924E+03 -0.31177885345E+02  0.16409076756E+03  0.23516826645E+03  0.81260724403E+02 0.  0.
         -6    2    1    2    0  503 -0.11293719081E+03  0.53441777294E+02  0.59297744691E+03  0.63009874864E+03  0.17260170298E+03 0.  0.
        -24    2    5    5    0    0 -0.21058359941E+02 -0.30744257692E+02  0.27690331439E+03  0.29031358814E+03  0.78853471935E+02 0.  0.
          2    1    4    4  501    0  0.11921450440E+03  0.99708179322E+01  0.10722411771E+03  0.16065032427E+03  0.00000000000E+00 0. -1.
         -1    1    4    4    0  501  0.25017834834E+02 -0.41148703277E+02  0.56866649851E+02  0.74517942178E+02  0.00000000000E+00 0.  1.
          5    1    3    3  502    0 -0.31295148430E+02 -0.22263891950E+02  0.26047922593E+01  0.38780692912E+02  0.47000000000E+01 0. -1.
         11    1    6    6    0    0 -0.52723646690E+01 -0.47507989180E+02  0.25160424837E+03  0.25610447998E+03  0.00000000000E+00 0. -1.
        -12    1    6    6    0    0 -0.15785995272E+02  0.16763731488E+02  0.25299066012E+02  0.34209108162E+02  0.00000000000E+00 0.  1.
         -5    1    5    5    0  503 -0.91878830866E+02  0.84186034986E+02  0.31607413252E+03  0.33978516050E+03  0.47000000000E+01 0.  1.
<mgrwt>
<rscale>  2 0.21630765E+03</rscale>
<asrwt>0</asrwt>
<pdfrwt beam="1">  1       21 0.12797851E+00 0.21739508E+03</pdfrwt>
<pdfrwt beam="2">  1       21 0.11105747E-01 0.21739508E+03</pdfrwt>
<totfact> 0.29861448E+04</totfact>
</mgrwt>
</event>
<event>
12    1  0.2769346E-001  0.1807225E+03  0.7546771E-02  0.1167181E+00
         21   -1    0    0  504  503  0.00000000000E+00  0.00000000000E+00  0.11374712253E+04  0.11374712253E+04  0.00000000000E+00 0.  1.
         21   -1    0    0  502  504 -0.00000000000E+00 -0.00000000000E+00 -0.29073913247E+02  0.29073913247E+02  0.00000000000E+00 0. -1.
          6    2    1    2  502    0 -0.21357387327E+02 -0.49074026903E+02  0.62303165914E+03  0.64862578579E+03  0.17228628382E+03 0.  0.
         24    2    3    3    0    0 -0.47645295284E+01  0.39245707243E+02  0.30685781875E+03  0.31989537084E+03  0.81292072649E+02 0.  0.
         -6    2    1    2    0  503  0.21357387327E+02  0.49074026903E+02  0.48536565292E+03  0.51791935276E+03  0.17261587651E+03 0.  0.
        -24    2    5    5    0    0 -0.20205421685E+01  0.72139877068E+02  0.17692253076E+03  0.20769715717E+03  0.81414266264E+02 0.  0.
          4    1    4    4  501    0 -0.22211287166E+02 -0.19001265599E+02  0.86659291739E+02  0.91456121811E+02  0.00000000000E+00 0. -1.
         -3    1    4    4    0  501  0.17446757638E+02  0.58246972842E+02  0.22019852701E+03  0.22843924903E+03  0.00000000000E+00 0.  1.
          5    1    3    3  502    0 -0.16592857798E+02 -0.88319734146E+02  0.31617384039E+03  0.32873041495E+03  0.47000000000E+01 0. -1.
         13    1    6    6    0    0 -0.12274522101E+02  0.85492848179E+02  0.16736714069E+03  0.18833865977E+03  0.00000000000E+00 0. -1.
        -14    1    6    6    0    0  0.10253979932E+02 -0.13352971111E+02  0.95553900673E+01  0.19358497393E+02  0.00000000000E+00 0.  1.
         -5    1    5    5    0  503  0.23377929495E+02 -0.23065850165E+02  0.30844312216E+03  0.31022219559E+03  0.47000000000E+01 0.  1.
<mgrwt>
<rscale>  2 0.18064380E+03</rscale>
<asrwt>0</asrwt>
<pdfrwt beam="1">  1       21 0.17499554E+00 0.18072255E+03</pdfrwt>
<pdfrwt beam="2">  1       21 0.44729106E-02 0.18072255E+03</pdfrwt>
<totfact> 0.64393805E+04</totfact>
</mgrwt>
</event>
<event>
12    1  0.2769346E-001  0.2146188E+03  0.7546771E-02  0.1139096E+00
         21   -1    0    0  504  503  0.00000000000E+00  0.00000000000E+00  0.17191682739E+04  0.17191682739E+04  0.00000000000E+00 0. -1.
         21   -1    0    0  502  504 -0.00000000000E+00 -0.00000000000E+00 -0.27869982171E+02  0.27869982171E+02  0.00000000000E+00 0. -1.
          6    2    1    2  502    0 -0.40300165315E+02 -0.11318326138E+03  0.61287656501E+03  0.64746803816E+03  0.17077067232E+03 0.  0.
         24    2    3    3    0    0 -0.72297699950E+02 -0.28898684053E+02  0.26623404765E+03  0.28926298929E+03  0.82039121680E+02 0.  0.
         -6    2    1    2    0  503  0.40300165315E+02  0.11318326138E+03  0.10784217268E+04  0.10995702179E+04  0.17783894250E+03 0.  0.
        -24    2    5    5    0    0 -0.12284336595E+02  0.47138824614E+02  0.86373032022E+03  0.86882904799E+03  0.80379567458E+02 0.  0.
          4    1    4    4  501    0 -0.76177684323E+02 -0.49425966180E+02  0.19651235326E+03  0.21647879967E+03  0.00000000000E+00 0. -1.
         -3    1    4    4    0  501  0.38799843726E+01  0.20527282127E+02  0.69721694389E+02  0.72784189620E+02  0.00000000000E+00 0.  1.
          5    1    3    3  502    0  0.31997534635E+02 -0.84284577323E+02  0.34664251736E+03  0.35820504887E+03  0.47000000000E+01 0. -1.
         13    1    6    6    0    0  0.23391917838E+02  0.35375841930E+02  0.67870767496E+03  0.68003142579E+03  0.00000000000E+00 0. -1.
        -14    1    6    6    0    0 -0.35676254433E+02  0.11762982684E+02  0.18502264525E+03  0.18879762220E+03  0.00000000000E+00 0.  1.
         -5    1    5    5    0  503  0.52584501910E+02  0.66044436762E+02  0.21469140654E+03  0.23074116995E+03  0.47000000000E+01 0.  1.
<mgrwt>
<rscale>  2 0.21314894E+03</rscale>
<asrwt>0</asrwt>
<pdfrwt beam="1">  1       21 0.26448734E+00 0.21461883E+03</pdfrwt>
<pdfrwt beam="2">  1       21 0.42876909E-02 0.21461883E+03</pdfrwt>
<totfact> 0.18714270E+04</totfact>
</mgrwt>
</event>
<event>
12    1  0.2769346E-001  0.2341623E+03  0.7546771E-02  0.1123834E+00
         21   -1    0    0  504  503  0.00000000000E+00  0.00000000000E+00  0.81298938177E+02  0.81298938177E+02  0.00000000000E+00 0. -1.
         21   -1    0    0  502  504 -0.00000000000E+00 -0.00000000000E+00 -0.13438020845E+04  0.13438020845E+04  0.00000000000E+00 0. -1.
          6    2    1    2  502    0 -0.15376138455E+03  0.32610153710E+02 -0.11343559378E+04  0.11581671860E+04  0.17286367912E+03 0.  0.
         24    2    3    3    0    0 -0.15496444388E+03  0.73693309467E+02 -0.98873842523E+03  0.10067874548E+04  0.81071714763E+02 0.  0.
         -6    2    1    2    0  503  0.15376138455E+03 -0.32610153710E+02 -0.12814720848E+03  0.26693383665E+03  0.17356837444E+03 0.  0.
        -24    2    5    5    0    0  0.92131085550E+02 -0.53432937002E+02 -0.13172336274E+02  0.13474762974E+03  0.81487407596E+02 0.  0.
          4    1    4    4  501    0 -0.50922803112E+02  0.12601658368E+01 -0.47134334230E+03  0.47408782544E+03  0.00000000000E+00 0. -1.
         -3    1    4    4    0  501 -0.10404164077E+03  0.72433143630E+02 -0.51739508293E+03  0.53269962938E+03  0.00000000000E+00 0.  1.
          5    1    3    3  502    0  0.12030593323E+01 -0.41083155757E+02 -0.14561751259E+03  0.15137973118E+03  0.47000000000E+01 0. -1.
         11    1    6    6    0    0  0.40822310799E+02 -0.61692232196E+01  0.31482193845E+02  0.51919638898E+02  0.00000000000E+00 0. -1.
        -12    1    6    6    0    0  0.51308774751E+02 -0.47263713783E+02 -0.44654530119E+02  0.82827990843E+02  0.00000000000E+00 0.  1.
         -5    1    5    5    0  503  0.61630299000E+02  0.20822783292E+02 -0.11497487220E+03  0.13218620691E+03  0.47000000000E+01 0.  1.
<mgrwt>
<rscale>  2 0.23403169E+03</rscale>
<asrwt>0</asrwt>
<pdfrwt beam="1">  1       21 0.12507529E-01 0.23416226E+03</pdfrwt>
<pdfrwt beam="2">  1       21 0.20673878E+00 0.23416226E+03</pdfrwt>
<totfact> 0.63987839E+03</totfact>
</mgrwt>
</event>
<event>
12    1  0.2769346E-001  0.1752438E+03  0.7546771E-02  0.1172780E+00
         21   -1    0    0  504  503  0.00000000000E+00  0.00000000000E+00  0.22524088106E+03  0.22524088106E+03  0.00000000000E+00 0. -1.
         21   -1    0    0  502  504 -0.00000000000E+00 -0.00000000000E+00 -0.33555239843E+03  0.33555239843E+03  0.00000000000E+00 0. -1.
          6    2    1    2  502    0 -0.24117158892E+02 -0.80334847644E+01 -0.27161687443E+03  0.32261308863E+03  0.17221296192E+03 0.  0.
         24    2    3    3    0    0  0.35825207982E+02 -0.37238655379E+02 -0.15259670537E+03  0.18610697163E+03  0.93165913389E+02 0.  0.
         -6    2    1    2    0  503  0.24117158892E+02  0.80334847644E+01  0.16130535706E+03  0.23818019086E+03  0.17339034249E+03 0.  0.
        -24    2    5    5    0    0  0.59157336060E+02 -0.44975814466E+02  0.85132726502E+02  0.13887178503E+03  0.80717886867E+02 0.  0.
          4    1    4    4  501    0  0.35228018246E+02  0.25128041138E+02 -0.74580331008E+02  0.86224459953E+02  0.00000000000E+00 0. -1.
         -3    1    4    4    0  501  0.59718973644E+00 -0.62366696517E+02 -0.78016374364E+02  0.99882511677E+02  0.00000000000E+00 0.  1.
          5    1    3    3  502    0 -0.59942366874E+02  0.29205170615E+02 -0.11902016906E+03  0.13650611700E+03  0.47000000000E+01 0. -1.
         13    1    6    6    0    0  0.30319839945E+02 -0.10182361615E+01  0.80581196246E+02  0.86102605580E+02  0.00000000000E+00 0. -1.
        -14    1    6    6    0    0  0.28837496115E+02 -0.43957578305E+02  0.45515302557E+01  0.52769179454E+02  0.00000000000E+00 0.  1.
         -5    1    5    5    0  503 -0.35040177168E+02  0.53009299231E+02  0.76172630556E+02  0.99308405821E+02  0.47000000000E+01 0.  1.
<mgrwt>
<rscale>  2 0.17495185E+03</rscale>
<asrwt>0</asrwt>
<pdfrwt beam="1">  1       21 0.34652443E-01 0.17524379E+03</pdfrwt>
<pdfrwt beam="2">  1       21 0.51623446E-01 0.17524379E+03</pdfrwt>
<totfact> 0.28885434E+04</totfact>
</mgrwt>
</event>
<event>
12    1  0.2769346E-001  0.2433495E+03  0.7546771E-02  0.1117674E+00
         21   -1    0    0  504  503  0.00000000000E+00  0.00000000000E+00  0.14141776790E+03  0.14141776790E+03  0.00000000000E+00 0.  1.
         21   -1    0    0  502  504 -0.00000000000E+00 -0.00000000000E+00 -0.42113658475E+03  0.42113658475E+03  0.00000000000E+00 0. -1.
          6    2    1    2  502    0  0.13681654629E+03  0.10305567406E+03 -0.16512848824E+03  0.29408567524E+03  0.17285753515E+03 0.  0.
         24    2    3    3    0    0  0.24035310830E+02  0.34211122704E+02 -0.12776604835E+03  0.15669127492E+03  0.80497797749E+02 0.  0.
         -6    2    1    2    0  503 -0.13681654629E+03 -0.10305567406E+03 -0.11459032861E+03  0.26846867740E+03  0.17206175646E+03 0.  0.
        -24    2    5    5    0    0 -0.26280212806E+02  0.79861009727E+01 -0.26803927999E+02  0.88810393548E+02  0.80089999701E+02 0.  0.
          2    1    4    4  501    0 -0.18602621642E+01  0.32982821145E+02 -0.12649268949E+03  0.13073533402E+03  0.00000000000E+00 0. -1.
         -1    1    4    4    0  501  0.25895572994E+02  0.12283015595E+01 -0.12733588577E+01  0.25955940904E+02  0.00000000000E+00 0.  1.
          5    1    3    3  502    0  0.11278123546E+03  0.68844551361E+02 -0.37362439891E+02  0.13739440032E+03  0.47000000000E+01 0. -1.
         11    1    6    6    0    0 -0.36851877567E+02 -0.25005515979E+02 -0.30488280347E+02  0.53971028785E+02  0.00000000000E+00 0. -1.
        -12    1    6    6    0    0  0.10571664762E+02  0.32991616951E+02  0.36843523474E+01  0.34839364763E+02  0.00000000000E+00 0.  1.
         -5    1    5    5    0  503 -0.11053633349E+03 -0.11104177504E+03 -0.87786400611E+02  0.17965828385E+03  0.47000000000E+01 0.  1.
<mgrwt>
<rscale>  2 0.24320820E+03</rscale>
<asrwt>0</asrwt>
<pdfrwt beam="1">  1       21 0.21756580E-01 0.24334947E+03</pdfrwt>
<pdfrwt beam="2">  1       21 0.64790243E-01 0.24334947E+03</pdfrwt>
<totfact> 0.42238877E+04</totfact>
</mgrwt>
</event>
<event>
12    1  0.2769346E-001  0.2072658E+03  0.7546771E-02  0.1143847E+00
         21   -1    0    0  504  503  0.00000000000E+00  0.00000000000E+00  0.67602573959E+02  0.67602573959E+02  0.00000000000E+00 0. -1.
         21   -1    0    0  502  504 -0.00000000000E+00 -0.00000000000E+00 -0.86361153060E+03  0.86361153060E+03  0.00000000000E+00 0. -1.
          6    2    1    2  502    0 -0.93703146983E+02  0.64912712702E+02 -0.63843462864E+03  0.67123610294E+03  0.17310456612E+03 0.  0.
         24    2    3    3    0    0 -0.73632724890E+02  0.20655773094E+02 -0.18769070259E+03  0.21785582610E+03  0.79905706886E+02 0.  0.
         -6    2    1    2    0  503  0.93703146983E+02 -0.64912712702E+02 -0.15757432800E+03  0.25997800162E+03  0.17252522267E+03 0.  0.
        -24    2    5    5    0    0  0.88928695329E+02 -0.67482590286E+02 -0.18529540783E+03  0.23134326876E+03  0.81994554657E+02 0.  0.
          4    1    4    4  501    0 -0.16693234027E+02  0.35128292254E+02 -0.12930668912E+03  0.13502918511E+03  0.00000000000E+00 0. -1.
         -3    1    4    4    0  501 -0.56939490862E+02 -0.14472519160E+02 -0.58384013464E+02  0.82826640996E+02  0.00000000000E+00 0.  1.
          5    1    3    3  502    0 -0.20070422093E+02  0.44256939609E+02 -0.45074392605E+03  0.45338027683E+03  0.47000000000E+01 0. -1.
         13    1    6    6    0    0  0.28615446593E+02 -0.11968590496E+02 -0.26310444284E+01  0.31128979054E+02  0.00000000000E+00 0. -1.
        -14    1    6    6    0    0  0.60313248736E+02 -0.55513999791E+02 -0.18266436340E+03  0.20021428971E+03  0.00000000000E+00 0.  1.
         -5    1    5    5    0  503  0.47744516539E+01  0.25698775842E+01  0.27721079827E+02  0.28634732864E+02  0.47000000000E+01 0.  1.
<mgrwt>
<rscale>  2 0.20714484E+03</rscale>
<asrwt>0</asrwt>
<pdfrwt beam="1">  1       21 0.10400397E-01 0.20726585E+03</pdfrwt>
<pdfrwt beam="2">  1       21 0.13286331E+00 0.20726585E+03</pdfrwt>
<totfact> 0.30698228E+04</totfact>
</mgrwt>
</event>
<event>
12    1  0.2769346E-001  0.2301231E+03  0.7546771E-02  0.1126759E+00
         21   -1    0    0  504  503  0.00000000000E+00  0.00000000000E+00  0.32341036592E+03  0.32341036592E+03  0.00000000000E+00 0.  1.
         21   -1    0    0  502  504 -0.00000000000E+00 -0.00000000000E+00 -0.46607929600E+03  0.46607929600E+03  0.00000000000E+00 0.  1.
          6    2    1    2  502    0  0.15066723676E+03 -0.62646555758E+01 -0.38976246653E+03  0.45262722788E+03  0.17382970101E+03 0.  0.
         24    2    3    3    0    0  0.15294862669E+03 -0.35889858542E+02 -0.38326597222E+03  0.42185139598E+03  0.79902631179E+02 0.  0.
         -6    2    1    2    0  503 -0.15066723676E+03  0.62646555758E+01  0.24709353645E+03  0.33686243404E+03  0.17228238903E+03 0.  0.
        -24    2    5    5    0    0 -0.40472186516E+02  0.18632886310E+02  0.37986184692E+02  0.10012651199E+03  0.81223062260E+02 0.  0.
          4    1    4    4  501    0  0.14726126006E+03 -0.15689568161E+02 -0.36547251188E+03  0.39433767028E+03  0.00000000000E+00 0. -1.
         -3    1    4    4    0  501  0.56873666375E+01 -0.20200290381E+02 -0.17793460348E+02  0.27513725700E+02  0.00000000000E+00 0.  1.
          5    1    3    3  502    0 -0.22813899329E+01  0.29625202966E+02 -0.64964943088E+01  0.30775831899E+02  0.47000000000E+01 0. -1.
         11    1    6    6    0    0 -0.26361834215E+02  0.50918591754E+02  0.25391468448E+02  0.62708659365E+02  0.00000000000E+00 0. -1.
        -12    1    6    6    0    0 -0.14110352301E+02 -0.32285705444E+02  0.12594716244E+02  0.37417852629E+02  0.00000000000E+00 0.  1.
         -5    1    5    5    0  503 -0.11019505024E+03 -0.12368230734E+02  0.20910735175E+03  0.23673592205E+03  0.47000000000E+01 0.  1.
<mgrwt>
<rscale>  2 0.22983087E+03</rscale>
<asrwt>0</asrwt>
<pdfrwt beam="1">  1       21 0.49755441E-01 0.23012307E+03</pdfrwt>
<pdfrwt beam="2">  1       21 0.71704507E-01 0.23012307E+03</pdfrwt>
<totfact> 0.65876151E+03</totfact>
</mgrwt>
</event>
<event>
12    1  0.2769346E-001  0.2045524E+03  0.7546771E-02  0.1146141E+00
         21   -1    0    0  504  503  0.00000000000E+00  0.00000000000E+00  0.10403932020E+03  0.10403932020E+03  0.00000000000E+00 0. -1.
         21   -1    0    0  502  504 -0.00000000000E+00 -0.00000000000E+00 -0.44883370824E+03  0.44883370824E+03  0.00000000000E+00 0. -1.
          6    2    1    2  502    0 -0.70620072761E+02 -0.81125844637E+02 -0.81919723831E+02  0.22034640258E+03  0.17399166254E+03 0.  0.
         24    2    3    3    0    0  0.28717293930E+02 -0.39644476459E+02 -0.18664050026E+02  0.95398467044E+02  0.79725486932E+02 0.  0.
         -6    2    1    2    0  503  0.70620072761E+02  0.81125844637E+02 -0.26287466422E+03  0.33252662586E+03  0.17292272978E+03 0.  0.
        -24    2    5    5    0    0  0.11101389553E+03  0.77328716699E+02 -0.23418789511E+03  0.28261570702E+03  0.81999098834E+02 0.  0.
          4    1    4    4  501    0  0.10333911541E+02 -0.50679857189E+02  0.16432820670E+02  0.54270390155E+02  0.00000000000E+00 0. -1.
         -3    1    4    4    0  501  0.18383382389E+02  0.11035380730E+02 -0.35096870696E+02  0.41128076889E+02  0.00000000000E+00 0.  1.
          5    1    3    3  502    0 -0.99337366690E+02 -0.41481368178E+02 -0.63255673805E+02  0.12494793554E+03  0.47000000000E+01 0. -1.
         13    1    6    6    0    0  0.73876354594E+02  0.14059919203E+02 -0.69812535566E+02  0.10261182787E+03  0.00000000000E+00 0. -1.
        -14    1    6    6    0    0  0.37137540932E+02  0.63268797496E+02 -0.16437535955E+03  0.18000387915E+03  0.00000000000E+00 0.  1.
         -5    1    5    5    0  503 -0.40393822765E+02  0.37971279380E+01 -0.28686769100E+02  0.49910918841E+02  0.47000000000E+01 0.  1.
<mgrwt>
<rscale>  2 0.20432494E+03</rscale>
<asrwt>0</asrwt>
<pdfrwt beam="1">  1       21 0.16006049E-01 0.20455243E+03</pdfrwt>
<pdfrwt beam="2">  1       21 0.69051339E-01 0.20455243E+03</pdfrwt>
<totfact> 0.66168534E+04</totfact>
</mgrwt>
</event>
<event>
12    1  0.2769346E-001  0.2790536E+03  0.7546771E-02  0.1096227E+00
         21   -1    0    0  504  503  0.00000000000E+00  0.00000000000E+00  0.22675421930E+03  0.22675421930E+03  0.00000000000E+00 0.  1.
         21   -1    0    0  502  504 -0.00000000000E+00 -0.00000000000E+00 -0.44417492735E+03  0.44417492735E+03  0.00000000000E+00 0.  1.
          6    2    1    2  502    0  0.18911513031E+03  0.10961504191E+03 -0.26860625776E+03  0.38722004196E+03  0.17323408804E+03 0.  0.
         24    2    3    3    0    0  0.17857692362E+03  0.13059713357E+03 -0.27456034520E+03  0.36254529519E+03  0.84323063032E+02 0.  0.
         -6    2    1    2    0  503 -0.18911513031E+03 -0.10961504191E+03  0.51185549709E+02  0.28370910469E+03  0.17346730430E+03 0.  0.
        -24    2    5    5    0    0 -0.36147128206E+02 -0.84836955055E+02  0.59791317026E+01  0.12221955864E+03  0.79987165701E+02 0.  0.
          2    1    4    4  501    0  0.14505898118E+03  0.11418080425E+03 -0.16788339468E+03  0.24952795092E+03  0.00000000000E+00 0. -1.
         -1    1    4    4    0  501  0.33517942445E+02  0.16416329323E+02 -0.10667695052E+03  0.11301734427E+03  0.00000000000E+00 0.  1.
          5    1    3    3  502    0  0.10538206686E+02 -0.20982091664E+02  0.59540874373E+01  0.24674746766E+02  0.47000000000E+01 0. -1.
         11    1    6    6    0    0  0.10723177259E+02 -0.81788142964E+01  0.26786795991E+02  0.29990197953E+02  0.00000000000E+00 0. -1.
        -12    1    6    6    0    0 -0.46870305465E+02 -0.76658140759E+02 -0.20807664288E+02  0.92229360684E+02  0.00000000000E+00 0.  1.
         -5    1    5    5    0  503 -0.15296800210E+03 -0.24778086856E+02  0.45206418006E+02  0.16148954605E+03  0.47000000000E+01 0.  1.
<mgrwt>
<rscale>  2 0.27901734E+03</rscale>
<asrwt>0</asrwt>
<pdfrwt beam="1">  1       21 0.34885264E-01 0.27905357E+03</pdfrwt>
<pdfrwt beam="2">  1       21 0.68334604E-01 0.27905357E+03</pdfrwt>
<totfact> 0.14759845E+04</totfact>
</mgrwt>
</event>
<event>
12    1  0.2769346E-001  0.3043045E+03  0.7546771E-02  0.1083199E+00
         21   -1    0    0  504  503  0.00000000000E+00  0.00000000000E+00  0.24810175733E+04  0.24810175733E+04  0.00000000000E+00 0.  1.
         21   -1    0    0  502  504 -0.00000000000E+00 -0.00000000000E+00 -0.37412142990E+02  0.37412142990E+02  0.00000000000E+00 0. -1.
          6    2    1    2  502    0 -0.10904067689E+02  0.24952233177E+03  0.11363133225E+04  0.11763541971E+04  0.17384170225E+03 0.  0.
         24    2    3    3    0    0 -0.23484357416E+02  0.25667513745E+03  0.11260524448E+04  0.11580020330E+04  0.80876193120E+02 0.  0.
         -6    2    1    2    0  503  0.10904067689E+02 -0.24952233177E+03  0.13072921078E+04  0.13420755192E+04  0.17255072088E+03 0.  0.
        -24    2    5    5    0    0  0.42167321523E+02 -0.17050842046E+03  0.61449919637E+03  0.64407501963E+03  0.79825836155E+02 0.  0.
          4    1    4    4  501    0  0.25131211237E+02  0.15797213540E+03  0.64787056267E+03  0.66732528748E+03  0.00000000000E+00 0. -1.
         -3    1    4    4    0  501 -0.48615568653E+02  0.98703002050E+02  0.47818188216E+03  0.49067674548E+03  0.00000000000E+00 0.  1.
          5    1    3    3  502    0  0.12580289727E+02 -0.71528056772E+01  0.10260877675E+02  0.18352164159E+02  0.47000000000E+01 0. -1.
         11    1    6    6    0    0  0.19678599225E+02  0.82609485358E+00  0.50841541557E+02  0.54523316554E+02  0.00000000000E+00 0. -1.
        -12    1    6    6    0    0  0.22488722298E+02 -0.17133451532E+03  0.56365765481E+03  0.58955170307E+03  0.00000000000E+00 0.  1.
         -5    1    5    5    0  503 -0.31263253835E+02 -0.79013911306E+02  0.69279291146E+03  0.69800049956E+03  0.47000000000E+01 0.  1.
<mgrwt>
<rscale>  2 0.30412042E+03</rscale>
<asrwt>0</asrwt>
<pdfrwt beam="1">  1       21 0.38169488E+00 0.30430450E+03</pdfrwt>
<pdfrwt beam="2">  1       21 0.57557162E-02 0.30430450E+03</pdfrwt>
<totfact> 0.21111629E+03</totfact>
</mgrwt>
</event>
<event>
12    1  0.2769346E-001  0.1795748E+03  0.7546771E-02  0.1168702E+00
         21   -1    0    0  504  503  0.00000000000E+00  0.00000000000E+00  0.10834699990E+03  0.10834699990E+03  0.00000000000E+00 0.  1.
         21   -1    0    0  502  504 -0.00000000000E+00 -0.00000000000E+00 -0.30049507360E+03  0.30049507360E+03  0.00000000000E+00 0. -1.
          6    2    1    2  502    0 -0.34316159198E+02  0.27909850156E+02 -0.12481447870E+03  0.21705858876E+03  0.17198609928E+03 0.  0.
         24    2    3    3    0    0  0.84645212927E+01 -0.14120909192E+02 -0.41828788088E+01  0.82259314855E+02  0.80486335537E+02 0.  0.
         -6    2    1    2    0  503  0.34316159198E+02 -0.27909850156E+02 -0.67333595001E+02  0.19178348474E+03  0.17404175788E+03 0.  0.
        -24    2    5    5    0    0 -0.22962639898E+02  0.18013902484E+01 -0.90865213660E+02  0.12293985244E+03  0.79543651069E+02 0.  0.
          4    1    4    4  501    0  0.43530243669E+02  0.66295195916E-01  0.34612263520E+01  0.43667683666E+02  0.00000000000E+00 0. -1.
         -3    1    4    4    0  501 -0.35065722376E+02 -0.14187204388E+02 -0.76441051608E+01  0.38591631189E+02  0.00000000000E+00 0.  1.
          5    1    3    3  502    0 -0.42780680491E+02  0.42030759348E+02 -0.12063159989E+03  0.13479927391E+03  0.47000000000E+01 0. -1.
         13    1    6    6    0    0  0.28468811066E+02  0.11074518243E+02 -0.32964974235E+02  0.44942270572E+02  0.00000000000E+00 0. -1.
        -14    1    6    6    0    0 -0.51431450964E+02 -0.92731279944E+01 -0.57900239425E+02  0.77997581864E+02  0.00000000000E+00 0.  1.
         -5    1    5    5    0  503  0.57278799097E+02 -0.29711240404E+02  0.23531618659E+02  0.68843632306E+02  0.47000000000E+01 0.  1.
<mgrwt>
<rscale>  2 0.17907477E+03</rscale>
<asrwt>0</asrwt>
<pdfrwt beam="1">  1       21 0.16668769E-01 0.17957475E+03</pdfrwt>
<pdfrwt beam="2">  1       21 0.46230011E-01 0.17957475E+03</pdfrwt>
<totfact> 0.14562769E+05</totfact>
</mgrwt>
</event>
<event>
12    1  0.2769346E-001  0.1781788E+03  0.7546771E-02  0.1169924E+00
         21   -1    0    0  504  503  0.00000000000E+00  0.00000000000E+00  0.79280935583E+02  0.79280935583E+02  0.00000000000E+00 0. -1.
         21   -1    0    0  502  504 -0.00000000000E+00 -0.00000000000E+00 -0.48786254357E+03  0.48786254357E+03  0.00000000000E+00 0. -1.
          6    2    1    2  502    0 -0.56112093307E+01 -0.37540207918E+02 -0.32713748792E+03  0.37251392464E+03  0.17408887147E+03 0.  0.
         24    2    3    3    0    0  0.63935569830E+02 -0.37716447106E+02 -0.19275267222E+03  0.22112649372E+03  0.78949642838E+02 0.  0.
         -6    2    1    2    0  503  0.56112093307E+01  0.37540207918E+02 -0.81444120065E+02  0.19462955451E+03  0.17264636085E+03 0.  0.
        -24    2    5    5    0    0 -0.25398474406E+02  0.83190736399E+02 -0.70494765907E+02  0.13817116636E+03  0.80968994479E+02 0.  0.
          2    1    4    4  501    0  0.76080483770E+02 -0.45326226907E+02 -0.18433691089E+03  0.20450624336E+03  0.00000000000E+00 0. -1.
         -1    1    4    4    0  501 -0.12144913940E+02  0.76097798013E+01 -0.84157613292E+01  0.16620250358E+02  0.00000000000E+00 0.  1.
          5    1    3    3  502    0 -0.69546779161E+02  0.17623918847E+00 -0.13438481570E+03  0.15138743092E+03  0.47000000000E+01 0. -1.
         13    1    6    6    0    0 -0.10445391020E+02  0.81576183104E+02 -0.18841565168E+02  0.84372889137E+02  0.00000000000E+00 0. -1.
        -14    1    6    6    0    0 -0.14953083386E+02  0.16145532951E+01 -0.51653200739E+02  0.53798277218E+02  0.00000000000E+00 0.  1.
         -5    1    5    5    0  503  0.31009683736E+02 -0.45650528481E+02 -0.10949354158E+02  0.56458388150E+02  0.47000000000E+01 0.  1.
<mgrwt>
<rscale>  2 0.17782548E+03</rscale>
<asrwt>0</asrwt>
<pdfrwt beam="1">  1       21 0.12197067E-01 0.17817881E+03</pdfrwt>
<pdfrwt beam="2">  1       21 0.75055777E-01 0.17817881E+03</pdfrwt>
<totfact> 0.90999465E+04</totfact>
</mgrwt>
</event>
<event>
12    1  0.2769346E-001  0.2112358E+03  0.7546771E-02  0.1140710E+00
         21   -1    0    0  504  503  0.00000000000E+00  0.00000000000E+00  0.30959726306E+03  0.30959726306E+03  0.00000000000E+00 0.  1.
         21   -1    0    0  502  504 -0.00000000000E+00 -0.00000000000E+00 -0.18001751097E+03  0.18001751097E+03  0.00000000000E+00 0.  1.
          6    2    1    2  502    0  0.76842017104E+02  0.91986189680E+02 -0.45074578879E+02  0.21599143607E+03  0.17393800076E+03 0.  0.
         24    2    3    3    0    0  0.16281583384E+02 -0.15528972197E+02 -0.38079977113E+02  0.92305985755E+02  0.81018957130E+02 0.  0.
         -6    2    1    2    0  503 -0.76842017104E+02 -0.91986189680E+02  0.17465433097E+03  0.27362333797E+03  0.17320346725E+03 0.  0.
        -24    2    5    5    0    0 -0.17241405832E+02 -0.60892514383E+02  0.10124968561E+02  0.95828370090E+02  0.71241821585E+02 0.  0.
          4    1    4    4  501    0 -0.32128906371E+02 -0.10227716006E+02 -0.24714774001E+02  0.41805416554E+02  0.00000000000E+00 0. -1.
         -3    1    4    4    0  501  0.48410489755E+02 -0.53012561909E+01 -0.13365203111E+02  0.50500569202E+02  0.00000000000E+00 0.  1.
          5    1    3    3  502    0  0.60560433720E+02  0.10751516188E+03 -0.69946017668E+01  0.12368545031E+03  0.47000000000E+01 0. -1.
         11    1    6    6    0    0 -0.20387208052E+02  0.10480674525E+02 -0.32253910017E+01  0.23149210305E+02  0.00000000000E+00 0. -1.
        -12    1    6    6    0    0  0.31458022204E+01 -0.71373188908E+02  0.13350359562E+02  0.72679159784E+02  0.00000000000E+00 0.  1.
         -5    1    5    5    0  503 -0.59600611272E+02 -0.31093675296E+02  0.16452936241E+03  0.17779496788E+03  0.47000000000E+01 0.  1.
<mgrwt>
<rscale>  2 0.21108458E+03</rscale>
<asrwt>0</asrwt>
<pdfrwt beam="1">  1       21 0.47630348E-01 0.21123585E+03</pdfrwt>
<pdfrwt beam="2">  1       21 0.27695002E-01 0.21123585E+03</pdfrwt>
<totfact> 0.51986957E+04</totfact>
</mgrwt>
</event>
<event>
12    1  0.2769346E-001  0.2361750E+03  0.7546771E-02  0.1122519E+00
         21   -1    0    0  504  503  0.00000000000E+00  0.00000000000E+00  0.79636898778E+03  0.79636898778E+03  0.00000000000E+00 0.  1.
         21   -1    0    0  502  504 -0.00000000000E+00 -0.00000000000E+00 -0.69960694979E+02  0.69960694979E+02  0.00000000000E+00 0.  1.
          6    2    1    2  502    0  0.63537555657E+02 -0.14765164996E+03  0.38606241504E+03  0.45257355775E+03  0.17303354054E+03 0.  0.
         24    2    3    3    0    0  0.12885505318E+02 -0.14062819679E+03  0.36090003128E+03  0.39538794195E+03  0.78361126094E+02 0.  0.
         -6    2    1    2    0  503 -0.63537555657E+02  0.14765164996E+03  0.34034587776E+03  0.41375612500E+03  0.17181613358E+03 0.  0.
        -24    2    5    5    0    0 -0.86801425191E+02  0.42140090975E+02  0.21928809349E+03  0.25142629461E+03  0.76273448804E+02 0.  0.
          4    1    4    4  501    0  0.32473367323E+02 -0.10343084530E+03  0.31506025735E+03  0.33318977342E+03  0.00000000000E+00 0. -1.
         -3    1    4    4    0  501 -0.19587862005E+02 -0.37197351484E+02  0.45839773928E+02  0.62198168535E+02  0.00000000000E+00 0.  1.
          5    1    3    3  502    0  0.50652050339E+02 -0.70234531702E+01  0.25162383762E+02  0.57185615801E+02  0.47000000000E+01 0. -1.
         11    1    6    6    0    0 -0.50366000526E+01 -0.15739358845E+02  0.97874247563E+01  0.19206468710E+02  0.00000000000E+00 0. -1.
        -12    1    6    6    0    0 -0.81764825138E+02  0.57879449820E+02  0.20950066874E+03  0.23221982590E+03  0.00000000000E+00 0.  1.
         -5    1    5    5    0  503  0.23263869534E+02  0.10551155898E+03  0.12105778426E+03  0.16232983039E+03  0.47000000000E+01 0.  1.
<mgrwt>
<rscale>  2 0.23595208E+03</rscale>
<asrwt>0</asrwt>
<pdfrwt beam="1">  1       21 0.12251830E+00 0.23617501E+03</pdfrwt>
<pdfrwt beam="2">  1       21 0.10763184E-01 0.23617501E+03</pdfrwt>
<totfact> 0.34895884E+04</totfact>
</mgrwt>
</event>
<event>
12    1  0.2769346E-001  0.1996351E+03  0.7546771E-02  0.1150214E+00
         21   -1    0    0  504  503  0.00000000000E+00  0.00000000000E+00  0.31650711838E+02  0.31650711838E+02  0.00000000000E+00 0. -1.
         21   -1    0    0  502  504 -0.00000000000E+00 -0.00000000000E+00 -0.12544449018E+04  0.12544449018E+04  0.00000000000E+00 0. -1.
          6    2    1    2  502    0  0.19466148647E+02 -0.95264234273E+02 -0.61840917201E+03  0.64959310763E+03  0.17345632355E+03 0.  0.
         24    2    3    3    0    0 -0.29263044337E+02 -0.22641056339E+02 -0.46250612121E+03  0.47077333392E+03  0.79666031501E+02 0.  0.
         -6    2    1    2    0  503 -0.19466148647E+02  0.95264234273E+02 -0.60438501791E+03  0.63650250597E+03  0.17435591458E+03 0.  0.
        -24    2    5    5    0    0 -0.86007083504E+01  0.13266952899E+03 -0.48702803651E+03  0.51276098121E+03  0.89734828208E+02 0.  0.
          2    1    4    4  501    0 -0.30005065180E+02 -0.19436338837E+02 -0.73301365629E+02  0.81554677406E+02  0.00000000000E+00 0. -1.
         -1    1    4    4    0  501  0.74202084351E+00 -0.32047175022E+01 -0.38920475558E+03  0.38921865651E+03  0.00000000000E+00 0.  1.
          5    1    3    3  502    0  0.48729192984E+02 -0.72623177933E+02 -0.15590305080E+03  0.17881977371E+03  0.47000000000E+01 0. -1.
         11    1    6    6    0    0 -0.25435015322E+02  0.61335713586E+02 -0.36027584433E+03  0.36634368259E+03  0.00000000000E+00 0. -1.
        -12    1    6    6    0    0  0.16834306972E+02  0.71333815408E+02 -0.12675219218E+03  0.14641729862E+03  0.00000000000E+00 0.  1.
         -5    1    5    5    0  503 -0.10865440297E+02 -0.37405294721E+02 -0.11735698140E+03  0.12374152476E+03  0.47000000000E+01 0.  1.
<mgrwt>
<rscale>  2 0.19943855E+03</rscale>
<asrwt>0</asrwt>
<pdfrwt beam="1">  1       21 0.48693401E-02 0.19963514E+03</pdfrwt>
<pdfrwt beam="2">  1       21 0.19299153E+00 0.19963514E+03</pdfrwt>
<totfact> 0.41745745E+04</totfact>
</mgrwt>
</event>
<event>
12    1  0.2769346E-001  0.2704065E+03  0.7546771E-02  0.1101276E+00
         21   -1    0    0  504  503  0.00000000000E+00  0.00000000000E+00  0.29830483401E+03  0.29830483401E+03  0.00000000000E+00 0. -1.
         21   -1    0    0  502  504 -0.00000000000E+00 -0.00000000000E+00 -0.24852266643E+03  0.24852266643E+03  0.00000000000E+00 0.  1.
          6    2    1    2  502    0 -0.20311286762E+03 -0.98375559000E+01 -0.13245095694E+02  0.27073069581E+03  0.17823597447E+03 0.  0.
         24    2    3    3    0    0 -0.50015357861E+02  0.44069725423E+02  0.14886401542E+02  0.10593289967E+03  0.80972202401E+02 0.  0.
         -6    2    1    2    0  503  0.20311286762E+03  0.98375559000E+01  0.63027263272E+02  0.27609680463E+03  0.17579930351E+03 0.  0.
        -24    2    5    5    0    0  0.15109884631E+03 -0.47157393445E+02  0.85450930946E+02  0.19560585151E+03  0.76844690325E+02 0.  0.
          2    1    4    4  501    0 -0.44743243180E+02  0.34985128441E+02  0.46003657239E+02  0.73090721036E+02  0.00000000000E+00 0. -1.
         -1    1    4    4    0  501 -0.52721146814E+01  0.90845969823E+01 -0.31117255697E+02  0.32842178638E+02  0.00000000000E+00 0.  1.
          5    1    3    3  502    0 -0.15309750976E+03 -0.53907281323E+02 -0.28131497236E+02  0.16479779613E+03  0.47000000000E+01 0. -1.
         11    1    6    6    0    0  0.54227215612E+02 -0.27939737780E+02  0.74428547910E+02  0.96233199075E+02  0.00000000000E+00 0. -1.
        -12    1    6    6    0    0  0.96871630698E+02 -0.19217655665E+02  0.11022383035E+02  0.99372652431E+02  0.00000000000E+00 0.  1.
         -5    1    5    5    0  503  0.52014021308E+02  0.56994949345E+02 -0.22423667673E+02  0.80490953128E+02  0.47000000000E+01 0.  1.
<mgrwt>
<rscale>  2 0.27000565E+03</rscale>
<asrwt>0</asrwt>
<pdfrwt beam="1">  1       21 0.45893051E-01 0.27040650E+03</pdfrwt>
<pdfrwt beam="2">  1       21 0.38234257E-01 0.27040650E+03</pdfrwt>
<totfact> 0.28914778E+04</totfact>
</mgrwt>
</event>
<event>
12    1  0.2769346E-001  0.1777388E+03  0.7546771E-02  0.1170200E+00
         21   -1    0    0  504  503  0.00000000000E+00  0.00000000000E+00  0.72457879282E+03  0.72457879282E+03  0.00000000000E+00 0.  1.
         21   -1    0    0  502  504 -0.00000000000E+00 -0.00000000000E+00 -0.63294409800E+02  0.63294409800E+02  0.00000000000E+00 0.  1.
          6    2    1    2  502    0 -0.27438361024E+02 -0.25759938869E+02  0.10934905492E+03  0.20802522981E+03  0.17291860027E+03 0.  0.
         24    2    3    3    0    0 -0.80549799800E+02 -0.11108640872E+02  0.45918754284E+02  0.12387667961E+03  0.81395501140E+02 0.  0.
         -6    2    1    2    0  503  0.27438361024E+02  0.25759938869E+02  0.55193532810E+03  0.57984797281E+03  0.17370845421E+03 0.  0.
        -24    2    5    5    0    0  0.87382221993E+02  0.21485520879E+02  0.40330119524E+03  0.41945553980E+03  0.72068130672E+02 0.  0.
          2    1    4    4  501    0 -0.49813823299E+02 -0.42881516917E+02  0.91198825336E+01  0.66358222868E+02  0.00000000000E+00 0. -1.
         -1    1    4    4    0  501 -0.30735976501E+02  0.31772876045E+02  0.36798871750E+02  0.57518456740E+02  0.00000000000E+00 0.  1.
          5    1    3    3  502    0  0.53111438776E+02 -0.14651297997E+02  0.63430300641E+02  0.84148550203E+02  0.47000000000E+01 0. -1.
         11    1    6    6    0    0  0.47577275238E+02 -0.22683814008E+02  0.14178435815E+03  0.15126452576E+03  0.00000000000E+00 0. -1.
        -12    1    6    6    0    0  0.39804946755E+02  0.44169334887E+02  0.26151683709E+03  0.26819101404E+03  0.00000000000E+00 0.  1.
         -5    1    5    5    0  503 -0.59943860969E+02  0.42744179903E+01  0.14863413285E+03  0.16039243301E+03  0.47000000000E+01 0.  1.
<mgrwt>
<rscale>  2 0.17754547E+03</rscale>
<asrwt>0</asrwt>
<pdfrwt beam="1">  1       21 0.11147365E+00 0.17773876E+03</pdfrwt>
<pdfrwt beam="2">  1       21 0.97376020E-02 0.17773876E+03</pdfrwt>
<totfact> 0.54185282E+04</totfact>
</mgrwt>
</event>
<event>
12    1  0.2769346E-001  0.1998486E+03  0.7546771E-02  0.1149975E+00
         21   -1    0    0  504  503  0.00000000000E+00  0.00000000000E+00  0.52036955477E+03  0.52036955477E+03  0.00000000000E+00 0.  1.
         21   -1    0    0  502  504 -0.00000000000E+00 -0.00000000000E+00 -0.78084129819E+02  0.78084129819E+02  0.00000000000E+00 0.  1.
          6    2    1    2  502    0 -0.33122374288E+01 -0.99487768719E+02  0.26272039387E+03  0.32978463968E+03  0.17270528704E+03 0.  0.
         24    2    3    3    0    0 -0.64745887604E+02 -0.10523646311E+03  0.17337336849E+03  0.22110105395E+03  0.59670830631E+02 0.  0.
         -6    2    1    2    0  503  0.33122374288E+01  0.99487768719E+02  0.17956503108E+03  0.26866904491E+03  0.17329358980E+03 0.  0.
        -24    2    5    5    0    0  0.37964908127E+02  0.88080986719E+02  0.51470424741E+02  0.13539774104E+03  0.80521731138E+02 0.  0.
          4    1    4    4  501    0 -0.47077682854E+02 -0.21718373046E+02  0.65243236438E+02  0.83334721764E+02  0.00000000000E+00 0. -1.
         -3    1    4    4    0  501 -0.17668204750E+02 -0.83518090068E+02  0.10813013205E+03  0.13776633219E+03  0.00000000000E+00 0.  1.
          5    1    3    3  502    0  0.61433650175E+02  0.57486943951E+01  0.89347025380E+02  0.10868358572E+03  0.47000000000E+01 0. -1.
         11    1    6    6    0    0 -0.60097963344E+01 -0.98875590248E+01  0.20660602144E+02  0.23679990633E+02  0.00000000000E+00 0. -1.
        -12    1    6    6    0    0  0.43974704461E+02  0.97968545744E+02  0.30809822597E+02  0.11171775041E+03  0.00000000000E+00 0.  1.
         -5    1    5    5    0  503 -0.34652670698E+02  0.11406782000E+02  0.12809460634E+03  0.13327130387E+03  0.47000000000E+01 0.  1.
<mgrwt>
<rscale>  2 0.19972098E+03</rscale>
<asrwt>0</asrwt>
<pdfrwt beam="1">  1       21 0.80056853E-01 0.19984858E+03</pdfrwt>
<pdfrwt beam="2">  1       21 0.12012943E-01 0.19984858E+03</pdfrwt>
<totfact> 0.80167090E+04</totfact>
</mgrwt>
</event>
<event>
12    1  0.2769346E-001  0.2164380E+03  0.7546771E-02  0.1137073E+00
         21   -1    0    0  504  503  0.00000000000E+00  0.00000000000E+00  0.75480925873E+03  0.75480925873E+03  0.00000000000E+00 0. -1.
         21   -1    0    0  502  504 -0.00000000000E+00 -0.00000000000E+00 -0.32206563624E+03  0.32206563624E+03  0.00000000000E+00 0.  1.
          6    2    1    2  502    0 -0.11834316696E+03  0.57078944232E+02 -0.26836590788E+03  0.34311745580E+03  0.16866006322E+03 0.  0.
         24    2    3    3    0    0 -0.13154856841E+03  0.89193658144E+02 -0.23137295132E+03  0.29216349313E+03  0.81027955752E+02 0.  0.
         -6    2    1    2    0  503  0.11834316696E+03 -0.57078944232E+02  0.70110953037E+03  0.73375743917E+03  0.17199504334E+03 0.  0.
        -24    2    5    5    0    0  0.91241277810E+02  0.67293872457E+01  0.58973029124E+03  0.60248124000E+03  0.82653328523E+02 0.  0.
          4    1    4    4  501    0 -0.43654646580E+02  0.13089793694E+02 -0.13053671368E+03  0.13826389437E+03  0.00000000000E+00 0. -1.
         -3    1    4    4    0  501 -0.87893921826E+02  0.76103864450E+02 -0.10083623763E+03  0.15389959876E+03  0.00000000000E+00 0.  1.
          5    1    3    3  502    0  0.13205401450E+02 -0.32114713912E+02 -0.36992956559E+02  0.50953962673E+02  0.47000000000E+01 0. -1.
         13    1    6    6    0    0  0.99282260938E+02 -0.98082269973E+01  0.41669487408E+03  0.42847145382E+03  0.00000000000E+00 0. -1.
        -14    1    6    6    0    0 -0.80409831280E+01  0.16537614243E+02  0.17303541716E+03  0.17400978618E+03  0.00000000000E+00 0.  1.
         -5    1    5    5    0  503  0.27101889146E+02 -0.63808331477E+02  0.11137923913E+03  0.13127619917E+03  0.47000000000E+01 0.  1.
<mgrwt>
<rscale>  2 0.21577480E+03</rscale>
<asrwt>0</asrwt>
<pdfrwt beam="1">  1       21 0.11612450E+00 0.21643800E+03</pdfrwt>
<pdfrwt beam="2">  1       21 0.49548559E-01 0.21643800E+03</pdfrwt>
<totfact> 0.21770051E+03</totfact>
</mgrwt>
</event>
<event>
12    1  0.2769346E-001  0.2214769E+03  0.7546771E-02  0.1134142E+00
         21   -1    0    0  504  503  0.00000000000E+00  0.00000000000E+00  0.40612343309E+02  0.40612343309E+02  0.00000000000E+00 0.  1.
         21   -1    0    0  502  504 -0.00000000000E+00 -0.00000000000E+00 -0.13627246527E+04  0.13627246527E+04  0.00000000000E+00 0.  1.
          6    2    1    2  502    0  0.94011228568E+02  0.85158911999E+02 -0.91631459760E+03  0.94103426805E+03  0.17269308177E+03 0.  0.
         24    2    3    3    0    0  0.94618217353E+02  0.10509668066E+03 -0.89968530354E+03  0.91464285893E+03  0.84498489025E+02 0.  0.
         -6    2    1    2    0  503 -0.94011228568E+02 -0.85158911999E+02 -0.40579771182E+03  0.46230272798E+03  0.18155406355E+03 0.  0.
        -24    2    5    5    0    0 -0.13593514656E+03 -0.55531449939E+02 -0.27300874133E+03  0.31985834553E+03  0.78825645332E+02 0.  0.
          4    1    4    4  501    0  0.10742959289E+03  0.74155050186E+02 -0.67945978768E+03  0.69188560613E+03  0.00000000000E+00 0. -1.
         -3    1    4    4    0  501 -0.12811375537E+02  0.30941630473E+02 -0.22022551586E+03  0.22275725280E+03  0.00000000000E+00 0.  1.
          5    1    3    3  502    0 -0.60698878530E+00 -0.19937768661E+02 -0.16629294057E+02  0.26391409121E+02  0.47000000000E+01 0. -1.
         13    1    6    6    0    0 -0.73567948082E+02  0.15374217277E+01 -0.17841877460E+03  0.19299706158E+03  0.00000000000E+00 0. -1.
        -14    1    6    6    0    0 -0.62367198475E+02 -0.57068871667E+02 -0.94589966735E+02  0.12686128395E+03  0.00000000000E+00 0.  1.
         -5    1    5    5    0  503  0.41923917990E+02 -0.29627462060E+02 -0.13278897048E+03  0.14244438245E+03  0.47000000000E+01 0.  1.
<mgrwt>
<rscale>  2 0.21965363E+03</rscale>
<asrwt>0</asrwt>
<pdfrwt beam="1">  1       21 0.62480527E-02 0.22147693E+03</pdfrwt>
<pdfrwt beam="2">  1       21 0.20964995E+00 0.22147693E+03</pdfrwt>
<totfact> 0.20998858E+04</totfact>
</mgrwt>
</event>
<event>
12    1  0.2769346E-001  0.2522326E+03  0.7546771E-02  0.1112316E+00
         21   -1    0    0  504  503  0.00000000000E+00  0.00000000000E+00  0.18384691360E+04  0.18384691360E+04  0.00000000000E+00 0.  1.
         21   -1    0    0  502  504 -0.00000000000E+00 -0.00000000000E+00 -0.34832770791E+02  0.34832770791E+02  0.00000000000E+00 0. -1.
          6    2    1    2  502    0 -0.80281679542E+02 -0.16121432490E+03  0.78482633082E+03  0.82436256473E+03  0.17659575861E+03 0.  0.
         24    2    3    3    0    0  0.22279654087E+02 -0.45109723662E+02  0.35809238569E+03  0.37035479441E+03  0.80007792744E+02 0.  0.
         -6    2    1    2    0  503  0.80281679542E+02  0.16121432490E+03  0.10188100344E+04  0.10489393421E+04  0.17281391878E+03 0.  0.
        -24    2    5    5    0    0  0.23129091217E+02  0.17490300308E+03  0.69169395722E+03  0.71655279569E+03  0.62300587594E+02 0.  0.
          4    1    4    4  501    0  0.14770920317E+02 -0.89431589412E+01  0.93010224208E+01  0.19612985416E+02  0.00000000000E+00 0. -1.
         -3    1    4    4    0  501  0.75087337702E+01 -0.36166564720E+02  0.34879136327E+03  0.35074180900E+03  0.00000000000E+00 0.  1.
          5    1    3    3  502    0 -0.10256133363E+03 -0.11610460124E+03  0.42673394513E+03  0.45400777032E+03  0.47000000000E+01 0. -1.
         13    1    6    6    0    0 -0.18049439173E+02  0.37997669895E+02  0.20618552043E+03  0.21043306301E+03  0.00000000000E+00 0. -1.
        -14    1    6    6    0    0  0.41178530389E+02  0.13690533318E+03  0.48550843679E+03  0.50611973268E+03  0.00000000000E+00 0.  1.
         -5    1    5    5    0  503  0.57152588326E+02 -0.13688678178E+02  0.32711607717E+03  0.33238654636E+03  0.47000000000E+01 0.  1.
<mgrwt>
<rscale>  2 0.25157168E+03</rscale>
<asrwt>0</asrwt>
<pdfrwt beam="1">  1       21 0.28284133E+00 0.25223257E+03</pdfrwt>
<pdfrwt beam="2">  1       21 0.53588892E-02 0.25223257E+03</pdfrwt>
<totfact> 0.97027313E+03</totfact>
</mgrwt>
</event>
<event>
12    1  0.2769346E-001  0.2079852E+03  0.7546771E-02  0.1143439E+00
         21   -1    0    0  504  503  0.00000000000E+00  0.00000000000E+00  0.19887986493E+03  0.19887986493E+03  0.00000000000E+00 0. -1.
         21   -1    0    0  502  504 -0.00000000000E+00 -0.00000000000E+00 -0.12725213702E+04  0.12725213702E+04  0.00000000000E+00 0.  1.
          6    2    1    2  502    0 -0.11273342646E+03  0.14639584004E+02 -0.12074347152E+04  0.12252168881E+04  0.17416856367E+03 0.  0.
         24    2    3    3    0    0 -0.56601435923E+02 -0.58947133138E+02 -0.72652233730E+03  0.73545714036E+03  0.79900010311E+02 0.  0.
         -6    2    1    2    0  503  0.11273342646E+03 -0.14639584004E+02  0.13379320985E+03  0.24618434711E+03  0.17257742291E+03 0.  0.
        -24    2    5    5    0    0  0.96947715235E+02 -0.52405317952E+01  0.16661937223E+03  0.20827421920E+03  0.78675361574E+02 0.  0.
          2    1    4    4  501    0 -0.46667617030E+02 -0.79088032457E+02 -0.58608641519E+03  0.59323694206E+03  0.00000000000E+00 0. -1.
         -1    1    4    4    0  501 -0.99338188925E+01  0.20140899319E+02 -0.14043592211E+03  0.14222019829E+03  0.00000000000E+00 0.  1.
          5    1    3    3  502    0 -0.56131990541E+02  0.73586717142E+02 -0.48091237785E+03  0.48975974771E+03  0.47000000000E+01 0. -1.
         13    1    6    6    0    0  0.23764198307E+02  0.34302551220E+02  0.52879057948E+02  0.67361687262E+02  0.00000000000E+00 0. -1.
        -14    1    6    6    0    0  0.73183516928E+02 -0.39543083016E+02  0.11374031428E+03  0.14091253194E+03  0.00000000000E+00 0.  1.
         -5    1    5    5    0  503  0.15785711229E+02 -0.93990522086E+01 -0.32826162381E+02  0.37910127909E+02  0.47000000000E+01 0.  1.
<mgrwt>
<rscale>  2 0.20765172E+03</rscale>
<asrwt>0</asrwt>
<pdfrwt beam="1">  1       21 0.30596901E-01 0.20798517E+03</pdfrwt>
<pdfrwt beam="2">  1       21 0.19577252E+00 0.20798517E+03</pdfrwt>
<totfact> 0.14427653E+03</totfact>
</mgrwt>
</event>
<event>
12    1  0.2769346E-001  0.2542538E+03  0.7546771E-02  0.1110838E+00
         21   -1    0    0  504  503  0.00000000000E+00  0.00000000000E+00  0.54338324991E+03  0.54338324991E+03  0.00000000000E+00 0. -1.
         21   -1    0    0  502  504 -0.00000000000E+00 -0.00000000000E+00 -0.14072917303E+03  0.14072917303E+03  0.00000000000E+00 0. -1.
          6    2    1    2  502    0 -0.60875379317E+02 -0.17396406121E+03  0.33802782286E+03  0.42297492500E+03  0.17514471659E+03 0.  0.
         24    2    3    3    0    0 -0.38608241470E+02 -0.11005597180E+03  0.10031160886E+03  0.17576821449E+03  0.85024308967E+02 0.  0.
         -6    2    1    2    0  503  0.60875379317E+02  0.17396406121E+03  0.64626254013E+02  0.26113749794E+03  0.17334051380E+03 0.  0.
        -24    2    5    5    0    0  0.27288956291E+02  0.13795576434E+03 -0.17552850850E+02  0.16522013491E+03  0.84930032124E+02 0.  0.
          2    1    4    4  501    0 -0.24059689381E+02 -0.12256474929E+03  0.90297711243E+02  0.15412547835E+03  0.00000000000E+00 0. -1.
         -1    1    4    4    0  501 -0.14548552089E+02  0.12508777489E+02  0.10013897618E+02  0.21642736141E+02  0.00000000000E+00 0.  1.
          5    1    3    3  502    0 -0.22267137847E+02 -0.63908089407E+02  0.23771621400E+03  0.24720671050E+03  0.47000000000E+01 0. -1.
         11    1    6    6    0    0  0.50273590333E+02  0.12231843591E+03  0.17873212633E+00  0.13224698709E+03  0.00000000000E+00 0. -1.
        -12    1    6    6    0    0 -0.22984634042E+02  0.15637328429E+02 -0.17731582976E+02  0.32973147822E+02  0.00000000000E+00 0.  1.
         -5    1    5    5    0  503  0.33586423026E+02  0.36008296866E+02  0.82179104863E+02  0.95917363032E+02  0.47000000000E+01 0.  1.
<mgrwt>
<rscale>  2 0.25394333E+03</rscale>
<asrwt>0</asrwt>
<pdfrwt beam="1">  1       21 0.83597422E-01 0.25425377E+03</pdfrwt>
<pdfrwt beam="2">  1       21 0.21650642E-01 0.25425377E+03</pdfrwt>
<totfact> 0.23965926E+04</totfact>
</mgrwt>
</event>
<event>
12    1  0.2769346E-001  0.2428128E+03  0.7546771E-02  0.1118009E+00
         21   -1    0    0  504  503  0.00000000000E+00  0.00000000000E+00  0.78106274507E+03  0.78106274507E+03  0.00000000000E+00 0. -1.
         21   -1    0    0  502  504 -0.00000000000E+00 -0.00000000000E+00 -0.12339889332E+03  0.12339889332E+03  0.00000000000E+00 0. -1.
          6    2    1    2  502    0 -0.16630715252E+03 -0.35801054370E+02  0.46802255870E+02  0.24728227883E+03  0.17325787081E+03 0.  0.
         24    2    3    3    0    0 -0.77253057478E+02 -0.24834836381E+02 -0.38483576464E+02  0.12340067012E+03  0.84628220707E+02 0.  0.
         -6    2    1    2    0  503  0.16630715252E+03  0.35801054370E+02  0.61086159588E+03  0.65717935956E+03  0.17260659555E+03 0.  0.
        -24    2    5    5    0    0  0.19115414843E+03  0.12145691093E+02  0.53138083375E+03  0.57048316029E+03  0.79987620471E+02 0.  0.
          4    1    4    4  501    0 -0.86464261447E+02  0.43947554722E+01 -0.29515727516E+02  0.91468904847E+02  0.00000000000E+00 0. -1.
         -3    1    4    4    0  501  0.92112039691E+01 -0.29229591853E+02 -0.89678489474E+01  0.31931765269E+02  0.00000000000E+00 0.  1.
          5    1    3    3  502    0 -0.89054095047E+02 -0.10966217989E+02  0.85285832334E+02  0.12388160872E+03  0.47000000000E+01 0. -1.
         11    1    6    6    0    0  0.14492983808E+03  0.45670555738E+01  0.28585026767E+03  0.32052440077E+03  0.00000000000E+00 0. -1.
        -12    1    6    6    0    0  0.46224310354E+02  0.75786355190E+01  0.24553056607E+03  0.24995875952E+03  0.00000000000E+00 0.  1.
         -5    1    5    5    0  503 -0.24846995907E+02  0.23655363277E+02  0.79480762136E+02  0.86696199265E+02  0.47000000000E+01 0.  1.
<mgrwt>
<rscale>  2 0.24269668E+03</rscale>
<asrwt>0</asrwt>
<pdfrwt beam="1">  1       21 0.12016350E+00 0.24281284E+03</pdfrwt>
<pdfrwt beam="2">  1       21 0.18984446E-01 0.24281284E+03</pdfrwt>
<totfact> 0.12968171E+04</totfact>
</mgrwt>
</event>
<event>
12    1  0.2769346E-001  0.1901807E+03  0.7546771E-02  0.1160204E+00
         21   -1    0    0  504  503  0.00000000000E+00  0.00000000000E+00  0.31177619093E+02  0.31177619093E+02  0.00000000000E+00 0.  1.
         21   -1    0    0  502  504 -0.00000000000E+00 -0.00000000000E+00 -0.15112871262E+04  0.15112871262E+04  0.00000000000E+00 0.  1.
          6    2    1    2  502    0 -0.43619456897E+02 -0.30895069459E+02 -0.11252061026E+04  0.11398171007E+04  0.17388814628E+03 0.  0.
         24    2    3    3    0    0  0.16814332519E-01  0.17569663624E+02 -0.93596941908E+03  0.93960329772E+03  0.80665421783E+02 0.  0.
         -6    2    1    2    0  503  0.43619456897E+02  0.30895069459E+02 -0.35490340448E+03  0.40264764455E+03  0.18251448385E+03 0.  0.
        -24    2    5    5    0    0 -0.40378412955E+02  0.24477294098E+02 -0.26566669968E+03  0.27983840441E+03  0.74169960933E+02 0.  0.
          4    1    4    4  501    0  0.26235990397E+01  0.43554778959E+02 -0.30627313205E+03  0.30936569535E+03  0.00000000000E+00 0. -1.
         -3    1    4    4    0  501 -0.26067847071E+01 -0.25985115335E+02 -0.62969628703E+03  0.63023760237E+03  0.00000000000E+00 0.  1.
          5    1    3    3  502    0 -0.43636271230E+02 -0.48464733083E+02 -0.18923668351E+03  0.20021380299E+03  0.47000000000E+01 0. -1.
         13    1    6    6    0    0  0.43268482097E+01  0.35618180823E+02 -0.16882591117E+03  0.17259653734E+03  0.00000000000E+00 0. -1.
        -14    1    6    6    0    0 -0.44705261164E+02 -0.11140886725E+02 -0.96840788517E+02  0.10724186707E+03  0.00000000000E+00 0.  1.
         -5    1    5    5    0  503  0.83997869852E+02  0.64177753607E+01 -0.89236704794E+02  0.12280924014E+03  0.47000000000E+01 0.  1.
<mgrwt>
<rscale>  2 0.18808056E+03</rscale>
<asrwt>0</asrwt>
<pdfrwt beam="1">  1       21 0.47965568E-02 0.19018070E+03</pdfrwt>
<pdfrwt beam="2">  1       21 0.23250571E+00 0.19018070E+03</pdfrwt>
<totfact> 0.24425772E+04</totfact>
</mgrwt>
</event>
<event>
12    1  0.2769346E-001  0.2006239E+03  0.7546771E-02  0.1149431E+00
         21   -1    0    0  504  503  0.00000000000E+00  0.00000000000E+00  0.74997495553E+03  0.74997495553E+03  0.00000000000E+00 0. -1.
         21   -1    0    0  502  504 -0.00000000000E+00 -0.00000000000E+00 -0.62833310214E+02  0.62833310214E+02  0.00000000000E+00 0.  1.
          6    2    1    2  502    0 -0.93900613289E+02  0.36146675316E+02  0.50034984503E+03  0.53868943605E+03  0.17237294966E+03 0.  0.
         24    2    3    3    0    0 -0.10827365743E+02  0.23398774333E+02  0.11189030601E+03  0.14121418286E+03  0.82202617804E+02 0.  0.
         -6    2    1    2    0  503  0.93900613289E+02 -0.36146675316E+02  0.18679180029E+03  0.27411882970E+03  0.17356857097E+03 0.  0.
        -24    2    5    5    0    0  0.21433584304E+01 -0.42851892510E+01  0.25226823887E+02  0.85545555576E+02  0.81600812515E+02 0.  0.
          4    1    4    4  501    0  0.17438937306E+02 -0.20265112338E+01  0.99780670176E+02  0.10131340199E+03  0.00000000000E+00 0. -1.
         -3    1    4    4    0  501 -0.28266303049E+02  0.25425285567E+02  0.12109635831E+02  0.39900780871E+02  0.00000000000E+00 0.  1.
          5    1    3    3  502    0 -0.83073247546E+02  0.12747900982E+02  0.38845953902E+03  0.39747525318E+03  0.47000000000E+01 0. -1.
         11    1    6    6    0    0 -0.34071603241E+02  0.93999849537E+01  0.30230225895E+02  0.46509143426E+02  0.00000000000E+00 0. -1.
        -12    1    6    6    0    0  0.36214961672E+02 -0.13685174205E+02 -0.50034020082E+01  0.39036412150E+02  0.00000000000E+00 0.  1.
         -5    1    5    5    0  503  0.91757254859E+02 -0.31861486065E+02  0.16156497640E+03  0.18857327412E+03  0.47000000000E+01 0.  1.
<mgrwt>
<rscale>  2 0.20036505E+03</rscale>
<asrwt>0</asrwt>
<pdfrwt beam="1">  1       21 0.11538076E+00 0.20062392E+03</pdfrwt>
<pdfrwt beam="2">  1       21 0.96666636E-02 0.20062392E+03</pdfrwt>
<totfact> 0.49888988E+04</totfact>
</mgrwt>
</event>
<event>
12    1  0.2769346E-001  0.1799669E+03  0.7546771E-02  0.1168526E+00
         21   -1    0    0  504  503  0.00000000000E+00  0.00000000000E+00  0.23072050887E+04  0.23072050887E+04  0.00000000000E+00 0.  1.
         21   -1    0    0  502  504 -0.00000000000E+00 -0.00000000000E+00 -0.11507495441E+03  0.11507495441E+03  0.00000000000E+00 0.  1.
          6    2    1    2  502    0 -0.49874500438E+02 -0.40827524389E+01 -0.38987612889E+02  0.18414157255E+03  0.17286974901E+03 0.  0.
         24    2    3    3    0    0  0.20703584507E+02 -0.12841534326E+02 -0.67155662535E+02  0.10750273543E+03  0.80333129525E+02 0.  0.
         -6    2    1    2    0  503  0.49874500438E+02  0.40827524389E+01  0.22311177472E+04  0.22381384706E+04  0.16992138474E+03 0.  0.
        -24    2    5    5    0    0  0.79313726528E+01 -0.59237028687E+02  0.13497520648E+04  0.13534938092E+04  0.80888337314E+02 0.  0.
          4    1    4    4  501    0 -0.14842543677E+02  0.25303684617E+02 -0.37182136335E+02  0.47361258645E+02  0.00000000000E+00 0. -1.
         -3    1    4    4    0  501  0.35546128184E+02 -0.38145218943E+02 -0.29973526200E+02  0.60141476786E+02  0.00000000000E+00 0.  1.
          5    1    3    3  502    0 -0.70578084945E+02  0.87587818871E+01  0.28168049646E+02  0.76638837122E+02  0.47000000000E+01 0. -1.
         13    1    6    6    0    0  0.16419480419E+02 -0.86832115016E+01  0.62014473914E+02  0.64736330403E+02  0.00000000000E+00 0. -1.
        -14    1    6    6    0    0 -0.84881077661E+01 -0.50553817185E+02  0.12877375908E+04  0.12887574788E+04  0.00000000000E+00 0.  1.
         -5    1    5    5    0  503  0.41943127785E+02  0.63319781125E+02  0.88136568242E+03  0.88464466132E+03  0.47000000000E+01 0.  1.
<mgrwt>
<rscale>  2 0.17925514E+03</rscale>
<asrwt>0</asrwt>
<pdfrwt beam="1">  1       21 0.35495459E+00 0.17996690E+03</pdfrwt>
<pdfrwt beam="2">  1       21 0.17703841E-01 0.17996690E+03</pdfrwt>
<totfact> 0.48310080E+02</totfact>
</mgrwt>
</event>
<event>
12    1  0.2769346E-001  0.4084773E+03  0.7546771E-02  0.1041112E+00
         21   -1    0    0  504  503  0.00000000000E+00  0.00000000000E+00  0.17875189748E+03  0.17875189748E+03  0.00000000000E+00 0.  1.
         21   -1    0    0  502  504 -0.00000000000E+00 -0.00000000000E+00 -0.95422868686E+03  0.95422868686E+03  0.00000000000E+00 0. -1.
          6    2    1    2  502    0 -0.35980811270E+03  0.75626499911E+02 -0.29375927433E+03  0.50313837616E+03  0.17796760620E+03 0.  0.
         24    2    3    3    0    0 -0.22514353241E+03  0.90124662883E+02 -0.11538918189E+03  0.27912336374E+03  0.76046852921E+02 0.  0.
         -6    2    1    2    0  503  0.35980811270E+03 -0.75626499911E+02 -0.48171751505E+03  0.62984220819E+03  0.17166303462E+03 0.  0.
        -24    2    5    5    0    0  0.11704815000E+03 -0.72754209673E+02 -0.24208673669E+03  0.28868879771E+03  0.75774596004E+02 0.  0.
          4    1    4    4  501    0 -0.16019055646E+03  0.78292010261E+02 -0.47703640882E+02  0.18457055725E+03  0.00000000000E+00 0. -1.
         -3    1    4    4    0  501 -0.64952975952E+02  0.11832652622E+02 -0.67685541007E+02  0.94552806486E+02  0.00000000000E+00 0.  1.
          5    1    3    3  502    0 -0.13466458029E+03 -0.14498162973E+02 -0.17837009244E+03  0.22401501242E+03  0.47000000000E+01 0. -1.
         13    1    6    6    0    0  0.12629729892E+03 -0.62378170559E+02 -0.23236322918E+03  0.27172543891E+03  0.00000000000E+00 0. -1.
        -14    1    6    6    0    0 -0.92491489211E+01 -0.10376039114E+02 -0.97235075093E+01  0.16963358799E+02  0.00000000000E+00 0.  1.
         -5    1    5    5    0  503  0.24275996270E+03 -0.28722902375E+01 -0.23963077836E+03  0.34115341048E+03  0.47000000000E+01 0.  1.
<mgrwt>
<rscale>  2 0.40779884E+03</rscale>
<asrwt>0</asrwt>
<pdfrwt beam="1">  1       21 0.27500293E-01 0.40847731E+03</pdfrwt>
<pdfrwt beam="2">  1       21 0.14680441E+00 0.40847731E+03</pdfrwt>
<totfact> 0.35098299E+03</totfact>
</mgrwt>
</event>
<event>
12    1  0.2769346E-001  0.4473793E+03  0.7546771E-02  0.1028699E+00
         21   -1    0    0  504  503  0.00000000000E+00  0.00000000000E+00  0.56351705154E+03  0.56351705154E+03  0.00000000000E+00 0.  1.
         21   -1    0    0  502  504 -0.00000000000E+00 -0.00000000000E+00 -0.44645275047E+03  0.44645275047E+03  0.00000000000E+00 0.  1.
          6    2    1    2  502    0  0.22049656758E+03  0.34587386351E+03 -0.17218994032E+03  0.47937209173E+03  0.17860784140E+03 0.  0.
         24    2    3    3    0    0  0.21585217243E+03  0.32549281754E+03 -0.11666620377E+03  0.41985795256E+03  0.10065765052E+03 0.  0.
         -6    2    1    2    0  503 -0.22049656758E+03 -0.34587386351E+03  0.28925424139E+03  0.53059771029E+03  0.17210011107E+03 0.  0.
        -24    2    5    5    0    0 -0.12900083321E+03 -0.23128707578E+03  0.10783127658E+03  0.29727822227E+03  0.81313165201E+02 0.  0.
          2    1    4    4  501    0  0.11075252893E+03  0.23918434025E+03 -0.49538560220E+02  0.26819645828E+03  0.00000000000E+00 0. -1.
         -1    1    4    4    0  501  0.10509964351E+03  0.86308477289E+02 -0.67127643554E+02  0.15166149428E+03  0.00000000000E+00 0.  1.
          5    1    3    3  502    0  0.46443951497E+01  0.20381045963E+02 -0.55523736549E+02  0.59514139170E+02  0.47000000000E+01 0. -1.
         13    1    6    6    0    0 -0.15821714443E+02  0.13172503857E+01  0.16635283542E+02  0.22995531197E+02  0.00000000000E+00 0. -1.
        -14    1    6    6    0    0 -0.11317911877E+03 -0.23260432616E+03  0.91195993038E+02  0.27428269107E+03  0.00000000000E+00 0.  1.
         -5    1    5    5    0  503 -0.91495734371E+02 -0.11458678773E+03  0.18142296481E+03  0.23331948802E+03  0.47000000000E+01 0.  1.
<mgrwt>
<rscale>  2 0.44673839E+03</rscale>
<asrwt>0</asrwt>
<pdfrwt beam="1">  1       21 0.86694931E-01 0.44737929E+03</pdfrwt>
<pdfrwt beam="2">  1       21 0.68685038E-01 0.44737929E+03</pdfrwt>
<totfact> 0.19099792E+03</totfact>
</mgrwt>
</event>
<event>
12    1  0.2769346E-001  0.2272106E+03  0.7546771E-02  0.1128703E+00
         21   -1    0    0  504  503  0.00000000000E+00  0.00000000000E+00  0.10910156815E+03  0.10910156815E+03  0.00000000000E+00 0. -1.
         21   -1    0    0  502  504 -0.00000000000E+00 -0.00000000000E+00 -0.47303391825E+03  0.47303391825E+03  0.00000000000E+00 0. -1.
          6    2    1    2  502    0 -0.44143282885E+02  0.13980398658E+03 -0.16993470476E+03  0.28372951728E+03  0.17358240409E+03 0.  0.
         24    2    3    3    0    0  0.21124105566E+02  0.49442116291E+02 -0.13860029279E+03  0.16784580415E+03  0.77919330782E+02 0.  0.
         -6    2    1    2    0  503  0.44143282885E+02 -0.13980398658E+03 -0.19399764534E+03  0.29840596912E+03  0.17296604268E+03 0.  0.
        -24    2    5    5    0    0 -0.31654001296E+02 -0.10263527630E+03 -0.70227609605E+02  0.14851316389E+03  0.74754711951E+02 0.  0.
          2    1    4    4  501    0  0.32130540981E+02  0.66583944578E+02 -0.10227156981E+03  0.12619535384E+03  0.00000000000E+00 0. -1.
         -1    1    4    4    0  501 -0.11006435414E+02 -0.17141828288E+02 -0.36328722977E+02  0.41650450306E+02  0.00000000000E+00 0.  1.
          5    1    3    3  502    0 -0.65267388451E+02  0.90361870286E+02 -0.31334411968E+02  0.11588371314E+03  0.47000000000E+01 0. -1.
         13    1    6    6    0    0 -0.18019525936E+02 -0.10312413518E+03 -0.79980189465E+02  0.13174263273E+03  0.00000000000E+00 0. -1.
        -14    1    6    6    0    0 -0.13634475360E+02  0.48885888707E+00  0.97525798604E+01  0.16770531157E+02  0.00000000000E+00 0.  1.
         -5    1    5    5    0  503  0.75797284181E+02 -0.37168710281E+02 -0.12377003574E+03  0.14989280523E+03  0.47000000000E+01 0.  1.
<mgrwt>
<rscale>  2 0.22709283E+03</rscale>
<asrwt>0</asrwt>
<pdfrwt beam="1">  1       21 0.16784857E-01 0.22721055E+03</pdfrwt>
<pdfrwt beam="2">  1       21 0.72774449E-01 0.22721055E+03</pdfrwt>
<totfact> 0.53428640E+04</totfact>
</mgrwt>
</event>
<event>
12    1  0.2769346E-001  0.3345175E+03  0.7546771E-02  0.1069188E+00
         21   -1    0    0  504  503  0.00000000000E+00  0.00000000000E+00  0.16243480062E+03  0.16243480062E+03  0.00000000000E+00 0. -1.
         21   -1    0    0  502  504 -0.00000000000E+00 -0.00000000000E+00 -0.68880404034E+03  0.68880404034E+03  0.00000000000E+00 0.  1.
          6    2    1    2  502    0 -0.18708520644E+02 -0.28503489882E+03 -0.27488087405E+03  0.43296818476E+03  0.17408920647E+03 0.  0.
         24    2    3    3    0    0  0.31896382272E+02 -0.67803023317E+02 -0.11172935755E+03  0.15657887370E+03  0.80117820600E+02 0.  0.
         -6    2    1    2    0  503  0.18708520644E+02  0.28503489882E+03 -0.25148836568E+03  0.41827065619E+03  0.17351957087E+03 0.  0.
        -24    2    5    5    0    0  0.13459128121E+02  0.29938076396E+03 -0.25490684492E+03  0.40192636151E+03  0.82202862049E+02 0.  0.
          4    1    4    4  501    0  0.49590410681E+02 -0.51076855393E+02 -0.11142872225E+03  0.13222864338E+03  0.00000000000E+00 0. -1.
         -3    1    4    4    0  501 -0.17694028410E+02 -0.16726167924E+02 -0.30063529535E+00  0.24350230314E+02  0.00000000000E+00 0.  1.
          5    1    3    3  502    0 -0.50604902916E+02 -0.21723187550E+03 -0.16315151650E+03  0.27638931106E+03  0.47000000000E+01 0. -1.
         11    1    6    6    0    0 -0.41879776856E+01  0.12155107686E+03 -0.54086173968E+02  0.13310716607E+03  0.00000000000E+00 0. -1.
        -12    1    6    6    0    0  0.17647105807E+02  0.17782968709E+03 -0.20082067095E+03  0.26881919544E+03  0.00000000000E+00 0.  1.
         -5    1    5    5    0  503  0.52493925230E+01 -0.14345865140E+02  0.34184792455E+01  0.16344294688E+02  0.47000000000E+01 0.  1.
<mgrwt>
<rscale>  2 0.33444345E+03</rscale>
<asrwt>0</asrwt>
<pdfrwt beam="1">  1       21 0.24989969E-01 0.33451749E+03</pdfrwt>
<pdfrwt beam="2">  1       21 0.10596985E+00 0.33451749E+03</pdfrwt>
<totfact> 0.10027627E+04</totfact>
</mgrwt>
</event>
<event>
12    1  0.2769346E-001  0.2010747E+03  0.7546771E-02  0.1149925E+00
         21   -1    0    0  504  503  0.00000000000E+00  0.00000000000E+00  0.52121648486E+03  0.52121648486E+03  0.00000000000E+00 0. -1.
         21   -1    0    0  502  504 -0.00000000000E+00 -0.00000000000E+00 -0.15363926245E+03  0.15363926245E+03  0.00000000000E+00 0.  1.
          6    2    1    2  502    0 -0.80509955582E+02  0.46428787033E+02 -0.57847626993E+02  0.20430571895E+03  0.17250215545E+03 0.  0.
         24    2    3    3    0    0 -0.11090927043E+03 -0.14042516645E+01 -0.31620045747E+02  0.14167909560E+03  0.82281836684E+02 0.  0.
         -6    2    1    2    0  503  0.80509955582E+02 -0.46428787033E+02  0.42542484940E+03  0.47055002837E+03  0.17830743533E+03 0.  0.
        -24    2    5    5    0    0 -0.19568889873E+01 -0.65733126560E+02  0.17305127452E+03  0.20430211893E+03  0.86417236972E+02 0.  0.
          4    1    4    4  501    0 -0.11033659254E+03 -0.16370015456E+02 -0.56344734593E+01  0.11168656298E+03  0.00000000000E+00 0. -1.
         -3    1    4    4    0  501 -0.57267788607E+00  0.14965763792E+02 -0.25985572288E+02  0.29992532620E+02  0.00000000000E+00 0.  1.
          5    1    3    3  502    0  0.30399314844E+02  0.47833038698E+02 -0.26227581245E+02  0.62626623348E+02  0.47000000000E+01 0. -1.
         13    1    6    6    0    0  0.40504034607E+02 -0.41995056696E+02  0.11155507813E+03  0.12589160839E+03  0.00000000000E+00 0. -1.
        -14    1    6    6    0    0 -0.42460923594E+02 -0.23738069864E+02  0.61496196390E+02  0.78410510544E+02  0.00000000000E+00 0.  1.
         -5    1    5    5    0  503  0.82466844569E+02  0.19304339527E+02  0.25237357488E+03  0.26624790943E+03  0.47000000000E+01 0.  1.
<mgrwt>
<rscale>  2 0.19977983E+03</rscale>
<asrwt>0</asrwt>
<pdfrwt beam="1">  1       21 0.80187151E-01 0.20107468E+03</pdfrwt>
<pdfrwt beam="2">  1       21 0.23636810E-01 0.20107468E+03</pdfrwt>
<totfact> 0.22941636E+04</totfact>
</mgrwt>
</event>
<event>
12    1  0.2769346E-001  0.1752710E+03  0.7546771E-02  0.1172930E+00
         21   -1    0    0  504  503  0.00000000000E+00  0.00000000000E+00  0.16654046737E+03  0.16654046737E+03  0.00000000000E+00 0.  1.
         21   -1    0    0  502  504 -0.00000000000E+00 -0.00000000000E+00 -0.18436072665E+03  0.18436072665E+03  0.00000000000E+00 0.  1.
          6    2    1    2  502    0  0.19622935525E+02 -0.31511390190E+01 -0.26573593041E+02  0.17727405312E+03  0.17414058914E+03 0.  0.
         24    2    3    3    0    0  0.56545706367E+02 -0.19115363726E+02  0.31031128657E+02  0.10685714152E+03  0.83022308500E+02 0.  0.
         -6    2    1    2    0  503 -0.19622935525E+02  0.31511390190E+01  0.87533337666E+01  0.17362714091E+03  0.17226367560E+03 0.  0.
        -24    2    5    5    0    0 -0.27534593538E+02 -0.48523693097E+02  0.48845213712E+02  0.10757919284E+03  0.77940523449E+02 0.  0.
          2    1    4    4  501    0  0.22566752458E+02  0.13846805251E+02 -0.22964274886E+02  0.35047828081E+02  0.00000000000E+00 0. -1.
         -1    1    4    4    0  501  0.33978953909E+02 -0.32962168977E+02  0.53995403544E+02  0.71809313437E+02  0.00000000000E+00 0.  1.
          5    1    3    3  502    0 -0.36922770841E+02  0.15964224707E+02 -0.57604721698E+02  0.70416911598E+02  0.47000000000E+01 0. -1.
         13    1    6    6    0    0 -0.26187692354E+02  0.32735290680E+01  0.49123119235E+02  0.55763716400E+02  0.00000000000E+00 0. -1.
        -14    1    6    6    0    0 -0.13469011844E+01 -0.51797222165E+02 -0.27790552257E+00  0.51815476436E+02  0.00000000000E+00 0.  1.
         -5    1    5    5    0  503  0.79116580129E+01  0.51674832116E+02 -0.40091879946E+02  0.66047948070E+02  0.47000000000E+01 0.  1.
<mgrwt>
<rscale>  2 0.17480299E+03</rscale>
<asrwt>0</asrwt>
<pdfrwt beam="1">  1       21 0.25621610E-01 0.17527103E+03</pdfrwt>
<pdfrwt beam="2">  1       21 0.28363189E-01 0.17527103E+03</pdfrwt>
<totfact> 0.17265010E+05</totfact>
</mgrwt>
</event>
<event>
12    1  0.2769346E-001  0.2184879E+03  0.7546771E-02  0.1135492E+00
         21   -1    0    0  504  503  0.00000000000E+00  0.00000000000E+00  0.20515419530E+03  0.20515419530E+03  0.00000000000E+00 0. -1.
         21   -1    0    0  502  504 -0.00000000000E+00 -0.00000000000E+00 -0.26855398688E+03  0.26855398688E+03  0.00000000000E+00 0.  1.
          6    2    1    2  502    0  0.83186124026E+02  0.97393596116E+02 -0.12158365752E+03  0.25003910742E+03  0.17700713452E+03 0.  0.
         24    2    3    3    0    0  0.39446088496E+01  0.28029875179E+02 -0.12269309125E+03  0.14461679312E+03  0.71127971794E+02 0.  0.
         -6    2    1    2    0  503 -0.83186124026E+02 -0.97393596116E+02  0.58183865933E+02  0.22366907476E+03  0.17388803568E+03 0.  0.
        -24    2    5    5    0    0 -0.23295729481E+02 -0.10336049355E+03  0.84193879936E+02  0.15793419778E+03  0.81415715746E+02 0.  0.
          4    1    4    4  501    0 -0.33600355468E+02  0.13098685642E+02 -0.54467798836E+02  0.65324578553E+02  0.00000000000E+00 0. -1.
         -3    1    4    4    0  501  0.37544964317E+02  0.14931189536E+02 -0.68225292412E+02  0.79292214569E+02  0.00000000000E+00 0.  1.
          5    1    3    3  502    0  0.79241515176E+02  0.69363720937E+02  0.11094337325E+01  0.10542231430E+03  0.47000000000E+01 0. -1.
         13    1    6    6    0    0 -0.24103149326E+02  0.13814228447E+01  0.34218015528E+02  0.41877711532E+02  0.00000000000E+00 0. -1.
        -14    1    6    6    0    0  0.80741984499E+00 -0.10474191639E+03  0.49975864408E+02  0.11605648624E+03  0.00000000000E+00 0.  1.
         -5    1    5    5    0  503 -0.59890394545E+02  0.59668974293E+01 -0.26010014003E+02  0.65734876985E+02  0.47000000000E+01 0.  1.
<mgrwt>
<rscale>  2 0.21785538E+03</rscale>
<asrwt>0</asrwt>
<pdfrwt beam="1">  1       21 0.31562184E-01 0.21848792E+03</pdfrwt>
<pdfrwt beam="2">  1       21 0.41315998E-01 0.21848792E+03</pdfrwt>
<totfact> 0.53785118E+04</totfact>
</mgrwt>
</event>
<event>
12    1  0.2769346E-001  0.1840036E+03  0.7546771E-02  0.1163989E+00
         21   -1    0    0  504  503  0.00000000000E+00  0.00000000000E+00  0.12983526378E+04  0.12983526378E+04  0.00000000000E+00 0.  1.
         21   -1    0    0  502  504 -0.00000000000E+00 -0.00000000000E+00 -0.27828417672E+02  0.27828417672E+02  0.00000000000E+00 0.  1.
          6    2    1    2  502    0  0.61150194766E+02 -0.15532184269E+02  0.46873988700E+03  0.50355389214E+03  0.17282605577E+03 0.  0.
         24    2    3    3    0    0  0.99496788669E+02 -0.44993893329E+02  0.34629874584E+03  0.37182547222E+03  0.80045605940E+02 0.  0.
         -6    2    1    2    0  503 -0.61150194766E+02  0.15532184269E+02  0.80178433312E+03  0.82262716332E+03  0.17284888758E+03 0.  0.
        -24    2    5    5    0    0 -0.98143395334E+02  0.45276177497E+02  0.61887277690E+03  0.63359825173E+03  0.82226348022E+02 0.  0.
          4    1    4    4  501    0  0.77988901921E+02 -0.39928634432E+02  0.33638314426E+03  0.34760636417E+03  0.00000000000E+00 0. -1.
         -3    1    4    4    0  501  0.21507886748E+02 -0.50652588977E+01  0.99156015798E+01  0.24219108050E+02  0.00000000000E+00 0.  1.
          5    1    3    3  502    0 -0.38346593903E+02  0.29461709060E+02  0.12244114116E+03  0.13172841992E+03  0.47000000000E+01 0. -1.
         11    1    6    6    0    0 -0.46622176188E+00  0.35902702869E+02  0.12414948719E+03  0.12923744274E+03  0.00000000000E+00 0. -1.
        -12    1    6    6    0    0 -0.97677173572E+02  0.93734746282E+01  0.49472328971E+03  0.50436080899E+03  0.00000000000E+00 0.  1.
         -5    1    5    5    0  503  0.36993200568E+02 -0.29743993227E+02  0.18291155622E+03  0.18902891160E+03  0.47000000000E+01 0.  1.
<mgrwt>
<rscale>  2 0.18399826E+03</rscale>
<asrwt>0</asrwt>
<pdfrwt beam="1">  1       21 0.19974651E+00 0.18400362E+03</pdfrwt>
<pdfrwt beam="2">  1       21 0.42812960E-02 0.18400362E+03</pdfrwt>
<totfact> 0.47385508E+04</totfact>
</mgrwt>
</event>
<event>
12    1  0.2769346E-001  0.2574556E+03  0.7546771E-02  0.1108763E+00
         21   -1    0    0  504  503  0.00000000000E+00  0.00000000000E+00  0.91254045866E+03  0.91254045866E+03  0.00000000000E+00 0.  1.
         21   -1    0    0  502  504 -0.00000000000E+00 -0.00000000000E+00 -0.17748504270E+03  0.17748504270E+03  0.00000000000E+00 0. -1.
          6    2    1    2  502    0  0.10572904769E+03  0.15734221272E+03 -0.51515194366E+02  0.26255895982E+03  0.17420731529E+03 0.  0.
         24    2    3    3    0    0  0.43672052030E+02  0.16558063743E+03 -0.61103151194E+02  0.19905335953E+03  0.81021288785E+02 0.  0.
         -6    2    1    2    0  503 -0.10572904769E+03 -0.15734221272E+03  0.78657061033E+03  0.82746654154E+03  0.17341380830E+03 0.  0.
        -24    2    5    5    0    0 -0.37939947231E+02 -0.32186039267E+02  0.20526399831E+03  0.22896934266E+03  0.88420982551E+02 0.  0.
          2    1    4    4  501    0  0.59433255428E+02  0.86622744738E+02 -0.54288262065E+02  0.11824985055E+03  0.00000000000E+00 0. -1.
         -1    1    4    4    0  501 -0.15761203398E+02  0.78957892688E+02 -0.68148891293E+01  0.80803508984E+02  0.00000000000E+00 0.  1.
          5    1    3    3  502    0  0.62056995655E+02 -0.82384247074E+01  0.95879568284E+01  0.63505600285E+02  0.47000000000E+01 0. -1.
         11    1    6    6    0    0  0.25780737860E+01 -0.79098753429E+01 -0.73931286247E+01  0.11129732398E+02  0.00000000000E+00 0. -1.
        -12    1    6    6    0    0 -0.40518021017E+02 -0.24276163924E+02  0.21265712693E+03  0.21783961026E+03  0.00000000000E+00 0.  1.
         -5    1    5    5    0  503 -0.67789100455E+02 -0.12515617345E+03  0.58130661202E+03  0.59849719888E+03  0.47000000000E+01 0.  1.
<mgrwt>
<rscale>  2 0.25732144E+03</rscale>
<asrwt>0</asrwt>
<pdfrwt beam="1">  1       21 0.14039084E+00 0.25745561E+03</pdfrwt>
<pdfrwt beam="2">  1       21 0.27305392E-01 0.25745561E+03</pdfrwt>
<totfact> 0.43281742E+03</totfact>
</mgrwt>
</event>
<event>
12    1  0.2769346E-001  0.1805997E+03  0.7546771E-02  0.1167806E+00
         21   -1    0    0  504  503  0.00000000000E+00  0.00000000000E+00  0.12257285955E+03  0.12257285955E+03  0.00000000000E+00 0. -1.
         21   -1    0    0  502  504 -0.00000000000E+00 -0.00000000000E+00 -0.30840943964E+03  0.30840943964E+03  0.00000000000E+00 0. -1.
          6    2    1    2  502    0  0.23890198250E+02 -0.37351317626E+02 -0.17652087623E+03  0.25253887301E+03  0.17507255678E+03 0.  0.
         24    2    3    3    0    0 -0.49517009749E+02 -0.31333631739E+02 -0.11321453460E+03  0.15530403553E+03  0.88702208963E+02 0.  0.
         -6    2    1    2    0  503 -0.23890198250E+02  0.37351317626E+02 -0.93157038554E+01  0.17844342617E+03  0.17259609354E+03 0.  0.
        -24    2    5    5    0    0 -0.53757806705E+02 -0.25108304999E+02  0.23284619682E+02  0.10177433469E+03  0.79344268393E+02 0.  0.
          4    1    4    4  501    0  0.58463517834E+01 -0.46653863118E+02 -0.36809216486E+02  0.59713325073E+02  0.00000000000E+00 0. -1.
         -3    1    4    4    0  501 -0.55363361533E+02  0.15320231379E+02 -0.76405318110E+02  0.95590710454E+02  0.00000000000E+00 0.  1.
          5    1    3    3  502    0  0.73407208000E+02 -0.60176858870E+01 -0.63306341636E+02  0.97234837487E+02  0.47000000000E+01 0. -1.
         13    1    6    6    0    0 -0.53844304060E+02  0.16930984058E+02  0.18820698745E+02  0.59498621851E+02  0.00000000000E+00 0. -1.
        -14    1    6    6    0    0  0.86497355003E-01 -0.42039289057E+02  0.44639209372E+01  0.42275712842E+02  0.00000000000E+00 0.  1.
         -5    1    5    5    0  503  0.29867608455E+02  0.62459622625E+02 -0.32600323538E+02  0.76669091478E+02  0.47000000000E+01 0.  1.
<mgrwt>
<rscale>  2 0.17999681E+03</rscale>
<asrwt>0</asrwt>
<pdfrwt beam="1">  1       21 0.18857363E-01 0.18059973E+03</pdfrwt>
<pdfrwt beam="2">  1       21 0.47447606E-01 0.18059973E+03</pdfrwt>
<totfact> 0.10991023E+05</totfact>
</mgrwt>
</event>
<event>
12    1  0.2769346E-001  0.3617367E+03  0.7546771E-02  0.1057952E+00
         21   -1    0    0  504  503  0.00000000000E+00  0.00000000000E+00  0.79908965350E+03  0.79908965350E+03  0.00000000000E+00 0.  1.
         21   -1    0    0  502  504 -0.00000000000E+00 -0.00000000000E+00 -0.17455942004E+03  0.17455942004E+03  0.00000000000E+00 0. -1.
          6    2    1    2  502    0 -0.30628961369E+03  0.83670238934E+02  0.18998329443E+03  0.40859162775E+03  0.17331886731E+03 0.  0.
         24    2    3    3    0    0 -0.31640053524E+03  0.64374788273E+02  0.19490842506E+03  0.38576856786E+03  0.81084411101E+02 0.  0.
         -6    2    1    2    0  503  0.30628961369E+03 -0.83670238934E+02  0.43454693903E+03  0.56505744580E+03  0.17217676525E+03 0.  0.
        -24    2    5    5    0    0  0.30533619928E+03 -0.10983669046E+03  0.39735897998E+03  0.51933407669E+03  0.80742993929E+02 0.  0.
          4    1    4    4  501    0 -0.19908668453E+03  0.50198016127E+01  0.95044643293E+02  0.22066760203E+03  0.00000000000E+00 0. -1.
         -3    1    4    4    0  501 -0.11731385071E+03  0.59354986660E+02  0.99863781771E+02  0.16510096583E+03  0.00000000000E+00 0.  1.
          5    1    3    3  502    0  0.10110921548E+02  0.19295450662E+02 -0.49251306350E+01  0.22823059886E+02  0.47000000000E+01 0. -1.
         11    1    6    6    0    0  0.10857504343E+03 -0.48661171921E+02  0.89511281535E+02  0.14889163586E+03  0.00000000000E+00 0. -1.
        -12    1    6    6    0    0  0.19676115586E+03 -0.61175518544E+02  0.30784769845E+03  0.37044244082E+03  0.00000000000E+00 0.  1.
         -5    1    5    5    0  503  0.95341440626E+00  0.26166451530E+02  0.37187959050E+02  0.45723369113E+02  0.47000000000E+01 0.  1.
<mgrwt>
<rscale>  2 0.36160020E+03</rscale>
<asrwt>0</asrwt>
<pdfrwt beam="1">  1       21 0.12293687E+00 0.36173674E+03</pdfrwt>
<pdfrwt beam="2">  1       21 0.26855296E-01 0.36173674E+03</pdfrwt>
<totfact> 0.59588289E+03</totfact>
</mgrwt>
</event>
<event>
12    1  0.2769346E-001  0.1924069E+03  0.7546771E-02  0.1156489E+00
         21   -1    0    0  504  503  0.00000000000E+00  0.00000000000E+00  0.75417981726E+02  0.75417981726E+02  0.00000000000E+00 0.  1.
         21   -1    0    0  502  504 -0.00000000000E+00 -0.00000000000E+00 -0.59933442803E+03  0.59933442803E+03  0.00000000000E+00 0.  1.
          6    2    1    2  502    0 -0.83762723997E+02  0.99957181161E+01 -0.11662113786E+03  0.22429721269E+03  0.17202511884E+03 0.  0.
         24    2    3    3    0    0 -0.17673981301E+02  0.18672049501E+02 -0.13056220280E+03  0.15603709308E+03  0.81486628158E+02 0.  0.
         -6    2    1    2    0  503  0.83762723997E+02 -0.99957181161E+01 -0.40729530845E+03  0.45045519707E+03  0.17292862103E+03 0.  0.
        -24    2    5    5    0    0  0.11272001177E+03 -0.14407193916E+02 -0.21579473445E+03  0.25667040541E+03  0.79993507932E+02 0.  0.
          2    1    4    4  501    0 -0.14452874273E+01  0.49953892476E+02 -0.70864591715E+02  0.86713727795E+02  0.00000000000E+00 0. -1.
         -1    1    4    4    0  501 -0.16228693874E+02 -0.31281842975E+02 -0.59697611086E+02  0.69323365283E+02  0.00000000000E+00 0.  1.
          5    1    3    3  502    0 -0.66088742697E+02 -0.86763313847E+01  0.13941064943E+02  0.68260119611E+02  0.47000000000E+01 0. -1.
         11    1    6    6    0    0  0.27624426607E+02 -0.41330536032E+02 -0.78041126830E+02  0.92529668923E+02  0.00000000000E+00 0. -1.
        -12    1    6    6    0    0  0.85095585161E+02  0.26923342117E+02 -0.13775360762E+03  0.16414073649E+03  0.00000000000E+00 0.  1.
         -5    1    5    5    0  503 -0.28957287771E+02  0.44114757995E+01 -0.19150057400E+03  0.19378479166E+03  0.47000000000E+01 0.  1.
<mgrwt>
<rscale>  2 0.19220367E+03</rscale>
<asrwt>0</asrwt>
<pdfrwt beam="1">  1       21 0.11602766E-01 0.19240690E+03</pdfrwt>
<pdfrwt beam="2">  1       21 0.92205297E-01 0.19240690E+03</pdfrwt>
<totfact> 0.61906645E+04</totfact>
</mgrwt>
</event>
<event>
12    1  0.2769346E-001  0.2135505E+03  0.7546771E-02  0.1138947E+00
         21   -1    0    0  504  503  0.00000000000E+00  0.00000000000E+00  0.74030615181E+03  0.74030615181E+03  0.00000000000E+00 0. -1.
         21   -1    0    0  502  504 -0.00000000000E+00 -0.00000000000E+00 -0.17939770528E+03  0.17939770528E+03  0.00000000000E+00 0.  1.
          6    2    1    2  502    0 -0.12461548476E+03  0.77218512453E+01 -0.92366512795E+02  0.23267013926E+03  0.17324888163E+03 0.  0.
         24    2    3    3    0    0 -0.11778852290E+02 -0.17958587101E+02  0.31463633745E+01  0.82548888080E+02  0.79644002341E+02 0.  0.
         -6    2    1    2    0  503  0.12461548476E+03 -0.77218512453E+01  0.65327495933E+03  0.68703371784E+03  0.17221646535E+03 0.  0.
        -24    2    5    5    0    0  0.14038535160E+03 -0.25714340884E+02  0.39794696368E+03  0.43054415910E+03  0.81469090817E+02 0.  0.
          2    1    4    4  501    0  0.13996235672E+02 -0.34985249148E+02  0.24544921588E+02  0.44970161738E+02  0.00000000000E+00 0. -1.
         -1    1    4    4    0  501 -0.25775087962E+02  0.17026662047E+02 -0.21398558213E+02  0.37578726343E+02  0.00000000000E+00 0.  1.
          5    1    3    3  502    0 -0.11283663247E+03  0.25680438346E+02 -0.95512876170E+02  0.15012125118E+03  0.47000000000E+01 0. -1.
         11    1    6    6    0    0  0.52321043901E+02  0.23248148924E+02  0.20535131562E+03  0.21318332695E+03  0.00000000000E+00 0. -1.
        -12    1    6    6    0    0  0.88064307703E+02 -0.48962489808E+02  0.19259564806E+03  0.21736083215E+03  0.00000000000E+00 0.  1.
         -5    1    5    5    0  503 -0.15769866846E+02  0.17992489639E+02  0.25532799565E+03  0.25648955874E+03  0.47000000000E+01 0.  1.
<mgrwt>
<rscale>  2 0.21334102E+03</rscale>
<asrwt>0</asrwt>
<pdfrwt beam="1">  1       21 0.11389325E+00 0.21355051E+03</pdfrwt>
<pdfrwt beam="2">  1       21 0.27599647E-01 0.21355051E+03</pdfrwt>
<totfact> 0.74043666E+03</totfact>
</mgrwt>
</event>
<event>
12    1  0.2769346E-001  0.1777450E+03  0.7546771E-02  0.1170130E+00
         21   -1    0    0  504  503  0.00000000000E+00  0.00000000000E+00  0.46006390821E+03  0.46006390821E+03  0.00000000000E+00 0.  1.
         21   -1    0    0  502  504 -0.00000000000E+00 -0.00000000000E+00 -0.12165428878E+03  0.12165428878E+03  0.00000000000E+00 0.  1.
          6    2    1    2  502    0  0.40107464034E+02 -0.95484196497E+01 -0.22965511434E+02  0.17922244696E+03  0.17289733887E+03 0.  0.
         24    2    3    3    0    0  0.84541320474E+02  0.12695847283E+02 -0.42060584404E+02  0.12578194901E+03  0.82119343214E+02 0.  0.
         -6    2    1    2    0  503 -0.40107464034E+02  0.95484196497E+01  0.36137513087E+03  0.40249575003E+03  0.17236897224E+03 0.  0.
        -24    2    5    5    0    0  0.35038660727E+02 -0.23794708188E+02  0.18327654363E+03  0.20628183356E+03  0.84664086407E+02 0.  0.
          2    1    4    4  501    0  0.23453693705E+02  0.43315124528E+02 -0.25524696586E+02  0.55477796433E+02  0.00000000000E+00 0. -1.
         -1    1    4    4    0  501  0.61087626768E+02 -0.30619277245E+02 -0.16535887818E+02  0.70304152574E+02  0.00000000000E+00 0.  1.
          5    1    3    3  502    0 -0.44433856439E+02 -0.22244266933E+02  0.19095072970E+02  0.53440497950E+02  0.47000000000E+01 0. -1.
         11    1    6    6    0    0  0.48058241396E+02  0.15057325377E+02  0.12738636385E+03  0.13698030263E+03  0.00000000000E+00 0. -1.
        -12    1    6    6    0    0 -0.13019580669E+02 -0.38852033565E+02  0.55890179780E+02  0.69301530927E+02  0.00000000000E+00 0.  1.
         -5    1    5    5    0  503 -0.75146124762E+02  0.33343127838E+02  0.17809858724E+03  0.19621391647E+03  0.47000000000E+01 0.  1.
<mgrwt>
<rscale>  2 0.17761634E+03</rscale>
<asrwt>0</asrwt>
<pdfrwt beam="1">  1       21 0.70779062E-01 0.17774496E+03</pdfrwt>
<pdfrwt beam="2">  1       21 0.18716045E-01 0.17774496E+03</pdfrwt>
<totfact> 0.47572560E+04</totfact>
</mgrwt>
</event>
<event>
12    1  0.2769346E-001  0.2457533E+03  0.7546771E-02  0.1116217E+00
         21   -1    0    0  504  503  0.00000000000E+00  0.00000000000E+00  0.74430516756E+03  0.74430516756E+03  0.00000000000E+00 0.  1.
         21   -1    0    0  502  504 -0.00000000000E+00 -0.00000000000E+00 -0.22671903403E+03  0.22671903403E+03  0.00000000000E+00 0. -1.
          6    2    1    2  502    0 -0.15346898465E+03 -0.83433978444E+02 -0.13102455226E+03  0.27741730728E+03  0.17111099052E+03 0.  0.
         24    2    3    3    0    0 -0.12432008704E+03  0.71024153278E+01 -0.73701728494E+02  0.16626654051E+03  0.81894379338E+02 0.  0.
         -6    2    1    2    0  503  0.15346898465E+03  0.83433978444E+02  0.64861068579E+03  0.69360689430E+03  0.17286047581E+03 0.  0.
        -24    2    5    5    0    0  0.97479041658E+02  0.12067381418E+03  0.40661486237E+03  0.44239832034E+03  0.79475119030E+02 0.  0.
          4    1    4    4  501    0 -0.10964378971E+03 -0.25778591361E+02 -0.50540139440E+02  0.12345283346E+03  0.00000000000E+00 0. -1.
         -3    1    4    4    0  501 -0.14676297323E+02  0.32881006689E+02 -0.23161589054E+02  0.42813707052E+02  0.00000000000E+00 0.  1.
          5    1    3    3  502    0 -0.29148897613E+02 -0.90536393772E+02 -0.57322823762E+02  0.11115076677E+03  0.47000000000E+01 0. -1.
         11    1    6    6    0    0  0.58383400313E+02  0.10917981243E+03  0.35887461047E+03  0.37963118801E+03  0.00000000000E+00 0. -1.
        -12    1    6    6    0    0  0.39095641345E+02  0.11494001754E+02  0.47740251905E+02  0.62767132326E+02  0.00000000000E+00 0.  1.
         -5    1    5    5    0  503  0.55989942991E+02 -0.37239835737E+02  0.24199582342E+03  0.25120857397E+03  0.47000000000E+01 0.  1.
<mgrwt>
<rscale>  2 0.24544591E+03</rscale>
<asrwt>0</asrwt>
<pdfrwt beam="1">  1       21 0.11450849E+00 0.24575334E+03</pdfrwt>
<pdfrwt beam="2">  1       21 0.34879852E-01 0.24575334E+03</pdfrwt>
<totfact> 0.45126693E+03</totfact>
</mgrwt>
</event>
<event>
12    1  0.2769346E-001  0.2696874E+03  0.7546771E-02  0.1102662E+00
         21   -1    0    0  504  503  0.00000000000E+00  0.00000000000E+00  0.13791838197E+03  0.13791838197E+03  0.00000000000E+00 0. -1.
         21   -1    0    0  502  504 -0.00000000000E+00 -0.00000000000E+00 -0.54382004782E+03  0.54382004782E+03  0.00000000000E+00 0. -1.
          6    2    1    2  502    0 -0.12095040947E+02 -0.19503480942E+03 -0.28923054947E+03  0.39545618960E+03  0.18586667329E+03 0.  0.
         24    2    3    3    0    0  0.22061896563E+02 -0.16350784947E+03 -0.11926989698E+03  0.21919116476E+03  0.81227546236E+02 0.  0.
         -6    2    1    2    0  503  0.12095040947E+02  0.19503480942E+03 -0.11667111638E+03  0.28628224019E+03  0.17366779998E+03 0.  0.
        -24    2    5    5    0    0  0.36711789717E+02  0.16907535023E+03 -0.30674290396E+02  0.19302227064E+03  0.79890270446E+02 0.  0.
          4    1    4    4  501    0  0.42757601290E+02 -0.79017431712E+02 -0.90614628640E+02  0.12760477227E+03  0.00000000000E+00 0. -1.
         -3    1    4    4    0  501 -0.20695704727E+02 -0.84490417753E+02 -0.28655268341E+02  0.91586392493E+02  0.00000000000E+00 0.  1.
          5    1    3    3  502    0 -0.34156937510E+02 -0.31526959956E+02 -0.16996065249E+03  0.17626502483E+03  0.47000000000E+01 0. -1.
         13    1    6    6    0    0 -0.25301198000E+02  0.58311692528E+02 -0.12587325193E+02  0.64798494282E+02  0.00000000000E+00 0. -1.
        -14    1    6    6    0    0  0.62012987717E+02  0.11076365770E+03 -0.18086965203E+02  0.12822377635E+03  0.00000000000E+00 0.  1.
         -5    1    5    5    0  503 -0.24616748770E+02  0.25959459196E+02 -0.85996825987E+02  0.93259969556E+02  0.47000000000E+01 0.  1.
<mgrwt>
<rscale>  2 0.26759877E+03</rscale>
<asrwt>0</asrwt>
<pdfrwt beam="1">  1       21 0.21218213E-01 0.26968739E+03</pdfrwt>
<pdfrwt beam="2">  1       21 0.83664623E-01 0.26968739E+03</pdfrwt>
<totfact> 0.24681435E+04</totfact>
</mgrwt>
</event>
<event>
12    1  0.2769346E-001  0.1895724E+03  0.7546771E-02  0.1159547E+00
         21   -1    0    0  504  503  0.00000000000E+00  0.00000000000E+00  0.19830702864E+03  0.19830702864E+03  0.00000000000E+00 0.  1.
         21   -1    0    0  502  504 -0.00000000000E+00 -0.00000000000E+00 -0.18248043376E+03  0.18248043376E+03  0.00000000000E+00 0. -1.
          6    2    1    2  502    0  0.74943079396E+02  0.81044617056E+01  0.36648523658E+02  0.19007503636E+03  0.17059676935E+03 0.  0.
         24    2    3    3    0    0  0.24793060350E+02  0.14982954975E+02  0.83331872733E+02  0.12105501636E+03  0.82891080291E+02 0.  0.
         -6    2    1    2    0  503 -0.74943079396E+02 -0.81044617056E+01 -0.20821928771E+02  0.19071242604E+03  0.17394116614E+03 0.  0.
        -24    2    5    5    0    0 -0.14646287025E+02 -0.23910538190E+02 -0.70836189402E+02  0.11065587421E+03  0.80254153836E+02 0.  0.
          4    1    4    4  501    0  0.45071442315E+02 -0.15592412962E+02  0.30072734783E+02  0.56381979671E+02  0.00000000000E+00 0. -1.
         -3    1    4    4    0  501 -0.20278381964E+02  0.30575367937E+02  0.53259137950E+02  0.64673036690E+02  0.00000000000E+00 0.  1.
          5    1    3    3  502    0  0.50150019046E+02 -0.68784932694E+01 -0.46683349075E+02  0.69020020000E+02  0.47000000000E+01 0. -1.
         11    1    6    6    0    0 -0.80901755658E+01 -0.50860495845E+02 -0.25399800626E+02  0.57422912240E+02  0.00000000000E+00 0. -1.
        -12    1    6    6    0    0 -0.65561114588E+01  0.26949957655E+02 -0.45436388776E+02  0.53232961969E+02  0.00000000000E+00 0.  1.
         -5    1    5    5    0  503 -0.60296792371E+02  0.15806076484E+02  0.50014260631E+02  0.80056551828E+02  0.47000000000E+01 0.  1.
<mgrwt>
<rscale>  2 0.18880169E+03</rscale>
<asrwt>0</asrwt>
<pdfrwt beam="1">  1       21 0.30508774E-01 0.18957235E+03</pdfrwt>
<pdfrwt beam="2">  1       21 0.28073913E-01 0.18957235E+03</pdfrwt>
<totfact> 0.12513634E+05</totfact>
</mgrwt>
</event>
<event>
12    1  0.2769346E-001  0.1986686E+03  0.7546771E-02  0.1151641E+00
         21   -1    0    0  504  503  0.00000000000E+00  0.00000000000E+00  0.61713660758E+02  0.61713660758E+02  0.00000000000E+00 0. -1.
         21   -1    0    0  502  504 -0.00000000000E+00 -0.00000000000E+00 -0.73116275389E+03  0.73116275389E+03  0.00000000000E+00 0. -1.
          6    2    1    2  502    0 -0.72909049023E+02  0.60381789531E+02 -0.18845682189E+03  0.27383421357E+03  0.17466399992E+03 0.  0.
         24    2    3    3    0    0  0.14614674395E+02  0.77263602335E+02 -0.91532832796E+02  0.14207022977E+03  0.74982916418E+02 0.  0.
         -6    2    1    2    0  503  0.72909049023E+02 -0.60381789531E+02 -0.48099227125E+03  0.51904220108E+03  0.17055659345E+03 0.  0.
        -24    2    5    5    0    0  0.56298126760E+02  0.29890965182E+02 -0.26161226892E+03  0.28118769008E+03  0.81009807605E+02 0.  0.
          4    1    4    4  501    0 -0.13919114517E+02  0.78096253598E+02 -0.59485661788E+02  0.99152965328E+02  0.00000000000E+00 0. -1.
         -3    1    4    4    0  501  0.28533788911E+02 -0.83265126336E+00 -0.32047171009E+02  0.42917264445E+02  0.00000000000E+00 0.  1.
          5    1    3    3  502    0 -0.87523723418E+02 -0.16881812804E+02 -0.96923989089E+02  0.13176398379E+03  0.47000000000E+01 0. -1.
         11    1    6    6    0    0  0.43561803592E+02  0.95765985621E+00 -0.23740742972E+03  0.24137281440E+03  0.00000000000E+00 0. -1.
        -12    1    6    6    0    0  0.12736323168E+02  0.28933305326E+02 -0.24204839196E+02  0.39814875680E+02  0.00000000000E+00 0.  1.
         -5    1    5    5    0  503  0.16610922263E+02 -0.90272754713E+02 -0.21938000233E+03  0.23785451101E+03  0.47000000000E+01 0.  1.
<mgrwt>
<rscale>  2 0.19776206E+03</rscale>
<asrwt>0</asrwt>
<pdfrwt beam="1">  1       21 0.94944102E-02 0.19866858E+03</pdfrwt>
<pdfrwt beam="2">  1       21 0.11248657E+00 0.19866858E+03</pdfrwt>
<totfact> 0.54840582E+04</totfact>
</mgrwt>
</event>
<event>
12    1  0.2769346E-001  0.1987651E+03  0.7546771E-02  0.1152340E+00
         21   -1    0    0  504  503  0.00000000000E+00  0.00000000000E+00  0.11681461244E+04  0.11681461244E+04  0.00000000000E+00 0. -1.
         21   -1    0    0  502  504 -0.00000000000E+00 -0.00000000000E+00 -0.33867043517E+02  0.33867043517E+02  0.00000000000E+00 0.  1.
          6    2    1    2  502    0 -0.95053671561E+02  0.24713752443E+02  0.44142163235E+03  0.48120874172E+03  0.16450782830E+03 0.  0.
         24    2    3    3    0    0 -0.69806787280E+02  0.72980101192E+02  0.23820760856E+03  0.27076854820E+03  0.79835200243E+02 0.  0.
         -6    2    1    2    0  503  0.95053671561E+02 -0.24713752443E+02  0.69285744856E+03  0.72080442622E+03  0.17280511217E+03 0.  0.
        -24    2    5    5    0    0  0.22314204443E+02  0.23318981234E+02  0.51853142622E+03  0.52584333870E+03  0.81207624460E+02 0.  0.
          4    1    4    4  501    0 -0.37651053589E+02  0.58878112441E+01  0.15288882273E+03  0.15756668516E+03  0.00000000000E+00 0. -1.
         -3    1    4    4    0  501 -0.32155733692E+02  0.67092289948E+02  0.85318785838E+02  0.11320186304E+03  0.00000000000E+00 0.  1.
          5    1    3    3  502    0 -0.25246884281E+02 -0.48266348749E+02  0.20321402378E+03  0.21044019352E+03  0.47000000000E+01 0. -1.
         11    1    6    6    0    0  0.39410773667E+02 -0.17438285862E+02  0.26806889232E+03  0.27151101990E+03  0.00000000000E+00 0. -1.
        -12    1    6    6    0    0 -0.17096569224E+02  0.40757267097E+02  0.25046253389E+03  0.25433231880E+03  0.00000000000E+00 0.  1.
         -5    1    5    5    0  503  0.72739467118E+02 -0.48032733678E+02  0.17432602234E+03  0.19496108752E+03  0.47000000000E+01 0.  1.
<mgrwt>
<rscale>  2 0.19694793E+03</rscale>
<asrwt>0</asrwt>
<pdfrwt beam="1">  1       21 0.17971476E+00 0.19876513E+03</pdfrwt>
<pdfrwt beam="2">  1       21 0.52103153E-02 0.19876513E+03</pdfrwt>
<totfact> 0.45668437E+04</totfact>
</mgrwt>
</event>
<event>
12    1  0.2769346E-001  0.1771297E+03  0.7546771E-02  0.1170908E+00
         21   -1    0    0  504  503  0.00000000000E+00  0.00000000000E+00  0.14139492189E+03  0.14139492189E+03  0.00000000000E+00 0.  1.
         21   -1    0    0  502  504 -0.00000000000E+00 -0.00000000000E+00 -0.92994512739E+03  0.92994512739E+03  0.00000000000E+00 0.  1.
          6    2    1    2  502    0 -0.20757792852E+02  0.28337894112E+02 -0.86249943093E+03  0.88049996129E+03  0.17361161038E+03 0.  0.
         24    2    3    3    0    0 -0.35167995124E+02 -0.26077843059E+02 -0.73664246531E+03  0.74254782402E+03  0.82573043276E+02 0.  0.
         -6    2    1    2    0  503  0.20757792852E+02 -0.28337894112E+02  0.73949225432E+02  0.19084008800E+03  0.17238772879E+03 0.  0.
        -24    2    5    5    0    0  0.12942335950E+02 -0.69146365577E+02  0.54312381457E+01  0.11057043438E+03  0.85132829621E+02 0.  0.
          4    1    4    4  501    0  0.14136122074E+02 -0.38740317352E+02 -0.26894697883E+03  0.27209027832E+03  0.00000000000E+00 0. -1.
         -3    1    4    4    0  501 -0.49304117198E+02  0.12662474293E+02 -0.46769548648E+03  0.47045754569E+03  0.00000000000E+00 0.  1.
          5    1    3    3  502    0  0.14410202272E+02  0.54415737171E+02 -0.12585696563E+03  0.13795213727E+03  0.47000000000E+01 0. -1.
         11    1    6    6    0    0  0.34489560935E+02 -0.25191578826E+02  0.33375430536E+02  0.54203918868E+02  0.00000000000E+00 0. -1.
        -12    1    6    6    0    0 -0.21547224984E+02 -0.43954786751E+02 -0.27944192390E+02  0.56366515514E+02  0.00000000000E+00 0.  1.
         -5    1    5    5    0  503  0.78154569018E+01  0.40808471464E+02  0.68517987287E+02  0.80269653616E+02  0.47000000000E+01 0.  1.
<mgrwt>
<rscale>  2 0.17682904E+03</rscale>
<asrwt>0</asrwt>
<pdfrwt beam="1">  1       21 0.21753065E-01 0.17712965E+03</pdfrwt>
<pdfrwt beam="2">  1       21 0.14306848E+00 0.17712965E+03</pdfrwt>
<totfact> 0.67550531E+03</totfact>
</mgrwt>
</event>
<event>
12    1  0.2769346E-001  0.2542304E+03  0.7546771E-02  0.1112351E+00
         21   -1    0    0  504  503  0.00000000000E+00  0.00000000000E+00  0.31628542353E+03  0.31628542353E+03  0.00000000000E+00 0. -1.
         21   -1    0    0  502  504 -0.00000000000E+00 -0.00000000000E+00 -0.20313578894E+03  0.20313578894E+03  0.00000000000E+00 0. -1.
          6    2    1    2  502    0  0.10443597597E+03  0.13653887567E+03  0.10691411110E+03  0.27579656857E+03  0.18730558571E+03 0.  0.
         24    2    3    3    0    0 -0.13808304540E+02  0.18090448839E+02  0.56401054054E+02  0.10090975196E+03  0.80521832623E+02 0.  0.
         -6    2    1    2    0  503 -0.10443597597E+03 -0.13653887567E+03  0.62355234990E+01  0.24362464390E+03  0.17252347004E+03 0.  0.
        -24    2    5    5    0    0 -0.41445903856E+01 -0.89072632592E+01 -0.63007975891E+00  0.81090287475E+02  0.80490501017E+02 0.  0.
          2    1    4    4  501    0 -0.39495207526E+02  0.34333330615E+02  0.42836237455E+02  0.67628339089E+02  0.00000000000E+00 0. -1.
         -1    1    4    4    0  501  0.25686902986E+02 -0.16242881776E+02  0.13564816599E+02  0.33281412872E+02  0.00000000000E+00 0.  1.
          5    1    3    3  502    0  0.11824428051E+03  0.11844842683E+03  0.50513057043E+02  0.17488681661E+03  0.47000000000E+01 0. -1.
         11    1    6    6    0    0  0.54630092922E+01 -0.18751996494E+02  0.36553161923E+02  0.41444124911E+02  0.00000000000E+00 0. -1.
        -12    1    6    6    0    0 -0.96075996778E+01  0.98447332350E+01 -0.37183241682E+02  0.39646162564E+02  0.00000000000E+00 0.  1.
         -5    1    5    5    0  503 -0.10029138559E+03 -0.12763161241E+03  0.68656032579E+01  0.16253435642E+03  0.47000000000E+01 0.  1.
<mgrwt>
<rscale>  2 0.25151587E+03</rscale>
<asrwt>0</asrwt>
<pdfrwt beam="1">  1       21 0.48659296E-01 0.25423045E+03</pdfrwt>
<pdfrwt beam="2">  1       21 0.31251660E-01 0.25423045E+03</pdfrwt>
<totfact> 0.38541170E+04</totfact>
</mgrwt>
</event>
<event>
12    1  0.2769346E-001  0.1860530E+03  0.7546771E-02  0.1163401E+00
         21   -1    0    0  504  503  0.00000000000E+00  0.00000000000E+00  0.14450719916E+03  0.14450719916E+03  0.00000000000E+00 0.  1.
         21   -1    0    0  502  504 -0.00000000000E+00 -0.00000000000E+00 -0.75149325914E+03  0.75149325914E+03  0.00000000000E+00 0. -1.
          6    2    1    2  502    0  0.67109676505E+02  0.28389261578E+02 -0.67439872998E+03  0.69811113625E+03  0.16503288370E+03 0.  0.
         24    2    3    3    0    0  0.56320070252E+02  0.32739332158E+02 -0.22119874564E+03  0.24473749947E+03  0.81998441402E+02 0.  0.
         -6    2    1    2    0  503 -0.67109676505E+02 -0.28389261578E+02  0.67412669998E+02  0.19788932205E+03  0.17119011902E+03 0.  0.
        -24    2    5    5    0    0 -0.83885523166E+02 -0.48706459649E+01 -0.79411184084E+01  0.11705097880E+03  0.81100962312E+02 0.  0.
          4    1    4    4  501    0 -0.14402834292E+02  0.28334541676E+02 -0.47632089769E+02  0.57263460107E+02  0.00000000000E+00 0. -1.
         -3    1    4    4    0  501  0.70722904544E+02  0.44047904821E+01 -0.17356665587E+03  0.18747403936E+03  0.00000000000E+00 0.  1.
          5    1    3    3  502    0  0.10789606253E+02 -0.43500705798E+01 -0.45319998435E+03  0.45337363678E+03  0.47000000000E+01 0. -1.
         11    1    6    6    0    0 -0.73005650313E+01  0.28049230854E+02 -0.16333271627E+02  0.33269105238E+02  0.00000000000E+00 0. -1.
        -12    1    6    6    0    0 -0.76584958135E+02 -0.32919876819E+02  0.83921532186E+01  0.83781873564E+02  0.00000000000E+00 0.  1.
         -5    1    5    5    0  503  0.16775846661E+02 -0.23518615613E+02  0.75353788406E+02  0.80838343246E+02  0.47000000000E+01 0.  1.
<mgrwt>
<rscale>  2 0.18462431E+03</rscale>
<asrwt>0</asrwt>
<pdfrwt beam="1">  1       21 0.22231877E-01 0.18605299E+03</pdfrwt>
<pdfrwt beam="2">  1       21 0.11561435E+00 0.18605299E+03</pdfrwt>
<totfact> 0.11002972E+04</totfact>
</mgrwt>
</event>
<event>
12    1  0.2769346E-001  0.1887453E+03  0.7546771E-02  0.1160076E+00
         21   -1    0    0  504  503  0.00000000000E+00  0.00000000000E+00  0.94939221666E+02  0.94939221666E+02  0.00000000000E+00 0. -1.
         21   -1    0    0  502  504 -0.00000000000E+00 -0.00000000000E+00 -0.84669348651E+03  0.84669348651E+03  0.00000000000E+00 0. -1.
          6    2    1    2  502    0  0.62492470800E+02 -0.38561444894E+02 -0.72965573561E+03  0.75367252387E+03  0.17387491707E+03 0.  0.
         24    2    3    3    0    0 -0.31551007647E+02 -0.37347594950E+02 -0.38894009264E+03  0.40018293613E+03  0.80508867709E+02 0.  0.
         -6    2    1    2    0  503 -0.62492470800E+02  0.38561444894E+02 -0.22098529236E+02  0.18796018431E+03  0.17160533777E+03 0.  0.
        -24    2    5    5    0    0 -0.67901288995E+02  0.79309421253E+02  0.94518262323E+01  0.13592973340E+03  0.86527371718E+02 0.  0.
          4    1    4    4  501    0 -0.24711370623E+02 -0.33021822802E+02 -0.70781132176E+02  0.81921067445E+02  0.00000000000E+00 0. -1.
         -3    1    4    4    0  501 -0.68396370245E+01 -0.43257721473E+01 -0.31815896046E+03  0.31826186869E+03  0.00000000000E+00 0.  1.
          5    1    3    3  502    0  0.94043478447E+02 -0.12138499440E+01 -0.34071564297E+03  0.35348958773E+03  0.47000000000E+01 0. -1.
         13    1    6    6    0    0 -0.68766094797E+02  0.28603528424E+02 -0.20220156640E+02  0.77173780305E+02  0.00000000000E+00 0. -1.
        -14    1    6    6    0    0  0.86480580181E+00  0.50705892829E+02  0.29671982872E+02  0.58755953096E+02  0.00000000000E+00 0.  1.
         -5    1    5    5    0  503  0.54088181958E+01 -0.40747976359E+02 -0.31550355468E+02  0.52030450909E+02  0.47000000000E+01 0.  1.
<mgrwt>
<rscale>  2 0.18822093E+03</rscale>
<asrwt>0</asrwt>
<pdfrwt beam="1">  1       21 0.14606034E-01 0.18874528E+03</pdfrwt>
<pdfrwt beam="2">  1       21 0.13026053E+00 0.18874528E+03</pdfrwt>
<totfact> 0.17753710E+04</totfact>
</mgrwt>
</event>
<event>
12    1  0.2769346E-001  0.2926184E+03  0.7546771E-02  0.1089084E+00
         21   -1    0    0  504  503  0.00000000000E+00  0.00000000000E+00  0.44405949248E+03  0.44405949248E+03  0.00000000000E+00 0. -1.
         21   -1    0    0  502  504 -0.00000000000E+00 -0.00000000000E+00 -0.19237974386E+03  0.19237974386E+03  0.00000000000E+00 0.  1.
          6    2    1    2  502    0 -0.17854884261E+03  0.15187365195E+03  0.12168850280E+03  0.31691259951E+03  0.17515766800E+03 0.  0.
         24    2    3    3    0    0 -0.17996416573E+03  0.89286093482E+02  0.13545681892E+03  0.25264081610E+03  0.71552251776E+02 0.  0.
         -6    2    1    2    0  503  0.17854884261E+03 -0.15187365195E+03  0.12999124582E+03  0.31952663684E+03  0.17393749540E+03 0.  0.
        -24    2    5    5    0    0  0.19186195028E+03 -0.10581231334E+03  0.72920801522E+02  0.24484055137E+03  0.81376892817E+02 0.  0.
          2    1    4    4  501    0 -0.18042800932E+03  0.76648243140E+02  0.13800717307E+03  0.23973985806E+03  0.00000000000E+00 0. -1.
         -1    1    4    4    0  501  0.46384359492E+00  0.12637850342E+02 -0.25503541483E+01  0.12900958043E+02  0.00000000000E+00 0.  1.
          5    1    3    3  502    0  0.14153231128E+01  0.62587558466E+02 -0.13768316114E+02  0.64271783412E+02  0.47000000000E+01 0. -1.
         13    1    6    6    0    0  0.16659821653E+02  0.32854395809E+00  0.31810615635E+02  0.35910623299E+02  0.00000000000E+00 0. -1.
        -14    1    6    6    0    0  0.17520212862E+03 -0.10614085730E+03  0.41110185888E+02  0.20892992808E+03  0.00000000000E+00 0.  1.
         -5    1    5    5    0  503 -0.13313107663E+02 -0.46061338608E+02  0.57070444294E+02  0.74686085464E+02  0.47000000000E+01 0.  1.
<mgrwt>
<rscale>  2 0.29243600E+03</rscale>
<asrwt>0</asrwt>
<pdfrwt beam="1">  1       21 0.68316845E-01 0.29261836E+03</pdfrwt>
<pdfrwt beam="2">  1       21 0.29596884E-01 0.29261836E+03</pdfrwt>
<totfact> 0.20341876E+04</totfact>
</mgrwt>
</event>
<event>
12    1  0.2769346E-001  0.1867897E+03  0.7546771E-02  0.1161449E+00
         21   -1    0    0  504  503  0.00000000000E+00  0.00000000000E+00  0.50691174285E+03  0.50691174285E+03  0.00000000000E+00 0. -1.
         21   -1    0    0  502  504 -0.00000000000E+00 -0.00000000000E+00 -0.69297079148E+02  0.69297079148E+02  0.00000000000E+00 0. -1.
          6    2    1    2  502    0  0.68028545970E+02  0.19068970432E+02  0.24464218840E+03  0.30764081597E+03  0.17263129092E+03 0.  0.
         24    2    3    3    0    0  0.23114919316E+02 -0.42055034180E+02  0.16285379789E+03  0.19599490865E+03  0.97927112358E+02 0.  0.
         -6    2    1    2    0  503 -0.68028545970E+02 -0.19068970432E+02  0.19297247530E+03  0.26856800603E+03  0.17291295191E+03 0.  0.
        -24    2    5    5    0    0 -0.89586827986E+02 -0.63529013027E+02  0.14090541179E+03  0.19663384158E+03  0.82151064148E+02 0.  0.
          4    1    4    4  501    0  0.43445484275E+02 -0.53117487645E+02  0.61878530816E+02  0.92400920847E+02  0.00000000000E+00 0. -1.
         -3    1    4    4    0  501 -0.20330564958E+02  0.11062453465E+02  0.10097526708E+03  0.10359398780E+03  0.00000000000E+00 0.  1.
          5    1    3    3  502    0  0.44913626654E+02  0.61124004612E+02  0.81788390508E+02  0.11164590732E+03  0.47000000000E+01 0. -1.
         13    1    6    6    0    0 -0.10130570409E+03 -0.47589388282E+02  0.95599329656E+02  0.14719656039E+03  0.00000000000E+00 0. -1.
        -14    1    6    6    0    0  0.11718876108E+02 -0.15939624746E+02  0.45306082129E+02  0.49437281197E+02  0.00000000000E+00 0.  1.
         -5    1    5    5    0  503  0.21558282016E+02  0.44460042595E+02  0.52067063514E+02  0.71934164442E+02  0.47000000000E+01 0.  1.
<mgrwt>
<rscale>  2 0.18672450E+03</rscale>
<asrwt>0</asrwt>
<pdfrwt beam="1">  1       21 0.77986420E-01 0.18678972E+03</pdfrwt>
<pdfrwt beam="2">  1       21 0.10661089E-01 0.18678972E+03</pdfrwt>
<totfact> 0.10577822E+05</totfact>
</mgrwt>
</event>
<event>
12    1  0.2769346E-001  0.1749166E+03  0.7546771E-02  0.1172917E+00
         21   -1    0    0  504  503  0.00000000000E+00  0.00000000000E+00  0.22451626546E+04  0.22451626546E+04  0.00000000000E+00 0.  1.
         21   -1    0    0  502  504 -0.00000000000E+00 -0.00000000000E+00 -0.21634786925E+02  0.21634786925E+02  0.00000000000E+00 0.  1.
          6    2    1    2  502    0  0.55389121569E+00 -0.26626853724E+02  0.42007499211E+03  0.45488185062E+03  0.17246797643E+03 0.  0.
         24    2    3    3    0    0  0.46960530061E+02 -0.38667196718E+02  0.37747060131E+03  0.39057189724E+03  0.79761573298E+02 0.  0.
         -6    2    1    2    0  503 -0.55389121569E+00  0.26626853724E+02  0.18034528756E+04  0.18119155909E+04  0.17287723402E+03 0.  0.
        -24    2    5    5    0    0 -0.19946974357E+02  0.67128105670E+02  0.75132679183E+03  0.75882118433E+03  0.80084813226E+02 0.  0.
          2    1    4    4  501    0  0.12330343800E+02  0.12685690392E+02  0.22923323152E+03  0.22991485066E+03  0.00000000000E+00 0. -1.
         -1    1    4    4    0  501  0.34630186261E+02 -0.51352887110E+02  0.14823736979E+03  0.16065704658E+03  0.00000000000E+00 0.  1.
          5    1    3    3  502    0 -0.46406638845E+02  0.12040342994E+02  0.42604390800E+02  0.64309953380E+02  0.47000000000E+01 0. -1.
         11    1    6    6    0    0  0.28440211823E+02  0.88531801423E+01  0.25792661128E+03  0.25964083125E+03  0.00000000000E+00 0. -1.
        -12    1    6    6    0    0 -0.48387186179E+02  0.58274925527E+02  0.49340018055E+03  0.49918035307E+03  0.00000000000E+00 0.  1.
         -5    1    5    5    0  503  0.19393083141E+02 -0.40501251946E+02  0.10521260837E+04  0.10530944066E+04  0.47000000000E+01 0.  1.
<mgrwt>
<rscale>  2 0.17481544E+03</rscale>
<asrwt>0</asrwt>
<pdfrwt beam="1">  1       21 0.34540946E+00 0.17491665E+03</pdfrwt>
<pdfrwt beam="2">  1       21 0.33284305E-02 0.17491665E+03</pdfrwt>
<totfact> 0.10131786E+04</totfact>
</mgrwt>
</event>
<event>
12    1  0.2769346E-001  0.2107434E+03  0.7546771E-02  0.1141789E+00
         21   -1    0    0  504  503  0.00000000000E+00  0.00000000000E+00  0.64601965753E+03  0.64601965753E+03  0.00000000000E+00 0. -1.
         21   -1    0    0  502  504 -0.00000000000E+00 -0.00000000000E+00 -0.89753384416E+02  0.89753384416E+02  0.00000000000E+00 0. -1.
          6    2    1    2  502    0 -0.10518308935E+03  0.44193900009E+02  0.92620652553E+02  0.22647935666E+03  0.17233029516E+03 0.  0.
         24    2    3    3    0    0 -0.49287956449E+02  0.75461475676E+02  0.10622921674E+03  0.16083478195E+03  0.80370664009E+02 0.  0.
         -6    2    1    2    0  503  0.10518308935E+03 -0.44193900009E+02  0.46364562056E+03  0.50929368528E+03  0.17718976641E+03 0.  0.
        -24    2    5    5    0    0  0.13617476483E+03 -0.44300570074E+01  0.37422978743E+03  0.40653703891E+03  0.81616409037E+02 0.  0.
          4    1    4    4  501    0 -0.27185448250E+01  0.83906225597E+01  0.71601489043E+02  0.72142679920E+02  0.00000000000E+00 0. -1.
         -3    1    4    4    0  501 -0.46569411624E+02  0.67070853116E+02  0.34627727696E+02  0.88692102028E+02  0.00000000000E+00 0.  1.
          5    1    3    3  502    0 -0.55895132902E+02 -0.31267575666E+02 -0.13608564185E+02  0.65644574714E+02  0.47000000000E+01 0. -1.
         11    1    6    6    0    0  0.14465355748E+02  0.10220505826E+01  0.17111285088E+01  0.14602022637E+02  0.00000000000E+00 0. -1.
        -12    1    6    6    0    0  0.12170940908E+03 -0.54521075900E+01  0.37251865893E+03  0.39193501628E+03  0.00000000000E+00 0.  1.
         -5    1    5    5    0  503 -0.30991675480E+02 -0.39763843002E+02  0.89415833126E+02  0.10275664637E+03  0.47000000000E+01 0.  1.
<mgrwt>
<rscale>  2 0.20971873E+03</rscale>
<asrwt>0</asrwt>
<pdfrwt beam="1">  1       21 0.99387637E-01 0.21074344E+03</pdfrwt>
<pdfrwt beam="2">  1       21 0.13808213E-01 0.21074344E+03</pdfrwt>
<totfact> 0.37605589E+04</totfact>
</mgrwt>
</event>
<event>
12    1  0.2769346E-001  0.1773464E+03  0.7546771E-02  0.1170985E+00
         21   -1    0    0  504  503  0.00000000000E+00  0.00000000000E+00  0.17534657929E+03  0.17534657929E+03  0.00000000000E+00 0.  1.
         21   -1    0    0  502  504 -0.00000000000E+00 -0.00000000000E+00 -0.17733808624E+03  0.17733808624E+03  0.00000000000E+00 0.  1.
          6    2    1    2  502    0 -0.31021838532E+02  0.84007560696E+01  0.69240293305E+01  0.17748153861E+03  0.17440994007E+03 0.  0.
         24    2    3    3    0    0 -0.54914416840E+02 -0.41286878071E+02  0.37791054442E+02  0.11412082898E+03  0.82916827811E+02 0.  0.
         -6    2    1    2    0  503  0.31021838532E+02 -0.84007560696E+01 -0.89155362818E+01  0.17520312693E+03  0.17199919107E+03 0.  0.
        -24    2    5    5    0    0  0.36095650189E+02  0.56655805161E+02 -0.23757210087E+02  0.10811762175E+03  0.81315674257E+02 0.  0.
          2    1    4    4  501    0 -0.14459903476E+02 -0.56114821317E+02  0.40891520995E+02  0.70923046108E+02  0.00000000000E+00 0. -1.
         -1    1    4    4    0  501 -0.40454513364E+02  0.14827943246E+02 -0.31004665536E+01  0.43197782875E+02  0.00000000000E+00 0.  1.
          5    1    3    3  502    0  0.23892578308E+02  0.49687634141E+02 -0.30867025111E+02  0.63360709623E+02  0.47000000000E+01 0. -1.
         13    1    6    6    0    0 -0.12431553272E+02  0.55598399449E+01 -0.34263928225E+02  0.36871019980E+02  0.00000000000E+00 0. -1.
        -14    1    6    6    0    0  0.48527203462E+02  0.51095965216E+02  0.10506718138E+02  0.71246601766E+02  0.00000000000E+00 0.  1.
         -5    1    5    5    0  503 -0.50738116576E+01 -0.65056561231E+02  0.14841673805E+02  0.67085505180E+02  0.47000000000E+01 0.  1.
<mgrwt>
<rscale>  2 0.17675086E+03</rscale>
<asrwt>0</asrwt>
<pdfrwt beam="1">  1       21 0.26976397E-01 0.17734642E+03</pdfrwt>
<pdfrwt beam="2">  1       21 0.27282782E-01 0.17734642E+03</pdfrwt>
<totfact> 0.16848142E+05</totfact>
</mgrwt>
</event>
<event>
12    1  0.2769346E-001  0.2136729E+03  0.7546771E-02  0.1138705E+00
         21   -1    0    0  504  503  0.00000000000E+00  0.00000000000E+00  0.76038097481E+02  0.76038097481E+02  0.00000000000E+00 0.  1.
         21   -1    0    0  502  504 -0.00000000000E+00 -0.00000000000E+00 -0.12312913106E+04  0.12312913106E+04  0.00000000000E+00 0. -1.
          6    2    1    2  502    0 -0.12503314693E+03 -0.73632208777E+01 -0.10456389727E+04  0.10672473722E+04  0.17311437657E+03 0.  0.
         24    2    3    3    0    0 -0.51280623860E+02 -0.11828917827E+02 -0.89063997507E+03  0.89547381086E+03  0.76577771330E+02 0.  0.
         -6    2    1    2    0  503  0.12503314693E+03  0.73632208777E+01 -0.10961424043E+03  0.24008203590E+03  0.17302195642E+03 0.  0.
        -24    2    5    5    0    0  0.33276572468E+02 -0.48499712259E+02 -0.83187051525E+02  0.12935524344E+03  0.79706593824E+02 0.  0.
          4    1    4    4  501    0 -0.65826741874E+02 -0.40047207365E+01 -0.48087703127E+03  0.48537811749E+03  0.00000000000E+00 0. -1.
         -3    1    4    4    0  501  0.14546118014E+02 -0.78241970903E+01 -0.40976294381E+03  0.41009569338E+03  0.00000000000E+00 0.  1.
          5    1    3    3  502    0 -0.73752523069E+02  0.44656969490E+01 -0.15499899766E+03  0.17177356137E+03  0.47000000000E+01 0. -1.
         11    1    6    6    0    0  0.31691887001E+02 -0.16434423936E+02 -0.89747686077E+02  0.96587334304E+02  0.00000000000E+00 0. -1.
        -12    1    6    6    0    0  0.15846854671E+01 -0.32065288323E+02  0.65606345523E+01  0.32767909134E+02  0.00000000000E+00 0.  1.
         -5    1    5    5    0  503  0.91756574461E+02  0.55862933137E+02 -0.26427188907E+02  0.11072679246E+03  0.47000000000E+01 0.  1.
<mgrwt>
<rscale>  2 0.21365414E+03</rscale>
<asrwt>0</asrwt>
<pdfrwt beam="1">  1       21 0.11698168E-01 0.21367286E+03</pdfrwt>
<pdfrwt beam="2">  1       21 0.18942945E+00 0.21367286E+03</pdfrwt>
<totfact> 0.94999191E+03</totfact>
</mgrwt>
</event>
<event>
12    1  0.2769346E-001  0.2429439E+03  0.7546771E-02  0.1117893E+00
         21   -1    0    0  504  503  0.00000000000E+00  0.00000000000E+00  0.77609889101E+02  0.77609889101E+02  0.00000000000E+00 0.  1.
         21   -1    0    0  502  504 -0.00000000000E+00 -0.00000000000E+00 -0.11943197982E+04  0.11943197982E+04  0.00000000000E+00 0. -1.
          6    2    1    2  502    0 -0.13320063532E+03  0.10635499624E+03 -0.94183168580E+03  0.97259019631E+03  0.17271644711E+03 0.  0.
         24    2    3    3    0    0 -0.25654541899E+01  0.75228615025E+02 -0.48499051280E+03  0.49639659124E+03  0.74349527356E+02 0.  0.
         -6    2    1    2    0  503  0.13320063532E+03 -0.10635499624E+03 -0.17487822334E+03  0.29933949104E+03  0.17311251665E+03 0.  0.
        -24    2    5    5    0    0  0.23127964768E+02 -0.12774816691E+02 -0.15329989647E+02  0.84046732959E+02  0.78299080726E+02 0.  0.
          2    1    4    4  501    0  0.33234286084E+02  0.20357135113E+02 -0.22010168062E+03  0.22352557020E+03  0.00000000000E+00 0. -1.
         -1    1    4    4    0  501 -0.35799740274E+02  0.54871479912E+02 -0.26488883217E+03  0.27287102104E+03  0.00000000000E+00 0.  1.
          5    1    3    3  502    0 -0.13063518113E+03  0.31126381216E+02 -0.45684117300E+03  0.47619360507E+03  0.47000000000E+01 0. -1.
         11    1    6    6    0    0  0.33461328150E+02 -0.87450703846E+00 -0.41610397202E+02  0.53402719027E+02  0.00000000000E+00 0. -1.
        -12    1    6    6    0    0 -0.10333363382E+02 -0.11900309653E+02  0.26280407554E+02  0.30644013932E+02  0.00000000000E+00 0.  1.
         -5    1    5    5    0  503  0.11007267055E+03 -0.93580179550E+02 -0.15954823370E+03  0.21529275808E+03  0.47000000000E+01 0.  1.
<mgrwt>
<rscale>  2 0.24287335E+03</rscale>
<asrwt>0</asrwt>
<pdfrwt beam="1">  1       21 0.11939983E-01 0.24294390E+03</pdfrwt>
<pdfrwt beam="2">  1       21 0.18374150E+00 0.24294390E+03</pdfrwt>
<totfact> 0.97906947E+03</totfact>
</mgrwt>
</event>
<event>
12    1  0.2769346E-001  0.1965467E+03  0.7546771E-02  0.1152906E+00
         21   -1    0    0  504  503  0.00000000000E+00  0.00000000000E+00  0.39173804149E+03  0.39173804149E+03  0.00000000000E+00 0.  1.
         21   -1    0    0  502  504 -0.00000000000E+00 -0.00000000000E+00 -0.15190104855E+03  0.15190104855E+03  0.00000000000E+00 0.  1.
          6    2    1    2  502    0  0.34130263282E+02  0.85961108608E+02 -0.42047541528E+02  0.19999757459E+03  0.17226969272E+03 0.  0.
         24    2    3    3    0    0  0.57740923315E+02  0.84103264232E+02  0.21157571340E+02  0.13233745971E+03  0.81597715280E+02 0.  0.
         -6    2    1    2    0  503 -0.34130263282E+02 -0.85961108608E+02  0.28188453447E+03  0.34364151545E+03  0.17342552667E+03 0.  0.
        -24    2    5    5    0    0  0.39448609935E+02 -0.10829523699E+02  0.15278826412E+03  0.17706858051E+03  0.79596213114E+02 0.  0.
          2    1    4    4  501    0  0.54732317660E+02  0.16766099417E+02 -0.99502180845E+01  0.58101080249E+02  0.00000000000E+00 0. -1.
         -1    1    4    4    0  501  0.30086056544E+01  0.67337164815E+02  0.31107789424E+02  0.74236379465E+02  0.00000000000E+00 0.  1.
          5    1    3    3  502    0 -0.23610660033E+02  0.18578443762E+01 -0.63205112868E+02  0.67660114880E+02  0.47000000000E+01 0. -1.
         13    1    6    6    0    0  0.51567038260E+00  0.31144847871E+02  0.67583607304E+02  0.74416472915E+02  0.00000000000E+00 0. -1.
        -14    1    6    6    0    0  0.38932939552E+02 -0.41974371570E+02  0.85204656815E+02  0.10265210760E+03  0.00000000000E+00 0.  1.
         -5    1    5    5    0  503 -0.73578873216E+02 -0.75131584910E+02  0.12909627035E+03  0.16657293494E+03  0.47000000000E+01 0.  1.
<mgrwt>
<rscale>  2 0.19629141E+03</rscale>
<asrwt>0</asrwt>
<pdfrwt beam="1">  1       21 0.60267390E-01 0.19654669E+03</pdfrwt>
<pdfrwt beam="2">  1       21 0.23369392E-01 0.19654669E+03</pdfrwt>
<totfact> 0.44112023E+04</totfact>
</mgrwt>
</event>
<event>
12    1  0.2769346E-001  0.1988021E+03  0.7546771E-02  0.1150944E+00
         21   -1    0    0  504  503  0.00000000000E+00  0.00000000000E+00  0.55355746532E+03  0.55355746532E+03  0.00000000000E+00 0. -1.
         21   -1    0    0  502  504 -0.00000000000E+00 -0.00000000000E+00 -0.28559400759E+03  0.28559400759E+03  0.00000000000E+00 0. -1.
          6    2    1    2  502    0 -0.90094491451E+02 -0.30812501658E+02 -0.22972905018E+03  0.30322226656E+03  0.17349893023E+03 0.  0.
         24    2    3    3    0    0  0.69219316753E+01  0.26449344849E+02 -0.92648977202E+02  0.12572820517E+03  0.80475260901E+02 0.  0.
         -6    2    1    2    0  503  0.90094491451E+02  0.30812501658E+02  0.49769250790E+03  0.53592920636E+03  0.17451605701E+03 0.  0.
        -24    2    5    5    0    0  0.13417044226E+03  0.40518336847E+02  0.38474550478E+03  0.41420818028E+03  0.62416904430E+02 0.  0.
          4    1    4    4  501    0  0.20333891730E+02  0.72035761197E+01  0.75229166481E+01  0.22846289342E+02  0.00000000000E+00 0. -1.
         -3    1    4    4    0  501 -0.13411960055E+02  0.19245768729E+02 -0.10017189385E+03  0.10288191583E+03  0.00000000000E+00 0.  1.
          5    1    3    3  502    0 -0.97016423126E+02 -0.57261846507E+02 -0.13708007297E+03  0.17749406139E+03  0.47000000000E+01 0. -1.
         11    1    6    6    0    0  0.10535916714E+03  0.35814813312E+02  0.21624719398E+03  0.24319972010E+03  0.00000000000E+00 0. -1.
        -12    1    6    6    0    0  0.28811275123E+02  0.47035235353E+01  0.16849831080E+03  0.17100846017E+03  0.00000000000E+00 0.  1.
         -5    1    5    5    0  503 -0.44075950812E+02 -0.97058351893E+01  0.11294700312E+03  0.12172102608E+03  0.47000000000E+01 0.  1.
<mgrwt>
<rscale>  2 0.19857867E+03</rscale>
<asrwt>0</asrwt>
<pdfrwt beam="1">  1       21 0.85162687E-01 0.19880212E+03</pdfrwt>
<pdfrwt beam="2">  1       21 0.43937540E-01 0.19880212E+03</pdfrwt>
<totfact> 0.59093367E+03</totfact>
</mgrwt>
</event>
<event>
12    1  0.2769346E-001  0.2677324E+03  0.7546771E-02  0.1104008E+00
         21   -1    0    0  504  503  0.00000000000E+00  0.00000000000E+00  0.65179941717E+03  0.65179941717E+03  0.00000000000E+00 0. -1.
         21   -1    0    0  502  504 -0.00000000000E+00 -0.00000000000E+00 -0.14501108106E+03  0.14501108106E+03  0.00000000000E+00 0.  1.
          6    2    1    2  502    0 -0.18920404022E+03 -0.33329819857E+02  0.45649152128E+03  0.52439465534E+03  0.17232585361E+03 0.  0.
         24    2    3    3    0    0 -0.20688694179E+03 -0.57718854458E+01  0.40785141256E+03  0.46557225372E+03  0.87058758085E+02 0.  0.
         -6    2    1    2    0  503  0.18920404022E+03  0.33329819857E+02  0.50296814825E+02  0.27241584288E+03  0.18647138157E+03 0.  0.
        -24    2    5    5    0    0  0.19285737504E+03  0.37312471197E+02  0.90812577742E+02  0.23127188328E+03  0.81569431209E+02 0.  0.
          2    1    4    4  501    0 -0.10902918732E+03 -0.42101221627E+02  0.17556439329E+03  0.21090929980E+03  0.00000000000E+00 0. -1.
         -1    1    4    4    0  501 -0.97857754469E+02  0.36329336181E+02  0.23228701928E+03  0.25466295392E+03  0.00000000000E+00 0.  1.
          5    1    3    3  502    0  0.17682901565E+02 -0.27557934411E+02  0.48640108721E+02  0.58822401626E+02  0.47000000000E+01 0. -1.
         13    1    6    6    0    0  0.29538440431E+02  0.13404630035E+02  0.52678324104E+02  0.61864443745E+02  0.00000000000E+00 0. -1.
        -14    1    6    6    0    0  0.16331893461E+03  0.23907841162E+02  0.38134253638E+02  0.16940743954E+03  0.00000000000E+00 0.  1.
         -5    1    5    5    0  503 -0.36533348147E+01 -0.39826513403E+01 -0.40515762917E+02  0.41143959602E+02  0.47000000000E+01 0.  1.
<mgrwt>
<rscale>  2 0.26528593E+03</rscale>
<asrwt>0</asrwt>
<pdfrwt beam="1">  1       21 0.10027683E+00 0.26773237E+03</pdfrwt>
<pdfrwt beam="2">  1       21 0.22309397E-01 0.26773237E+03</pdfrwt>
<totfact> 0.14686212E+04</totfact>
</mgrwt>
</event>
<event>
12    1  0.2769346E-001  0.2011452E+03  0.7546771E-02  0.1148921E+00
         21   -1    0    0  504  503  0.00000000000E+00  0.00000000000E+00  0.13781051022E+03  0.13781051022E+03  0.00000000000E+00 0. -1.
         21   -1    0    0  502  504 -0.00000000000E+00 -0.00000000000E+00 -0.30301349090E+03  0.30301349090E+03  0.00000000000E+00 0. -1.
          6    2    1    2  502    0 -0.10220753389E+03 -0.11533672139E+02 -0.12363859244E+03  0.23610569465E+03  0.17285830014E+03 0.  0.
         24    2    3    3    0    0 -0.20002972944E+00 -0.24846204838E+02 -0.23938641382E+02  0.92770686108E+02  0.86116013279E+02 0.  0.
         -6    2    1    2    0  503  0.10220753389E+03  0.11533672139E+02 -0.41564388231E+02  0.20471830647E+03  0.17205400623E+03 0.  0.
        -24    2    5    5    0    0  0.36536712950E+01  0.15380132515E+02 -0.64904826228E+02  0.10325636712E+03  0.78735907271E+02 0.  0.
          4    1    4    4  501    0 -0.65715621194E+01 -0.42644407078E+02  0.18012701540E+02  0.46756692575E+02  0.00000000000E+00 0. -1.
         -3    1    4    4    0  501  0.63715323900E+01  0.17798202240E+02 -0.41951342922E+02  0.46013993534E+02  0.00000000000E+00 0.  1.
          5    1    3    3  502    0 -0.10200750416E+03  0.13312532700E+02 -0.99699951062E+02  0.14333500854E+03  0.47000000000E+01 0. -1.
         11    1    6    6    0    0  0.34396494160E+02  0.75324008545E+01 -0.62120246133E+02  0.71405748037E+02  0.00000000000E+00 0. -1.
        -12    1    6    6    0    0 -0.30742822865E+02  0.78477316608E+01 -0.27845800955E+01  0.31850619087E+02  0.00000000000E+00 0.  1.
         -5    1    5    5    0  503  0.98553862596E+02 -0.38464603765E+01  0.23340437997E+02  0.10146193935E+03  0.47000000000E+01 0.  1.
<mgrwt>
<rscale>  2 0.20097230E+03</rscale>
<asrwt>0</asrwt>
<pdfrwt beam="1">  1       21 0.21201617E-01 0.20114521E+03</pdfrwt>
<pdfrwt beam="2">  1       21 0.46617459E-01 0.20114521E+03</pdfrwt>
<totfact> 0.90861375E+04</totfact>
</mgrwt>
</event>
<event>
12    1  0.2769346E-001  0.1763740E+03  0.7546771E-02  0.1172087E+00
         21   -1    0    0  504  503  0.00000000000E+00  0.00000000000E+00  0.60959115015E+02  0.60959115015E+02  0.00000000000E+00 0.  1.
         21   -1    0    0  502  504 -0.00000000000E+00 -0.00000000000E+00 -0.14201802384E+04  0.14201802384E+04  0.00000000000E+00 0.  1.
          6    2    1    2  502    0  0.26663100412E+02 -0.23227452986E+02 -0.12730968425E+04  0.12848609930E+04  0.16982863558E+03 0.  0.
         24    2    3    3    0    0 -0.92772117423E+01  0.54727858403E+02 -0.40594103046E+03  0.41345406799E+03  0.55452150376E+02 0.  0.
         -6    2    1    2    0  503 -0.26663100412E+02  0.23227452986E+02 -0.86124280897E+02  0.19627836042E+03  0.17279284567E+03 0.  0.
        -24    2    5    5    0    0 -0.73395858759E+02 -0.42700330282E+01 -0.90433659864E+02  0.14168236069E+03  0.80563386405E+02 0.  0.
          2    1    4    4  501    0 -0.68361107291E+01  0.59542569542E+02 -0.40274639521E+03  0.40718142007E+03  0.00000000000E+00 0. -1.
         -1    1    4    4    0  501 -0.24411010132E+01 -0.48147111389E+01 -0.31946352538E+01  0.62726479187E+01  0.00000000000E+00 0.  1.
          5    1    3    3  502    0  0.35940312154E+02 -0.77955311390E+02 -0.86715581204E+03  0.87140692502E+03  0.47000000000E+01 0. -1.
         13    1    6    6    0    0 -0.67001283902E+02 -0.28775350625E+02 -0.90671785769E+02  0.11635534187E+03  0.00000000000E+00 0. -1.
        -14    1    6    6    0    0 -0.63945748568E+01  0.24505317597E+02  0.23812590512E+00  0.25327018815E+02  0.00000000000E+00 0.  1.
         -5    1    5    5    0  503  0.46732758348E+02  0.27497486014E+02  0.43093789665E+01  0.54595999734E+02  0.47000000000E+01 0.  1.
<mgrwt>
<rscale>  2 0.17564377E+03</rscale>
<asrwt>0</asrwt>
<pdfrwt beam="1">  1       21 0.93783263E-02 0.17637404E+03</pdfrwt>
<pdfrwt beam="2">  1       21 0.21848925E+00 0.17637404E+03</pdfrwt>
<totfact> 0.94786966E+03</totfact>
</mgrwt>
</event>
<event>
12    1  0.2769346E-001  0.1987080E+03  0.7546771E-02  0.1151019E+00
         21   -1    0    0  504  503  0.00000000000E+00  0.00000000000E+00  0.39426510618E+03  0.39426510618E+03  0.00000000000E+00 0.  1.
         21   -1    0    0  502  504 -0.00000000000E+00 -0.00000000000E+00 -0.12238620317E+03  0.12238620317E+03  0.00000000000E+00 0.  1.
          6    2    1    2  502    0  0.59195757517E+02  0.76390846419E+02  0.24506003246E+02  0.19935300510E+03  0.17263075428E+03 0.  0.
         24    2    3    3    0    0  0.39021129794E+02  0.11987238438E+03  0.96528632462E+01  0.14895096630E+03  0.78747542733E+02 0.  0.
         -6    2    1    2    0  503 -0.59195757517E+02 -0.76390846419E+02  0.24737289977E+03  0.31729830425E+03  0.17362362517E+03 0.  0.
        -24    2    5    5    0    0 -0.97680856836E+02 -0.91434026193E+02  0.18622411523E+03  0.24334788858E+03  0.81468048008E+02 0.  0.
          2    1    4    4  501    0  0.28626224563E+02  0.15892155227E+02  0.27722424285E+02  0.42901679906E+02  0.00000000000E+00 0. -1.
         -1    1    4    4    0  501  0.10394905232E+02  0.10398022915E+03 -0.18069561039E+02  0.10604928640E+03  0.00000000000E+00 0.  1.
          5    1    3    3  502    0  0.20174627723E+02 -0.43481537959E+02  0.14853140000E+02  0.50402038797E+02  0.47000000000E+01 0. -1.
         11    1    6    6    0    0  0.13071533469E+02 -0.10613911641E+02  0.84341421153E+01  0.18832282411E+02  0.00000000000E+00 0. -1.
        -12    1    6    6    0    0 -0.11075239031E+03 -0.80820114551E+02  0.17778997311E+03  0.22451560617E+03  0.00000000000E+00 0.  1.
         -5    1    5    5    0  503  0.38485099319E+02  0.15043179774E+02  0.61148784540E+02  0.73950415671E+02  0.47000000000E+01 0.  1.
<mgrwt>
<rscale>  2 0.19849089E+03</rscale>
<asrwt>0</asrwt>
<pdfrwt beam="1">  1       21 0.60656170E-01 0.19870798E+03</pdfrwt>
<pdfrwt beam="2">  1       21 0.18828647E-01 0.19870798E+03</pdfrwt>
<totfact> 0.65201724E+04</totfact>
</mgrwt>
</event>
<event>
12    1  0.2769346E-001  0.2499593E+03  0.7546771E-02  0.1113415E+00
         21   -1    0    0  504  503  0.00000000000E+00  0.00000000000E+00  0.71828330745E+02  0.71828330745E+02  0.00000000000E+00 0.  1.
         21   -1    0    0  502  504 -0.00000000000E+00 -0.00000000000E+00 -0.92682765505E+03  0.92682765505E+03  0.00000000000E+00 0. -1.
          6    2    1    2  502    0 -0.13593315381E+03 -0.11839608868E+03 -0.30212538185E+03  0.39212167468E+03  0.17315947933E+03 0.  0.
         24    2    3    3    0    0 -0.12832910154E+03 -0.25631360112E+02 -0.16112512061E+03  0.22310605367E+03  0.81790474817E+02 0.  0.
         -6    2    1    2    0  503  0.13593315381E+03  0.11839608868E+03 -0.55287394246E+03  0.60653431111E+03  0.17239146784E+03 0.  0.
        -24    2    5    5    0    0  0.16505421869E+03  0.86049392061E+02 -0.41663213292E+03  0.46343201949E+03  0.80867233916E+02 0.  0.
          4    1    4    4  501    0 -0.80363064251E+02  0.23977327052E+02 -0.73051581691E+02  0.11121900870E+03  0.00000000000E+00 0. -1.
         -3    1    4    4    0  501 -0.47966037287E+02 -0.49608687164E+02 -0.88073538918E+02  0.11188704497E+03  0.00000000000E+00 0.  1.
          5    1    3    3  502    0 -0.76040522739E+01 -0.92764728570E+02 -0.14100026124E+03  0.16901562101E+03  0.47000000000E+01 0. -1.
         11    1    6    6    0    0  0.55385917809E+02  0.59532127969E+02 -0.24406146013E+03  0.25725020986E+03  0.00000000000E+00 0. -1.
        -12    1    6    6    0    0  0.10966830088E+03  0.26517264093E+02 -0.17257067279E+03  0.20618180962E+03  0.00000000000E+00 0.  1.
         -5    1    5    5    0  503 -0.29121064880E+02  0.32346696620E+02 -0.13624180954E+03  0.14310229163E+03  0.47000000000E+01 0.  1.
<mgrwt>
<rscale>  2 0.24982636E+03</rscale>
<asrwt>0</asrwt>
<pdfrwt beam="1">  1       21 0.11050512E-01 0.24995932E+03</pdfrwt>
<pdfrwt beam="2">  1       21 0.14258887E+00 0.24995932E+03</pdfrwt>
<totfact> 0.22424703E+04</totfact>
</mgrwt>
</event>
<event>
12    1  0.2769346E-001  0.1843620E+03  0.7546771E-02  0.1165814E+00
         21   -1    0    0  504  503  0.00000000000E+00  0.00000000000E+00  0.56860402944E+02  0.56860402944E+02  0.00000000000E+00 0.  1.
         21   -1    0    0  502  504 -0.00000000000E+00 -0.00000000000E+00 -0.57874753072E+03  0.57874753072E+03  0.00000000000E+00 0.  1.
          6    2    1    2  502    0 -0.42041385836E+02  0.50774494416E+02 -0.30869488742E+03  0.35955788615E+03  0.17217378594E+03 0.  0.
         24    2    3    3    0    0  0.25748383383E+02  0.69847617712E+02 -0.15015087564E+03  0.18601385567E+03  0.80710594708E+02 0.  0.
         -6    2    1    2    0  503  0.42041385836E+02 -0.50774494416E+02 -0.21319224035E+03  0.27605004752E+03  0.16250283069E+03 0.  0.
        -24    2    5    5    0    0  0.34067712174E+02 -0.53688046502E+02 -0.23400896298E+03  0.25308280566E+03  0.72440985753E+02 0.  0.
          2    1    4    4  501    0 -0.67724092306E+00  0.24995106420E+02  0.21161465104E+01  0.25093666058E+02  0.00000000000E+00 0. -1.
         -1    1    4    4    0  501  0.26425624306E+02  0.44852511293E+02 -0.15226702216E+03  0.16092018961E+03  0.00000000000E+00 0.  1.
          5    1    3    3  502    0 -0.67789769219E+02 -0.19073123297E+02 -0.15854401178E+03  0.17354403047E+03  0.47000000000E+01 0. -1.
         13    1    6    6    0    0  0.13768246101E+02  0.69852254320E+01 -0.65040103585E+01  0.16752913949E+02  0.00000000000E+00 0. -1.
        -14    1    6    6    0    0  0.20299466074E+02 -0.60673271934E+02 -0.22750495262E+03  0.23632989171E+03  0.00000000000E+00 0.  1.
         -5    1    5    5    0  503  0.79736736623E+01  0.29135520863E+01  0.20816722628E+02  0.22967241854E+02  0.47000000000E+01 0.  1.
<mgrwt>
<rscale>  2 0.18207022E+03</rscale>
<asrwt>0</asrwt>
<pdfrwt beam="1">  1       21 0.87477540E-02 0.18436198E+03</pdfrwt>
<pdfrwt beam="2">  1       21 0.89038085E-01 0.18436198E+03</pdfrwt>
<totfact> 0.11093314E+05</totfact>
</mgrwt>
</event>
<event>
12    1  0.2769346E-001  0.2567382E+03  0.7546771E-02  0.1109661E+00
         21   -1    0    0  504  503  0.00000000000E+00  0.00000000000E+00  0.22582603372E+04  0.22582603372E+04  0.00000000000E+00 0.  1.
         21   -1    0    0  502  504 -0.00000000000E+00 -0.00000000000E+00 -0.44605582864E+02  0.44605582864E+02  0.00000000000E+00 0. -1.
          6    2    1    2  502    0  0.79211997088E+02  0.16571334363E+03  0.17875286996E+04  0.18053743084E+04  0.17430458644E+03 0.  0.
         24    2    3    3    0    0  0.57291721631E+02  0.31104298980E+02  0.10692141806E+04  0.10742122665E+04  0.80394095888E+02 0.  0.
         -6    2    1    2    0  503 -0.79211997088E+02 -0.16571334363E+03  0.42612605473E+03  0.49749161164E+03  0.17938516214E+03 0.  0.
        -24    2    5    5    0    0 -0.41219513582E+02 -0.18000401557E+03  0.39356519150E+03  0.44524266982E+03  0.96161224760E+02 0.  0.
          2    1    4    4  501    0  0.51781633464E+02  0.29234123293E+02  0.35292598357E+03  0.35790043505E+03  0.00000000000E+00 0. -1.
         -1    1    4    4    0  501  0.55100881672E+01  0.18701756869E+01  0.71628819703E+03  0.71631183142E+03  0.00000000000E+00 0.  1.
          5    1    3    3  502    0  0.21920275457E+02  0.13460904465E+03  0.71831451897E+03  0.73116204192E+03  0.47000000000E+01 0. -1.
         13    1    6    6    0    0 -0.42208434693E+02 -0.31136089174E+02  0.58359677001E+02  0.78465660693E+02  0.00000000000E+00 0. -1.
        -14    1    6    6    0    0  0.98892111040E+00 -0.14886792639E+03  0.33520551450E+03  0.36677700913E+03  0.00000000000E+00 0.  1.
         -5    1    5    5    0  503 -0.37992483506E+02  0.14290671937E+02  0.32560863229E+02  0.52248941822E+02  0.47000000000E+01 0.  1.
<mgrwt>
<rscale>  2 0.25585266E+03</rscale>
<asrwt>0</asrwt>
<pdfrwt beam="1">  1       21 0.34742458E+00 0.25673817E+03</pdfrwt>
<pdfrwt beam="2">  1       21 0.68623991E-02 0.25673817E+03</pdfrwt>
<totfact> 0.26320553E+03</totfact>
</mgrwt>
</event>
<event>
12    1  0.2769346E-001  0.2457509E+03  0.7546771E-02  0.1116085E+00
         21   -1    0    0  504  503  0.00000000000E+00  0.00000000000E+00  0.38353560881E+03  0.38353560881E+03  0.00000000000E+00 0. -1.
         21   -1    0    0  502  504 -0.00000000000E+00 -0.00000000000E+00 -0.21326890252E+03  0.21326890252E+03  0.00000000000E+00 0. -1.
          6    2    1    2  502    0  0.13248722144E+03 -0.11252887645E+03 -0.67806922965E+02  0.25493389177E+03  0.17371787038E+03 0.  0.
         24    2    3    3    0    0  0.12736606930E+02 -0.43219602659E+02 -0.71395657105E+02  0.11644579076E+03  0.80200543147E+02 0.  0.
         -6    2    1    2    0  503 -0.13248722144E+03  0.11252887645E+03  0.23807362925E+03  0.34187061955E+03  0.17314980707E+03 0.  0.
        -24    2    5    5    0    0 -0.84984838749E+02  0.12488318779E+03  0.23740794419E+03  0.29255897279E+03  0.80062395568E+02 0.  0.
          2    1    4    4  501    0  0.29623577315E+02  0.11071227513E+02 -0.10962606623E+02  0.33470989761E+02  0.00000000000E+00 0. -1.
         -1    1    4    4    0  501 -0.16886970385E+02 -0.54290830172E+02 -0.60433050482E+02  0.82974800995E+02  0.00000000000E+00 0.  1.
          5    1    3    3  502    0  0.11975061451E+03 -0.69309273790E+02  0.35887341403E+01  0.13848810101E+03  0.47000000000E+01 0. -1.
         13    1    6    6    0    0 -0.98171083709E+02  0.11187085157E+03  0.18795071854E+03  0.23974595243E+03  0.00000000000E+00 0. -1.
        -14    1    6    6    0    0  0.13186244960E+02  0.13012336220E+02  0.49457225654E+02  0.52813020359E+02  0.00000000000E+00 0.  1.
         -5    1    5    5    0  503 -0.47502382694E+02 -0.12354311341E+02  0.66568506245E+00  0.49311646767E+02  0.47000000000E+01 0.  1.
<mgrwt>
<rscale>  2 0.24565054E+03</rscale>
<asrwt>0</asrwt>
<pdfrwt beam="1">  1       21 0.59005478E-01 0.24575091E+03</pdfrwt>
<pdfrwt beam="2">  1       21 0.32810600E-01 0.24575091E+03</pdfrwt>
<totfact> 0.23342930E+04</totfact>
</mgrwt>
</event>
<event>
12    1  0.2769346E-001  0.2721908E+03  0.7546771E-02  0.1100172E+00
         21   -1    0    0  504  503  0.00000000000E+00  0.00000000000E+00  0.12973172857E+04  0.12973172857E+04  0.00000000000E+00 0. -1.
         21   -1    0    0  502  504 -0.00000000000E+00 -0.00000000000E+00 -0.57214752760E+02  0.57214752760E+02  0.00000000000E+00 0. -1.
          6    2    1    2  502    0 -0.19870670772E+03  0.69687665489E+02  0.66898555573E+03  0.72186907112E+03  0.17091680915E+03 0.  0.
         24    2    3    3    0    0 -0.17357101180E+03  0.75486165369E+02  0.66406894553E+03  0.69519157375E+03  0.80490387595E+02 0.  0.
         -6    2    1    2    0  503  0.19870670772E+03 -0.69687665489E+02  0.57111697720E+03  0.63266296733E+03  0.17247348251E+03 0.  0.
        -24    2    5    5    0    0  0.20711822773E+03 -0.96786630750E+02  0.52570040489E+03  0.57890552480E+03  0.80654068649E+02 0.  0.
          4    1    4    4  501    0 -0.18160742245E+03  0.67503320830E+02  0.61335716449E+03  0.64323010303E+03  0.00000000000E+00 0. -1.
         -3    1    4    4    0  501  0.80364106512E+01  0.79828445389E+01  0.50711781038E+02  0.51961470718E+02  0.00000000000E+00 0.  1.
          5    1    3    3  502    0 -0.25135695920E+02 -0.57984998798E+01  0.49166102028E+01  0.26677497374E+02  0.47000000000E+01 0. -1.
         13    1    6    6    0    0  0.10486013887E+03 -0.23050498968E+02  0.32119218459E+03  0.33866117827E+03  0.00000000000E+00 0. -1.
        -14    1    6    6    0    0  0.10225808886E+03 -0.73736131782E+02  0.20450822030E+03  0.24024434653E+03  0.00000000000E+00 0.  1.
         -5    1    5    5    0  503 -0.84115200126E+01  0.27098965261E+02  0.45416572310E+02  0.53757442531E+02  0.47000000000E+01 0.  1.
<mgrwt>
<rscale>  2 0.27194453E+03</rscale>
<asrwt>0</asrwt>
<pdfrwt beam="1">  1       21 0.19958725E+00 0.27219079E+03</pdfrwt>
<pdfrwt beam="2">  1       21 0.88022706E-02 0.27219079E+03</pdfrwt>
<totfact> 0.12980780E+04</totfact>
</mgrwt>
</event>
<event>
12    1  0.2769346E-001  0.1838994E+03  0.7546771E-02  0.1164318E+00
         21   -1    0    0  504  503  0.00000000000E+00  0.00000000000E+00  0.10782164437E+03  0.10782164437E+03  0.00000000000E+00 0.  1.
         21   -1    0    0  502  504 -0.00000000000E+00 -0.00000000000E+00 -0.46497454856E+03  0.46497454856E+03  0.00000000000E+00 0.  1.
          6    2    1    2  502    0 -0.42662365340E+02 -0.43037805343E+02 -0.34254716003E+03  0.38831771532E+03  0.17256813461E+03 0.  0.
         24    2    3    3    0    0 -0.26481276131E+02 -0.59100195956E+02 -0.34883845790E+03  0.36420343596E+03  0.82230054773E+02 0.  0.
         -6    2    1    2    0  503  0.42662365340E+02  0.43037805343E+02 -0.14605744161E+02  0.18447847761E+03  0.17362790914E+03 0.  0.
        -24    2    5    5    0    0  0.22617899911E+02  0.95269416186E+02 -0.13626925669E+02  0.12832716550E+03  0.81818929634E+02 0.  0.
          4    1    4    4  501    0 -0.37574075435E+02 -0.75809780539E+02 -0.28083253944E+03  0.29330163515E+03  0.00000000000E+00 0. -1.
         -3    1    4    4    0  501  0.11092799304E+02  0.16709584584E+02 -0.68005918459E+02  0.70901800815E+02  0.00000000000E+00 0.  1.
          5    1    3    3  502    0 -0.16181089210E+02  0.16062390612E+02  0.62912978699E+01  0.24114279361E+02  0.47000000000E+01 0. -1.
         11    1    6    6    0    0  0.52692345986E+02  0.50200125142E+02 -0.14413380489E+01  0.72791574685E+02  0.00000000000E+00 0. -1.
        -12    1    6    6    0    0 -0.30074446076E+02  0.45069291044E+02 -0.12185587620E+02  0.55535590819E+02  0.00000000000E+00 0.  1.
         -5    1    5    5    0  503  0.20044465430E+02 -0.52231610842E+02 -0.97881849157E+00  0.56151312106E+02  0.47000000000E+01 0.  1.
<mgrwt>
<rscale>  2 0.18364880E+03</rscale>
<asrwt>0</asrwt>
<pdfrwt beam="1">  1       21 0.16587945E-01 0.18389938E+03</pdfrwt>
<pdfrwt beam="2">  1       21 0.71534546E-01 0.18389938E+03</pdfrwt>
<totfact> 0.57874404E+04</totfact>
</mgrwt>
</event>
<event>
12    1  0.2769346E-001  0.2096362E+03  0.7546771E-02  0.1142201E+00
         21   -1    0    0  504  503  0.00000000000E+00  0.00000000000E+00  0.76888963226E+03  0.76888963226E+03  0.00000000000E+00 0. -1.
         21   -1    0    0  502  504 -0.00000000000E+00 -0.00000000000E+00 -0.85689197521E+02  0.85689197521E+02  0.00000000000E+00 0. -1.
          6    2    1    2  502    0  0.13759439603E+02 -0.11457766099E+03  0.93943694794E+02  0.22972322832E+03  0.17501423160E+03 0.  0.
         24    2    3    3    0    0  0.33676434607E+02 -0.93783756487E+02  0.12750340476E+03  0.18525506794E+03  0.90182186409E+02 0.  0.
         -6    2    1    2    0  503 -0.13759439603E+02  0.11457766099E+03  0.58925673994E+03  0.62485560146E+03  0.17292673167E+03 0.  0.
        -24    2    5    5    0    0  0.16506137674E+01 -0.11936318636E+02  0.25345649995E+03  0.26565211043E+03  0.78648879078E+02 0.  0.
          2    1    4    4  501    0  0.29884123903E+02 -0.34155867376E+02  0.10489454315E+01  0.45395863515E+02  0.00000000000E+00 0. -1.
         -1    1    4    4    0  501  0.37923107033E+01 -0.59627889111E+02  0.12645445933E+03  0.13985920443E+03  0.00000000000E+00 0.  1.
          5    1    3    3  502    0 -0.19916995004E+02 -0.20793904507E+02 -0.33559709963E+02  0.44468160378E+02  0.47000000000E+01 0. -1.
         13    1    6    6    0    0 -0.25699773050E+02 -0.13515744355E+02  0.22219819280E+03  0.22408746186E+03  0.00000000000E+00 0. -1.
        -14    1    6    6    0    0  0.27350386818E+02  0.15794257191E+01  0.31258307154E+02  0.41564648571E+02  0.00000000000E+00 0.  1.
         -5    1    5    5    0  503 -0.15410053370E+02  0.12651397963E+03  0.33580023999E+03  0.35920349102E+03  0.47000000000E+01 0.  1.
<mgrwt>
<rscale>  2 0.20919997E+03</rscale>
<asrwt>0</asrwt>
<pdfrwt beam="1">  1       21 0.11829071E+00 0.20963622E+03</pdfrwt>
<pdfrwt beam="2">  1       21 0.13182954E-01 0.20963622E+03</pdfrwt>
<totfact> 0.26849726E+04</totfact>
</mgrwt>
</event>
<event>
12    1  0.2769346E-001  0.1753147E+03  0.7546771E-02  0.1173060E+00
         21   -1    0    0  504  503  0.00000000000E+00  0.00000000000E+00  0.13235058521E+03  0.13235058521E+03  0.00000000000E+00 0. -1.
         21   -1    0    0  502  504 -0.00000000000E+00 -0.00000000000E+00 -0.25330166348E+03  0.25330166348E+03  0.00000000000E+00 0. -1.
          6    2    1    2  502    0 -0.27602317765E+02 -0.40419521017E+01 -0.11997101534E+03  0.21033484855E+03  0.17049773802E+03 0.  0.
         24    2    3    3    0    0  0.41617424628E+02  0.94682448231E+01 -0.32339922375E+02  0.97750672878E+02  0.81778149748E+02 0.  0.
         -6    2    1    2    0  503  0.27602317765E+02  0.40419521017E+01 -0.98006293113E+00  0.17531740015E+03  0.17308092023E+03 0.  0.
        -24    2    5    5    0    0  0.51595511763E+02  0.37086702651E+02 -0.48285175649E+02  0.11264768987E+03  0.79501720091E+02 0.  0.
          4    1    4    4  501    0 -0.14961878967E+02  0.26978624751E+02 -0.21338916140E+02  0.37510709907E+02  0.00000000000E+00 0. -1.
         -3    1    4    4    0  501  0.56579303595E+02 -0.17510379928E+02 -0.11001006234E+02  0.60239962971E+02  0.00000000000E+00 0.  1.
          5    1    3    3  502    0 -0.69219742393E+02 -0.13510196925E+02 -0.87631092964E+02  0.11258417567E+03  0.47000000000E+01 0. -1.
         13    1    6    6    0    0  0.36781808066E+02 -0.87989573721E+01  0.78721583723E+01  0.38630220461E+02  0.00000000000E+00 0. -1.
        -14    1    6    6    0    0  0.14813703697E+02  0.45885660023E+02 -0.56157334021E+02  0.74017469407E+02  0.00000000000E+00 0.  1.
         -5    1    5    5    0  503 -0.23993193998E+02 -0.33044750549E+02  0.47305112718E+02  0.62669710278E+02  0.47000000000E+01 0.  1.
<mgrwt>
<rscale>  2 0.17467371E+03</rscale>
<asrwt>0</asrwt>
<pdfrwt beam="1">  1       21 0.20361629E-01 0.17531466E+03</pdfrwt>
<pdfrwt beam="2">  1       21 0.38969487E-01 0.17531466E+03</pdfrwt>
<totfact> 0.14254386E+05</totfact>
</mgrwt>
</event>
<event>
12    1  0.2769346E-001  0.1836504E+03  0.7546771E-02  0.1164783E+00
         21   -1    0    0  504  503  0.00000000000E+00  0.00000000000E+00  0.28356596297E+03  0.28356596297E+03  0.00000000000E+00 0. -1.
         21   -1    0    0  502  504 -0.00000000000E+00 -0.00000000000E+00 -0.11845043331E+03  0.11845043331E+03  0.00000000000E+00 0. -1.
          6    2    1    2  502    0  0.30120738917E+02 -0.51430577154E+02  0.65776467229E+02  0.19322049451E+03  0.17162532645E+03 0.  0.
         24    2    3    3    0    0  0.29388456562E+02 -0.12792020143E+02  0.10645128117E+03  0.13691769872E+03  0.79920359117E+02 0.  0.
         -6    2    1    2    0  503 -0.30120738917E+02  0.51430577154E+02  0.99339062429E+02  0.20879590177E+03  0.17370986182E+03 0.  0.
        -24    2    5    5    0    0  0.46756576691E+02  0.43278686699E+02  0.77379576800E+02  0.12829196409E+03  0.80075008327E+02 0.  0.
          2    1    4    4  501    0  0.30947603777E+02  0.29429126110E+02  0.64663268725E+02  0.77493005913E+02  0.00000000000E+00 0. -1.
         -1    1    4    4    0  501 -0.15591472152E+01 -0.42221146254E+02  0.41788012441E+02  0.59424692804E+02  0.00000000000E+00 0.  1.
          5    1    3    3  502    0  0.73228235483E+00 -0.38638557011E+02 -0.40674813938E+02  0.56302795794E+02  0.47000000000E+01 0. -1.
         11    1    6    6    0    0 -0.17881050332E+02  0.31219360729E+02  0.20869540750E+02  0.41592285059E+02  0.00000000000E+00 0. -1.
        -12    1    6    6    0    0  0.64637627023E+02  0.12059325970E+02  0.56510036051E+02  0.86699679033E+02  0.00000000000E+00 0.  1.
         -5    1    5    5    0  503 -0.76877315608E+02  0.81518904559E+01  0.21959485628E+02  0.80503937681E+02  0.47000000000E+01 0.  1.
<mgrwt>
<rscale>  2 0.18315582E+03</rscale>
<asrwt>0</asrwt>
<pdfrwt beam="1">  1       21 0.43625533E-01 0.18365043E+03</pdfrwt>
<pdfrwt beam="2">  1       21 0.18223144E-01 0.18365043E+03</pdfrwt>
<totfact> 0.13899245E+05</totfact>
</mgrwt>
</event>
<event>
12    1  0.2769346E-001  0.2080777E+03  0.7546771E-02  0.1143476E+00
         21   -1    0    0  504  503  0.00000000000E+00  0.00000000000E+00  0.43557613471E+03  0.43557613471E+03  0.00000000000E+00 0.  1.
         21   -1    0    0  502  504 -0.00000000000E+00 -0.00000000000E+00 -0.98822972258E+02  0.98822972258E+02  0.00000000000E+00 0.  1.
          6    2    1    2  502    0  0.89220716982E-01  0.11301642873E+03  0.18278270180E+03  0.27554928451E+03  0.17246788396E+03 0.  0.
         24    2    3    3    0    0  0.37236710405E+02  0.94712888592E+02  0.54987590533E+02  0.14112965784E+03  0.80850734955E+02 0.  0.
         -6    2    1    2    0  503 -0.89220716982E-01 -0.11301642873E+03  0.15397046066E+03  0.25884982246E+03  0.17471006470E+03 0.  0.
        -24    2    5    5    0    0  0.57198677912E+02 -0.81117278362E+02  0.41896394131E+02  0.12891851171E+03  0.70802353195E+02 0.  0.
          4    1    4    4  501    0  0.59883635020E+02  0.61617009427E+02  0.53050036349E+02  0.10098025525E+03  0.00000000000E+00 0. -1.
         -3    1    4    4    0  501 -0.22646924615E+02  0.33095879166E+02  0.19375541844E+01  0.40149402592E+02  0.00000000000E+00 0.  1.
          5    1    3    3  502    0 -0.37147489688E+02  0.18303540136E+02  0.12779511126E+03  0.13441962667E+03  0.47000000000E+01 0. -1.
         13    1    6    6    0    0 -0.88128352759E+01  0.59720697842E+01  0.11105095823E+02  0.15383589840E+02  0.00000000000E+00 0. -1.
        -14    1    6    6    0    0  0.66011513188E+02 -0.87089348146E+02  0.30791298307E+02  0.11353492188E+03  0.00000000000E+00 0.  1.
         -5    1    5    5    0  503 -0.57287898629E+02 -0.31899150366E+02  0.11207406653E+03  0.12993131074E+03  0.47000000000E+01 0.  1.
<mgrwt>
<rscale>  2 0.20760634E+03</rscale>
<asrwt>0</asrwt>
<pdfrwt beam="1">  1       21 0.67011712E-01 0.20807770E+03</pdfrwt>
<pdfrwt beam="2">  1       21 0.15203534E-01 0.20807770E+03</pdfrwt>
<totfact> 0.77528832E+04</totfact>
</mgrwt>
</event>
<event>
12    1  0.2769346E-001  0.1836605E+03  0.7546771E-02  0.1164411E+00
         21   -1    0    0  504  503  0.00000000000E+00  0.00000000000E+00  0.13654749445E+04  0.13654749445E+04  0.00000000000E+00 0.  1.
         21   -1    0    0  502  504 -0.00000000000E+00 -0.00000000000E+00 -0.39771928207E+02  0.39771928207E+02  0.00000000000E+00 0.  1.
          6    2    1    2  502    0  0.52540429634E+02 -0.26791338198E+02  0.22902010556E+03  0.29329157554E+03  0.17346892224E+03 0.  0.
         24    2    3    3    0    0  0.55497083488E+02  0.46464842485E+02  0.12689317971E+03  0.16748534043E+03  0.81917961023E+02 0.  0.
         -6    2    1    2    0  503 -0.52540429634E+02  0.26791338198E+02  0.10966829108E+04  0.11119552972E+04  0.17393361853E+03 0.  0.
        -24    2    5    5    0    0 -0.50877418725E+02  0.72483555961E+02  0.52480700756E+03  0.53823525830E+03  0.80202371972E+02 0.  0.
          2    1    4    4  501    0 -0.37167484938E+00  0.47444796458E+02  0.86080219010E+02  0.98290136626E+02  0.00000000000E+00 0. -1.
         -1    1    4    4    0  501  0.55868758337E+02 -0.97995397358E+00  0.40812960700E+02  0.69195203801E+02  0.00000000000E+00 0.  1.
          5    1    3    3  502    0 -0.29566538538E+01 -0.73256180682E+02  0.10212692585E+03  0.12580623512E+03  0.47000000000E+01 0. -1.
         11    1    6    6    0    0 -0.17707560153E+02  0.79793470938E+02  0.30246963092E+03  0.31331842161E+03  0.00000000000E+00 0. -1.
        -12    1    6    6    0    0 -0.33169858572E+02 -0.73099149778E+01  0.22233737664E+03  0.22491683669E+03  0.00000000000E+00 0.  1.
         -5    1    5    5    0  503 -0.16630109089E+01 -0.45692217763E+02  0.57187590320E+03  0.57372003890E+03  0.47000000000E+01 0.  1.
<mgrwt>
<rscale>  2 0.18355039E+03</rscale>
<asrwt>0</asrwt>
<pdfrwt beam="1">  1       21 0.21007303E+00 0.18366049E+03</pdfrwt>
<pdfrwt beam="2">  1       21 0.61187592E-02 0.18366049E+03</pdfrwt>
<totfact> 0.22257142E+04</totfact>
</mgrwt>
</event>
<event>
12    1  0.2769346E-001  0.1828910E+03  0.7546771E-02  0.1165042E+00
         21   -1    0    0  504  503  0.00000000000E+00  0.00000000000E+00  0.60617220844E+02  0.60617220844E+02  0.00000000000E+00 0. -1.
         21   -1    0    0  502  504 -0.00000000000E+00 -0.00000000000E+00 -0.85690562585E+03  0.85690562585E+03  0.00000000000E+00 0. -1.
          6    2    1    2  502    0 -0.58262218245E+02 -0.13028699626E+02 -0.67190561855E+03  0.69634376786E+03  0.17283879689E+03 0.  0.
         24    2    3    3    0    0 -0.23676311964E+02  0.55843835552E+02 -0.29771470725E+03  0.31426977095E+03  0.80326460789E+02 0.  0.
         -6    2    1    2    0  503  0.58262218245E+02  0.13028699626E+02 -0.12438278645E+03  0.22117907883E+03  0.17287242191E+03 0.  0.
        -24    2    5    5    0    0  0.41673223562E+02 -0.27557475241E+02 -0.14419104229E+03  0.17283769559E+03  0.81152574429E+02 0.  0.
          2    1    4    4  501    0 -0.37559736732E+02  0.69568640776E+02 -0.20951637583E+03  0.22393669049E+03  0.00000000000E+00 0. -1.
         -1    1    4    4    0  501  0.13883424769E+02 -0.13724805224E+02 -0.88198331418E+02  0.90333080467E+02  0.00000000000E+00 0.  1.
          5    1    3    3  502    0 -0.34585906281E+02 -0.68872535178E+02 -0.37419091130E+03  0.38207399691E+03  0.47000000000E+01 0. -1.
         13    1    6    6    0    0  0.46514397195E+02 -0.15772048939E+02 -0.29194009675E+02  0.57137000928E+02  0.00000000000E+00 0. -1.
        -14    1    6    6    0    0 -0.48411736321E+01 -0.11785426302E+02 -0.11499703261E+03  0.11570069466E+03  0.00000000000E+00 0.  1.
         -5    1    5    5    0  503  0.16588994682E+02  0.40586174867E+02  0.19808255833E+02  0.48341383245E+02  0.47000000000E+01 0.  1.
<mgrwt>
<rscale>  2 0.18288302E+03</rscale>
<asrwt>0</asrwt>
<pdfrwt beam="1">  1       21 0.93257274E-02 0.18289097E+03</pdfrwt>
<pdfrwt beam="2">  1       21 0.13183162E+00 0.18289097E+03</pdfrwt>
<totfact> 0.38501376E+04</totfact>
</mgrwt>
</event>
<event>
12    1  0.2769346E-001  0.1766135E+03  0.7546771E-02  0.1171884E+00
         21   -1    0    0  504  503  0.00000000000E+00  0.00000000000E+00  0.35820591094E+02  0.35820591094E+02  0.00000000000E+00 0.  1.
         21   -1    0    0  502  504 -0.00000000000E+00 -0.00000000000E+00 -0.15885241063E+04  0.15885241063E+04  0.00000000000E+00 0.  1.
          6    2    1    2  502    0 -0.86325235578E+01 -0.11076400136E+02 -0.13315671449E+04  0.13432287157E+04  0.17605429373E+03 0.  0.
         24    2    3    3    0    0 -0.27093737884E+02  0.12166382085E+02 -0.12826442923E+04  0.12858128741E+04  0.85183773638E+02 0.  0.
         -6    2    1    2    0  503  0.86325235578E+01  0.11076400136E+02 -0.22113637036E+03  0.28111598169E+03  0.17299622472E+03 0.  0.
        -24    2    5    5    0    0  0.21279692264E+02 -0.42400213657E+02 -0.33327266668E+02  0.85376234765E+02  0.62672093775E+02 0.  0.
          4    1    4    4  501    0 -0.41014531777E+02  0.17337359230E+02 -0.32312743314E+03  0.32618110597E+03  0.00000000000E+00 0. -1.
         -3    1    4    4    0  501  0.13920793893E+02 -0.51709771444E+01 -0.95951685911E+03  0.95963176814E+03  0.00000000000E+00 0.  1.
          5    1    3    3  502    0  0.18461214326E+02 -0.23242782221E+02 -0.48922852609E+02  0.57415841605E+02  0.47000000000E+01 0. -1.
         13    1    6    6    0    0 -0.14388193930E+02 -0.21943590081E+02 -0.35565242022E+02  0.44197598467E+02  0.00000000000E+00 0. -1.
        -14    1    6    6    0    0  0.35667886194E+02 -0.20456623576E+02  0.22379753542E+01  0.41178636298E+02  0.00000000000E+00 0.  1.
         -5    1    5    5    0  503 -0.12647168707E+02  0.53476613793E+02 -0.18780910369E+03  0.19573974693E+03  0.47000000000E+01 0.  1.
<mgrwt>
<rscale>  2 0.17584644E+03</rscale>
<asrwt>0</asrwt>
<pdfrwt beam="1">  1       21 0.55108611E-02 0.17661348E+03</pdfrwt>
<pdfrwt beam="2">  1       21 0.24438828E+00 0.17661348E+03</pdfrwt>
<totfact> 0.16601071E+04</totfact>
</mgrwt>
</event>
<event>
12    1  0.2769346E-001  0.2391556E+03  0.7546771E-02  0.1121021E+00
         21   -1    0    0  504  503  0.00000000000E+00  0.00000000000E+00  0.31315558218E+03  0.31315558218E+03  0.00000000000E+00 0. -1.
         21   -1    0    0  502  504 -0.00000000000E+00 -0.00000000000E+00 -0.22071464863E+03  0.22071464863E+03  0.00000000000E+00 0.  1.
          6    2    1    2  502    0  0.11893660124E+03 -0.11407607809E+03 -0.69229973239E+02  0.24519591588E+03  0.16783617388E+03 0.  0.
         24    2    3    3    0    0  0.12487792464E+03 -0.13218974546E+03 -0.88441122348E+02  0.21772661448E+03  0.80711967264E+02 0.  0.
         -6    2    1    2    0  503 -0.11893660124E+03  0.11407607809E+03  0.16167090679E+03  0.28867431493E+03  0.17330929373E+03 0.  0.
        -24    2    5    5    0    0 -0.13520557532E+03  0.13188046943E+03  0.11281237489E+03  0.23398499232E+03  0.79682738961E+02 0.  0.
          4    1    4    4  501    0  0.87114744021E+02 -0.35591827875E+02 -0.53683578671E+02  0.10834059007E+03  0.00000000000E+00 0. -1.
         -3    1    4    4    0  501  0.37763180623E+02 -0.96597917589E+02 -0.34757543677E+02  0.10938602441E+03  0.00000000000E+00 0.  1.
          5    1    3    3  502    0 -0.59413234053E+01  0.18113667371E+02  0.19211149109E+02  0.27469301402E+02  0.47000000000E+01 0. -1.
         11    1    6    6    0    0 -0.81299696376E+02  0.10279913647E+03  0.11251582904E+03  0.17273423191E+03  0.00000000000E+00 0. -1.
        -12    1    6    6    0    0 -0.53905878943E+02  0.29081332969E+02  0.29654585259E+00  0.61250760414E+02  0.00000000000E+00 0.  1.
         -5    1    5    5    0  503  0.16268974080E+02 -0.17804391341E+02  0.48858531895E+02  0.54689322610E+02  0.47000000000E+01 0.  1.
<mgrwt>
<rscale>  2 0.23816543E+03</rscale>
<asrwt>0</asrwt>
<pdfrwt beam="1">  1       21 0.48177782E-01 0.23915555E+03</pdfrwt>
<pdfrwt beam="2">  1       21 0.33956100E-01 0.23915555E+03</pdfrwt>
<totfact> 0.33605192E+04</totfact>
</mgrwt>
</event>
<event>
12    1  0.2769346E-001  0.1930067E+03  0.7546771E-02  0.1156209E+00
         21   -1    0    0  504  503  0.00000000000E+00  0.00000000000E+00  0.15395382928E+03  0.15395382928E+03  0.00000000000E+00 0.  1.
         21   -1    0    0  502  504 -0.00000000000E+00 -0.00000000000E+00 -0.46214102093E+03  0.46214102093E+03  0.00000000000E+00 0.  1.
          6    2    1    2  502    0 -0.56380076076E+02  0.59202449385E+02 -0.36748346163E+03  0.41418488912E+03  0.17268869335E+03 0.  0.
         24    2    3    3    0    0 -0.58110768553E+02  0.14573657465E+02 -0.35325231231E+03  0.36707501780E+03  0.79797366066E+02 0.  0.
         -6    2    1    2    0  503  0.56380076076E+02 -0.59202449385E+02  0.59296269981E+02  0.20190996109E+03  0.17483690046E+03 0.  0.
        -24    2    5    5    0    0 -0.11540902626E+02  0.17557927160E+02 -0.28461009157E+01  0.81955057002E+02  0.79164751236E+02 0.  0.
          2    1    4    4  501    0 -0.34859092722E+02 -0.31972102067E+02 -0.18574205747E+03  0.19167024696E+03  0.00000000000E+00 0. -1.
         -1    1    4    4    0  501 -0.23251675831E+02  0.46545759532E+02 -0.16751025483E+03  0.17540477084E+03  0.00000000000E+00 0.  1.
          5    1    3    3  502    0  0.17306924768E+01  0.44628791920E+02 -0.14231149326E+02  0.47109871320E+02  0.47000000000E+01 0. -1.
         13    1    6    6    0    0  0.72900439408E+01 -0.15358497490E+02 -0.30570068186E+02  0.34979383281E+02  0.00000000000E+00 0. -1.
        -14    1    6    6    0    0 -0.18830946567E+02  0.32916424650E+02  0.27723967270E+02  0.46975673721E+02  0.00000000000E+00 0.  1.
         -5    1    5    5    0  503  0.67920978703E+02 -0.76760376545E+02  0.62142370896E+02  0.11995490409E+03  0.47000000000E+01 0.  1.
<mgrwt>
<rscale>  2 0.19251890E+03</rscale>
<asrwt>0</asrwt>
<pdfrwt beam="1">  1       21 0.23685205E-01 0.19300670E+03</pdfrwt>
<pdfrwt beam="2">  1       21 0.71098617E-01 0.19300670E+03</pdfrwt>
<totfact> 0.30050973E+04</totfact>
</mgrwt>
</event>
<event>
12    1  0.2769346E-001  0.1963572E+03  0.7546771E-02  0.1152936E+00
         21   -1    0    0  504  503  0.00000000000E+00  0.00000000000E+00  0.55756739594E+03  0.55756739594E+03  0.00000000000E+00 0.  1.
         21   -1    0    0  502  504 -0.00000000000E+00 -0.00000000000E+00 -0.73729604648E+02  0.73729604648E+02  0.00000000000E+00 0. -1.
          6    2    1    2  502    0 -0.20256242771E+02  0.90614621135E+02  0.32200828012E+03  0.37715446101E+03  0.17301684906E+03 0.  0.
         24    2    3    3    0    0  0.36989028713E+01  0.52276354711E+02  0.31712953926E+03  0.33144271430E+03  0.80849422047E+02 0.  0.
         -6    2    1    2    0  503  0.20256242771E+02 -0.90614621135E+02  0.16182951117E+03  0.25414253958E+03  0.17256394410E+03 0.  0.
        -24    2    5    5    0    0 -0.45237911424E+02 -0.13815655796E+02  0.94866563655E+02  0.13292500103E+03  0.80200062498E+02 0.  0.
          2    1    4    4  501    0  0.20953252618E+02 -0.50403156731E+01  0.18663134710E+03  0.18787150742E+03  0.00000000000E+00 0. -1.
         -1    1    4    4    0  501 -0.17254349747E+02  0.57316670384E+02  0.13049819216E+03  0.14357120688E+03  0.00000000000E+00 0.  1.
          5    1    3    3  502    0 -0.23955145642E+02  0.38338266424E+02  0.48787408614E+01  0.45711746713E+02  0.47000000000E+01 0. -1.
         11    1    6    6    0    0 -0.82194309117E+01 -0.39974364466E+02  0.20102063901E+02  0.45492876718E+02  0.00000000000E+00 0. -1.
        -12    1    6    6    0    0 -0.37018480512E+02  0.26158708670E+02  0.74764499754E+02  0.87432124314E+02  0.00000000000E+00 0.  1.
         -5    1    5    5    0  503  0.65494154195E+02 -0.76798965339E+02  0.66962947517E+02  0.12121753855E+03  0.47000000000E+01 0.  1.
<mgrwt>
<rscale>  2 0.19625740E+03</rscale>
<asrwt>0</asrwt>
<pdfrwt beam="1">  1       21 0.85779597E-01 0.19635721E+03</pdfrwt>
<pdfrwt beam="2">  1       21 0.11343016E-01 0.19635721E+03</pdfrwt>
<totfact> 0.76017602E+04</totfact>
</mgrwt>
</event>
<event>
12    1  0.2769346E-001  0.1805883E+03  0.7546771E-02  0.1168190E+00
         21   -1    0    0  504  503  0.00000000000E+00  0.00000000000E+00  0.16351812445E+03  0.16351812445E+03  0.00000000000E+00 0.  1.
         21   -1    0    0  502  504 -0.00000000000E+00 -0.00000000000E+00 -0.39526395182E+03  0.39526395182E+03  0.00000000000E+00 0.  1.
          6    2    1    2  502    0 -0.17292489314E+02  0.49714105694E+02 -0.31529587480E+03  0.36335053818E+03  0.17274722121E+03 0.  0.
         24    2    3    3    0    0 -0.21290571985E+02  0.10016493271E+03 -0.23184601713E+03  0.26564056245E+03  0.79536347414E+02 0.  0.
         -6    2    1    2    0  503  0.17292489314E+02 -0.49714105694E+02  0.83550047436E+02  0.19543153809E+03  0.16864860854E+03 0.  0.
        -24    2    5    5    0    0 -0.44583232863E+02 -0.56662489783E+02  0.75607246394E+02  0.13248661673E+03  0.81473587777E+02 0.  0.
          2    1    4    4  501    0  0.69800692471E+01  0.80749007819E+02 -0.20969415022E+03  0.22481272265E+03  0.00000000000E+00 0. -1.
         -1    1    4    4    0  501 -0.28270641232E+02  0.19415924888E+02 -0.22151866913E+02  0.40827839799E+02  0.00000000000E+00 0.  1.
          5    1    3    3  502    0  0.39980826710E+01 -0.50450827013E+02 -0.83449857669E+02  0.97709975726E+02  0.47000000000E+01 0. -1.
         11    1    6    6    0    0 -0.23116322315E+02 -0.78666591829E+01 -0.14054568466E+02  0.28174094109E+02  0.00000000000E+00 0. -1.
        -12    1    6    6    0    0 -0.21466910548E+02 -0.48795830600E+02  0.89661814860E+02  0.10431252262E+03  0.00000000000E+00 0.  1.
         -5    1    5    5    0  503  0.61875722177E+02  0.69483840892E+01  0.79428010428E+01  0.62944921358E+02  0.47000000000E+01 0.  1.
<mgrwt>
<rscale>  2 0.17960106E+03</rscale>
<asrwt>0</asrwt>
<pdfrwt beam="1">  1       21 0.25156635E-01 0.18058827E+03</pdfrwt>
<pdfrwt beam="2">  1       21 0.60809838E-01 0.18058827E+03</pdfrwt>
<totfact> 0.37914156E+04</totfact>
</mgrwt>
</event>
<event>
12    1  0.2769346E-001  0.1974231E+03  0.7546771E-02  0.1152437E+00
         21   -1    0    0  504  503  0.00000000000E+00  0.00000000000E+00  0.25499193240E+02  0.25499193240E+02  0.00000000000E+00 0. -1.
         21   -1    0    0  502  504 -0.00000000000E+00 -0.00000000000E+00 -0.15141441610E+04  0.15141441610E+04  0.00000000000E+00 0. -1.
          6    2    1    2  502    0  0.46249754913E+02  0.82412245424E+02 -0.70188396237E+03  0.72849061446E+03  0.17066534710E+03 0.  0.
         24    2    3    3    0    0  0.66045372105E+02  0.46551633508E+01 -0.27220710258E+03  0.29136097224E+03  0.80067769580E+02 0.  0.
         -6    2    1    2    0  503 -0.46249754913E+02 -0.82412245424E+02 -0.78676100543E+03  0.81115273982E+03  0.17333513673E+03 0.  0.
        -24    2    5    5    0    0 -0.83518123697E+02 -0.58783294009E+02 -0.71526613754E+03  0.72700486527E+03  0.80620555516E+02 0.  0.
          4    1    4    4  501    0  0.51754736192E+02  0.38151794673E+02 -0.13704158556E+03  0.15137538878E+03  0.00000000000E+00 0. -1.
         -3    1    4    4    0  501  0.14290635913E+02 -0.33496631322E+02 -0.13516551703E+03  0.13998558346E+03  0.00000000000E+00 0.  1.
          5    1    3    3  502    0 -0.19795617192E+02  0.77757082074E+02 -0.42967685978E+03  0.43712964222E+03  0.47000000000E+01 0. -1.
         11    1    6    6    0    0 -0.33198603419E+02 -0.25733111864E+02 -0.95595506149E+02  0.10441667066E+03  0.00000000000E+00 0. -1.
        -12    1    6    6    0    0 -0.50319520278E+02 -0.33050182145E+02 -0.61967063139E+03  0.62258819461E+03  0.00000000000E+00 0.  1.
         -5    1    5    5    0  503  0.37268368785E+02 -0.23628951415E+02 -0.71494867895E+02  0.84147874555E+02  0.47000000000E+01 0.  1.
<mgrwt>
<rscale>  2 0.19683554E+03</rscale>
<asrwt>0</asrwt>
<pdfrwt beam="1">  1       21 0.39229519E-02 0.19742312E+03</pdfrwt>
<pdfrwt beam="2">  1       21 0.23294531E+00 0.19742312E+03</pdfrwt>
<totfact> 0.33862644E+04</totfact>
</mgrwt>
</event>
<event>
12    1  0.2769346E-001  0.2055469E+03  0.7546771E-02  0.1145236E+00
         21   -1    0    0  504  503  0.00000000000E+00  0.00000000000E+00  0.25662873465E+03  0.25662873465E+03  0.00000000000E+00 0.  1.
         21   -1    0    0  502  504 -0.00000000000E+00 -0.00000000000E+00 -0.17202829490E+03  0.17202829490E+03  0.00000000000E+00 0. -1.
          6    2    1    2  502    0  0.49112558439E+02  0.99529922647E+02 -0.32806959360E+01  0.20511148052E+03  0.17245784289E+03 0.  0.
         24    2    3    3    0    0  0.82990131832E+02  0.11743065923E+03 -0.10323296287E+02  0.16587100946E+03  0.82032308413E+02 0.  0.
         -6    2    1    2    0  503 -0.49112558439E+02 -0.99529922647E+02  0.87881135690E+02  0.22354554904E+03  0.17300655937E+03 0.  0.
        -24    2    5    5    0    0 -0.80231003683E+02 -0.26233723475E+02  0.24152012060E+02  0.12144666733E+03  0.83909183759E+02 0.  0.
          2    1    4    4  501    0  0.65954382111E+02  0.24140678640E+02 -0.10658662169E+02  0.71037736198E+02  0.00000000000E+00 0. -1.
         -1    1    4    4    0  501  0.17035749721E+02  0.93289980589E+02  0.33536588210E+00  0.94833273260E+02  0.00000000000E+00 0.  1.
          5    1    3    3  502    0 -0.33877573393E+02 -0.17900736582E+02  0.70426003511E+01  0.39240471058E+02  0.47000000000E+01 0. -1.
         11    1    6    6    0    0 -0.37297104654E+02 -0.52089847216E+02 -0.35829252047E+01  0.64165906458E+02  0.00000000000E+00 0. -1.
        -12    1    6    6    0    0 -0.42933899029E+02  0.25856123741E+02  0.27734937264E+02  0.57280760869E+02  0.00000000000E+00 0.  1.
         -5    1    5    5    0  503  0.31118445243E+02 -0.73296199172E+02  0.63729123631E+02  0.10209888171E+03  0.47000000000E+01 0.  1.
<mgrwt>
<rscale>  2 0.20543137E+03</rscale>
<asrwt>0</asrwt>
<pdfrwt beam="1">  1       21 0.39481344E-01 0.20554688E+03</pdfrwt>
<pdfrwt beam="2">  1       21 0.26465891E-01 0.20554688E+03</pdfrwt>
<totfact> 0.83532441E+04</totfact>
</mgrwt>
</event>
<event>
12    1  0.2769346E-001  0.1979794E+03  0.7546771E-02  0.1151568E+00
         21   -1    0    0  504  503  0.00000000000E+00  0.00000000000E+00  0.26930084391E+03  0.26930084391E+03  0.00000000000E+00 0. -1.
         21   -1    0    0  502  504 -0.00000000000E+00 -0.00000000000E+00 -0.18211460936E+03  0.18211460936E+03  0.00000000000E+00 0. -1.
          6    2    1    2  502    0  0.51733341305E+02 -0.80767114915E+02 -0.58033742089E+02  0.20630984283E+03  0.17319402580E+03 0.  0.
         24    2    3    3    0    0  0.93607235773E+02 -0.41242884694E+02 -0.68621443783E+02  0.14757503850E+03  0.81278529233E+02 0.  0.
         -6    2    1    2    0  503 -0.51733341305E+02  0.80767114915E+02  0.14521997663E+03  0.24510561044E+03  0.17259273797E+03 0.  0.
        -24    2    5    5    0    0 -0.98737063951E+02  0.51666713530E+02  0.78395206387E+02  0.15825042509E+03  0.80491810583E+02 0.  0.
          4    1    4    4  501    0  0.92111700822E+02 -0.59779676578E+02 -0.67601349818E+02  0.12895005877E+03  0.00000000000E+00 0. -1.
         -3    1    4    4    0  501  0.14955349518E+01  0.18536791885E+02 -0.10200939651E+01  0.18624979728E+02  0.00000000000E+00 0.  1.
          5    1    3    3  502    0 -0.41873894469E+02 -0.39524230222E+02  0.10587701694E+02  0.58734804330E+02  0.47000000000E+01 0. -1.
         13    1    6    6    0    0 -0.10838837061E+02  0.10201343918E+02  0.56765870471E+02  0.58684852022E+02  0.00000000000E+00 0. -1.
        -14    1    6    6    0    0 -0.87898226890E+02  0.41465369612E+02  0.21629335916E+02  0.99565573064E+02  0.00000000000E+00 0.  1.
         -5    1    5    5    0  503  0.47003722647E+02  0.29100401385E+02  0.66824770248E+02  0.86855185350E+02  0.47000000000E+01 0.  1.
<mgrwt>
<rscale>  2 0.19784780E+03</rscale>
<asrwt>0</asrwt>
<pdfrwt beam="1">  1       21 0.41430899E-01 0.19797938E+03</pdfrwt>
<pdfrwt beam="2">  1       21 0.28017632E-01 0.19797938E+03</pdfrwt>
<totfact> 0.68099253E+04</totfact>
</mgrwt>
</event>
<event>
12    1  0.2769346E-001  0.1760336E+03  0.7546771E-02  0.1171782E+00
         21   -1    0    0  504  503  0.00000000000E+00  0.00000000000E+00  0.69920531248E+02  0.69920531248E+02  0.00000000000E+00 0. -1.
         21   -1    0    0  502  504 -0.00000000000E+00 -0.00000000000E+00 -0.45799696096E+03  0.45799696096E+03  0.00000000000E+00 0. -1.
          6    2    1    2  502    0  0.33396164892E+02 -0.20946038807E+01 -0.24301803722E+03  0.30007600406E+03  0.17282404522E+03 0.  0.
         24    2    3    3    0    0  0.18516088179E+02  0.54787799710E+02 -0.10494854318E+03  0.14993507125E+03  0.90120920756E+02 0.  0.
         -6    2    1    2    0  503 -0.33396164892E+02  0.20946038807E+01 -0.14505839249E+03  0.22784148814E+03  0.17248221732E+03 0.  0.
        -24    2    5    5    0    0 -0.91429347595E+02  0.10201578747E+02 -0.78597851091E+02  0.13911343790E+03  0.68640575445E+02 0.  0.
          4    1    4    4  501    0 -0.13519654187E+02  0.69863002192E+02 -0.62979587108E+02  0.95026567427E+02  0.00000000000E+00 0. -1.
         -3    1    4    4    0  501  0.32035742366E+02 -0.15075202482E+02 -0.41968956072E+02  0.54908503828E+02  0.00000000000E+00 0.  1.
          5    1    3    3  502    0  0.14880076713E+02 -0.56882403591E+02 -0.13806949404E+03  0.15014093281E+03  0.47000000000E+01 0. -1.
         11    1    6    6    0    0 -0.21051450543E+02 -0.10955692137E+02  0.84511348610E+01  0.25191515250E+02  0.00000000000E+00 0. -1.
        -12    1    6    6    0    0 -0.70377897052E+02  0.21157270884E+02 -0.87048985952E+02  0.11392192265E+03  0.00000000000E+00 0.  1.
         -5    1    5    5    0  503  0.58033182704E+02 -0.81069748665E+01 -0.66460541399E+02  0.88728050239E+02  0.47000000000E+01 0.  1.
<mgrwt>
<rscale>  2 0.17594968E+03</rscale>
<asrwt>0</asrwt>
<pdfrwt beam="1">  1       21 0.10757005E-01 0.17603364E+03</pdfrwt>
<pdfrwt beam="2">  1       21 0.70461072E-01 0.17603364E+03</pdfrwt>
<totfact> 0.13100014E+05</totfact>
</mgrwt>
</event>
<event>
12    1  0.2769346E-001  0.2002645E+03  0.7546771E-02  0.1150003E+00
         21   -1    0    0  504  503  0.00000000000E+00  0.00000000000E+00  0.76406352779E+03  0.76406352779E+03  0.00000000000E+00 0.  1.
         21   -1    0    0  502  504 -0.00000000000E+00 -0.00000000000E+00 -0.72672273075E+02  0.72672273075E+02  0.00000000000E+00 0.  1.
          6    2    1    2  502    0  0.89197378827E+02 -0.47128437843E+02  0.12053906663E+03  0.23177457251E+03  0.17033063094E+03 0.  0.
         24    2    3    3    0    0 -0.17066174354E+02 -0.38471268239E+02  0.54927951808E+02  0.10649968394E+03  0.80955605127E+02 0.  0.
         -6    2    1    2    0  503 -0.89197378827E+02  0.47128437843E+02  0.57085218809E+03  0.60496122835E+03  0.17299885873E+03 0.  0.
        -24    2    5    5    0    0 -0.14633280966E+02 -0.15087084449E+02  0.13305697972E+03  0.15650018169E+03  0.79664257909E+02 0.  0.
          2    1    4    4  501    0 -0.29770439357E+02  0.14275390261E+02  0.36460576385E+02  0.49187797846E+02  0.00000000000E+00 0. -1.
         -1    1    4    4    0  501  0.12704265003E+02 -0.52746658500E+02  0.18467375424E+02  0.57311886090E+02  0.00000000000E+00 0.  1.
          5    1    3    3  502    0  0.10626355318E+03 -0.86571696045E+01  0.65611114820E+02  0.12527488858E+03  0.47000000000E+01 0. -1.
         13    1    6    6    0    0 -0.18237698990E+02 -0.21969823023E+02  0.14189114026E+03  0.14473556050E+03  0.00000000000E+00 0. -1.
        -14    1    6    6    0    0  0.36044180239E+01  0.68827385740E+01 -0.88341605355E+01  0.11764621198E+02  0.00000000000E+00 0.  1.
         -5    1    5    5    0  503 -0.74564097861E+02  0.62215522292E+02  0.43779520836E+03  0.44846104666E+03  0.47000000000E+01 0.  1.
<mgrwt>
<rscale>  2 0.19968690E+03</rscale>
<asrwt>0</asrwt>
<pdfrwt beam="1">  1       21 0.11754823E+00 0.20026449E+03</pdfrwt>
<pdfrwt beam="2">  1       21 0.11180350E-01 0.20026449E+03</pdfrwt>
<totfact> 0.36838740E+04</totfact>
</mgrwt>
</event>
<event>
12    1  0.2769346E-001  0.2202612E+03  0.7546771E-02  0.1133884E+00
         21   -1    0    0  504  503  0.00000000000E+00  0.00000000000E+00  0.26848294613E+03  0.26848294613E+03  0.00000000000E+00 0. -1.
         21   -1    0    0  502  504 -0.00000000000E+00 -0.00000000000E+00 -0.21698602783E+03  0.21698602783E+03  0.00000000000E+00 0. -1.
          6    2    1    2  502    0 -0.54093084800E+02  0.12363274941E+03 -0.74734704804E+02  0.23160005623E+03  0.17274892589E+03 0.  0.
         24    2    3    3    0    0  0.31391102331E+02  0.46315085023E+02 -0.70953019097E+01  0.97873670285E+02  0.79990147016E+02 0.  0.
         -6    2    1    2    0  503  0.54093084800E+02 -0.12363274941E+03  0.12623162311E+03  0.25386891772E+03  0.17408011421E+03 0.  0.
        -24    2    5    5    0    0  0.10224756863E+02 -0.98340276002E+00  0.85487481568E+02  0.11730586453E+03  0.79668335074E+02 0.  0.
          2    1    4    4  501    0  0.20643699900E+02  0.63374275298E+02 -0.24725679516E+02  0.71090226773E+02  0.00000000000E+00 0. -1.
         -1    1    4    4    0  501  0.10747402431E+02 -0.17059190275E+02  0.17630377606E+02  0.26783443512E+02  0.00000000000E+00 0.  1.
          5    1    3    3  502    0 -0.85484187132E+02  0.77317664382E+02 -0.67639402894E+02  0.13372638595E+03  0.47000000000E+01 0. -1.
         11    1    6    6    0    0  0.13053898464E+02 -0.31601741372E+02  0.78714705013E+02  0.85820039083E+02  0.00000000000E+00 0. -1.
        -12    1    6    6    0    0 -0.28291416004E+01  0.30618338612E+02  0.67727765544E+01  0.31485825443E+02  0.00000000000E+00 0.  1.
         -5    1    5    5    0  503  0.43868327937E+02 -0.12264934665E+03  0.40744141540E+02  0.13656305320E+03  0.47000000000E+01 0.  1.
<mgrwt>
<rscale>  2 0.21999811E+03</rscale>
<asrwt>0</asrwt>
<pdfrwt beam="1">  1       21 0.41305069E-01 0.22026122E+03</pdfrwt>
<pdfrwt beam="2">  1       21 0.33382466E-01 0.22026122E+03</pdfrwt>
<totfact> 0.48139672E+04</totfact>
</mgrwt>
</event>
<event>
12    1  0.2769346E-001  0.1793612E+03  0.7546771E-02  0.1168460E+00
         21   -1    0    0  504  503  0.00000000000E+00  0.00000000000E+00  0.52910636233E+03  0.52910636233E+03  0.00000000000E+00 0. -1.
         21   -1    0    0  502  504 -0.00000000000E+00 -0.00000000000E+00 -0.68769761417E+02  0.68769761417E+02  0.00000000000E+00 0. -1.
          6    2    1    2  502    0 -0.44319463790E+02  0.15257706094E+02  0.12816927035E+03  0.22044908073E+03  0.17312834218E+03 0.  0.
         24    2    3    3    0    0  0.36850451314E+02 -0.20335978170E+02  0.66171472663E+02  0.11218420925E+03  0.80219232360E+02 0.  0.
         -6    2    1    2    0  503  0.44319463790E+02 -0.15257706094E+02  0.33216733056E+03  0.37742704302E+03  0.17297116767E+03 0.  0.
        -24    2    5    5    0    0 -0.32315335157E+02 -0.34512080027E+02  0.12684539407E+03  0.15737520611E+03  0.80261054979E+02 0.  0.
          4    1    4    4  501    0  0.26300833169E+02  0.18205533739E+02  0.64726306909E+02  0.72198823329E+02  0.00000000000E+00 0. -1.
         -3    1    4    4    0  501  0.10549618145E+02 -0.38541511908E+02  0.14451657547E+01  0.39985385921E+02  0.00000000000E+00 0.  1.
          5    1    3    3  502    0 -0.81169915104E+02  0.35593684263E+02  0.61997797688E+02  0.10826487148E+03  0.47000000000E+01 0. -1.
         11    1    6    6    0    0  0.21850260522E+02 -0.31891513826E+02  0.58685630123E+02  0.70274502644E+02  0.00000000000E+00 0. -1.
        -12    1    6    6    0    0 -0.54165595679E+02 -0.26205662012E+01  0.68159763952E+02  0.87100703467E+02  0.00000000000E+00 0.  1.
         -5    1    5    5    0  503  0.76634798947E+02  0.19254373933E+02  0.20532193648E+03  0.22005183691E+03  0.47000000000E+01 0.  1.
<mgrwt>
<rscale>  2 0.17932325E+03</rscale>
<asrwt>0</asrwt>
<pdfrwt beam="1">  1       21 0.81400976E-01 0.17936119E+03</pdfrwt>
<pdfrwt beam="2">  1       21 0.10579964E-01 0.17936119E+03</pdfrwt>
<totfact> 0.97627655E+04</totfact>
</mgrwt>
</event>
<event>
12    1  0.2769346E-001  0.1800385E+03  0.7546771E-02  0.1172404E+00
         21   -1    0    0  504  503  0.00000000000E+00  0.00000000000E+00  0.19388533576E+03  0.19388533576E+03  0.00000000000E+00 0. -1.
         21   -1    0    0  502  504 -0.00000000000E+00 -0.00000000000E+00 -0.20863659253E+03  0.20863659253E+03  0.00000000000E+00 0. -1.
          6    2    1    2  502    0  0.46075710974E+02  0.26956684535E+02 -0.11353511995E+03  0.21284753071E+03  0.17194247260E+03 0.  0.
         24    2    3    3    0    0  0.35106735587E+02  0.69896774101E+02 -0.11643365572E+03  0.16818590040E+03  0.92799024748E+02 0.  0.
         -6    2    1    2    0  503 -0.46075710974E+02 -0.26956684535E+02  0.98783863178E+02  0.18967439757E+03  0.15286756192E+03 0.  0.
        -24    2    5    5    0    0 -0.55771871846E+02 -0.21407942286E+02  0.12924623852E+03  0.15688948659E+03  0.65885652076E+02 0.  0.
          4    1    4    4  501    0 -0.59304597711E+01  0.78612535211E+02 -0.83631262516E+02  0.11493167151E+03  0.00000000000E+00 0. -1.
         -3    1    4    4    0  501  0.41037195358E+02 -0.87157611098E+01 -0.32802393205E+02  0.53254228889E+02  0.00000000000E+00 0.  1.
          5    1    3    3  502    0  0.10968975387E+02 -0.42940089566E+02  0.28985357699E+01  0.44661630317E+02  0.47000000000E+01 0. -1.
         11    1    6    6    0    0 -0.49220972427E+01  0.20366367777E+02  0.47716116149E+02  0.52113757474E+02  0.00000000000E+00 0. -1.
        -12    1    6    6    0    0 -0.50849774604E+02 -0.41774310063E+02  0.81530122374E+02  0.10477572912E+03  0.00000000000E+00 0.  1.
         -5    1    5    5    0  503  0.96961608721E+01 -0.55487422491E+01 -0.30462375344E+02  0.32784910978E+02  0.47000000000E+01 0.  1.
<mgrwt>
<rscale>  2 0.17532715E+03</rscale>
<asrwt>0</asrwt>
<pdfrwt beam="1">  1       21 0.29828513E-01 0.18003846E+03</pdfrwt>
<pdfrwt beam="2">  1       21 0.32097937E-01 0.18003846E+03</pdfrwt>
<totfact> 0.10108003E+05</totfact>
</mgrwt>
</event>
<event>
12    1  0.2769346E-001  0.1836963E+03  0.7546771E-02  0.1164794E+00
         21   -1    0    0  504  503  0.00000000000E+00  0.00000000000E+00  0.27390743890E+02  0.27390743890E+02  0.00000000000E+00 0. -1.
         21   -1    0    0  502  504 -0.00000000000E+00 -0.00000000000E+00 -0.13991465059E+04  0.13991465059E+04  0.00000000000E+00 0.  1.
          6    2    1    2  502    0 -0.32510685848E+02  0.45248618514E+02 -0.93944616532E+03  0.95681825376E+03  0.17273589965E+03 0.  0.
         24    2    3    3    0    0  0.60160834282E+01  0.48752997597E+02 -0.26383910184E+03  0.28008818435E+03  0.80157790126E+02 0.  0.
         -6    2    1    2    0  503  0.32510685848E+02 -0.45248618514E+02 -0.43230959668E+03  0.46971899601E+03  0.17504275382E+03 0.  0.
        -24    2    5    5    0    0  0.27500941158E+02  0.17487252948E+02 -0.37258226867E+03  0.38282635639E+03  0.81709035234E+02 0.  0.
          2    1    4    4  501    0  0.38105345939E+01  0.74550418060E+01  0.38556713192E+01  0.92175931534E+01  0.00000000000E+00 0. -1.
         -1    1    4    4    0  501  0.22055488343E+01  0.41297955792E+02 -0.26769477316E+03  0.27087059119E+03  0.00000000000E+00 0.  1.
          5    1    3    3  502    0 -0.38526769276E+02 -0.35043790831E+01 -0.67560706348E+03  0.67673006941E+03  0.47000000000E+01 0. -1.
         13    1    6    6    0    0 -0.25917032955E+02 -0.92917145776E+01 -0.96450541971E+02  0.10030321831E+03  0.00000000000E+00 0. -1.
        -14    1    6    6    0    0  0.53417974113E+02  0.26778967526E+02 -0.27613172670E+03  0.28252313808E+03  0.00000000000E+00 0.  1.
         -5    1    5    5    0  503  0.50097446893E+01 -0.62735871463E+02 -0.59727328004E+02  0.86892639622E+02  0.47000000000E+01 0.  1.
<mgrwt>
<rscale>  2 0.18314466E+03</rscale>
<asrwt>0</asrwt>
<pdfrwt beam="1">  1       21 0.42139598E-02 0.18369635E+03</pdfrwt>
<pdfrwt beam="2">  1       21 0.21525335E+00 0.18369635E+03</pdfrwt>
<totfact> 0.38886925E+04</totfact>
</mgrwt>
</event>
<event>
12    1  0.2769346E-001  0.1923498E+03  0.7546771E-02  0.1156700E+00
         21   -1    0    0  504  503  0.00000000000E+00  0.00000000000E+00  0.16161340200E+03  0.16161340200E+03  0.00000000000E+00 0.  1.
         21   -1    0    0  502  504 -0.00000000000E+00 -0.00000000000E+00 -0.98160559561E+03  0.98160559561E+03  0.00000000000E+00 0.  1.
          6    2    1    2  502    0  0.36394361188E+02  0.71867942572E+02 -0.91151357372E+03  0.93158759182E+03  0.17466795778E+03 0.  0.
         24    2    3    3    0    0  0.30610935513E+02  0.29388483503E+02 -0.85327172471E+03  0.85911583573E+03  0.90590676568E+02 0.  0.
         -6    2    1    2    0  503 -0.36394361188E+02 -0.71867942572E+02  0.91521380104E+02  0.21163140578E+03  0.17298016708E+03 0.  0.
        -24    2    5    5    0    0 -0.31524093995E+01 -0.10034059374E+03  0.24703212648E+02  0.13161592775E+03  0.81451404436E+02 0.  0.
          4    1    4    4  501    0  0.27128052492E+02 -0.28556519836E+02 -0.25353631830E+03  0.25657761156E+03  0.00000000000E+00 0. -1.
         -3    1    4    4    0  501  0.34828830210E+01  0.57945003338E+02 -0.59973540641E+03  0.60253822418E+03  0.00000000000E+00 0.  1.
          5    1    3    3  502    0  0.57834256752E+01  0.42479459069E+02 -0.58241849004E+02  0.72471756090E+02  0.47000000000E+01 0. -1.
         13    1    6    6    0    0  0.31848525045E+02 -0.11627234509E+02  0.69285916972E+01  0.34605296022E+02  0.00000000000E+00 0. -1.
        -14    1    6    6    0    0 -0.35000934444E+02 -0.88713359230E+02  0.17774620951E+02  0.97010631725E+02  0.00000000000E+00 0.  1.
         -5    1    5    5    0  503 -0.33241951789E+02  0.28472651167E+02  0.66818167456E+02  0.80015478036E+02  0.47000000000E+01 0.  1.
<mgrwt>
<rscale>  2 0.19196582E+03</rscale>
<asrwt>0</asrwt>
<pdfrwt beam="1">  1       21 0.24863600E-01 0.19234980E+03</pdfrwt>
<pdfrwt beam="2">  1       21 0.15101625E+00 0.19234980E+03</pdfrwt>
<totfact> 0.44956259E+03</totfact>
</mgrwt>
</event>
<event>
12    1  0.2769346E-001  0.1797063E+03  0.7546771E-02  0.1168446E+00
         21   -1    0    0  504  503  0.00000000000E+00  0.00000000000E+00  0.10541131793E+03  0.10541131793E+03  0.00000000000E+00 0.  1.
         21   -1    0    0  502  504 -0.00000000000E+00 -0.00000000000E+00 -0.40091572951E+03  0.40091572951E+03  0.00000000000E+00 0.  1.
          6    2    1    2  502    0  0.45856676122E+01 -0.42753028451E+02 -0.27277098571E+03  0.32664714547E+03  0.17448638115E+03 0.  0.
         24    2    3    3    0    0  0.39433033599E+02 -0.82882965142E+02 -0.15724776943E+03  0.19939757087E+03  0.81289484129E+02 0.  0.
         -6    2    1    2    0  503 -0.45856676122E+01  0.42753028451E+02 -0.22733425870E+02  0.17967990197E+03  0.17297169922E+03 0.  0.
        -24    2    5    5    0    0  0.56181887391E+02  0.14955048560E+02  0.21853664409E+02  0.99209273501E+02  0.77361743467E+02 0.  0.
          4    1    4    4  501    0  0.54103527772E+02 -0.23992059365E+02 -0.98607117478E+02  0.11500510531E+03  0.00000000000E+00 0. -1.
         -3    1    4    4    0  501 -0.14670494173E+02 -0.58890905777E+02 -0.58640651949E+02  0.84392465561E+02  0.00000000000E+00 0.  1.
          5    1    3    3  502    0 -0.34847365987E+02  0.40129936691E+02 -0.11552321628E+03  0.12724957459E+03  0.47000000000E+01 0. -1.
         13    1    6    6    0    0  0.30427535750E+02  0.54962816877E+01 -0.28380986508E+02  0.41970518693E+02  0.00000000000E+00 0. -1.
        -14    1    6    6    0    0  0.25754351641E+02  0.94587668724E+01  0.50234650917E+02  0.57238754808E+02  0.00000000000E+00 0.  1.
         -5    1    5    5    0  503 -0.60767555004E+02  0.27797979891E+02 -0.44587090279E+02  0.80470628472E+02  0.47000000000E+01 0.  1.
<mgrwt>
<rscale>  2 0.17933757E+03</rscale>
<asrwt>0</asrwt>
<pdfrwt beam="1">  1       21 0.16217126E-01 0.17970628E+03</pdfrwt>
<pdfrwt beam="2">  1       21 0.61679343E-01 0.17970628E+03</pdfrwt>
<totfact> 0.83502209E+04</totfact>
</mgrwt>
</event>
<event>
12    1  0.2769346E-001  0.1866641E+03  0.7546771E-02  0.1161962E+00
         21   -1    0    0  504  503  0.00000000000E+00  0.00000000000E+00  0.35372840984E+03  0.35372840984E+03  0.00000000000E+00 0.  1.
         21   -1    0    0  502  504 -0.00000000000E+00 -0.00000000000E+00 -0.15792236237E+03  0.15792236237E+03  0.00000000000E+00 0. -1.
          6    2    1    2  502    0 -0.61224435528E+02  0.32186172816E+02 -0.60699884743E+02  0.19441459528E+03  0.17125471563E+03 0.  0.
         24    2    3    3    0    0 -0.92384064278E+02  0.26223946123E+02  0.19859589517E+01  0.12400099141E+03  0.78420604142E+02 0.  0.
         -6    2    1    2    0  503  0.61224435528E+02 -0.32186172816E+02  0.25650593221E+03  0.31723617693E+03  0.17337565419E+03 0.  0.
        -24    2    5    5    0    0  0.42559418175E+02  0.39237952020E+02  0.20749084043E+03  0.22849859919E+03  0.76211810186E+02 0.  0.
          2    1    4    4  501    0 -0.10237569998E+03  0.36042669047E+02  0.78412961858E+01  0.10881793908E+03  0.00000000000E+00 0. -1.
         -1    1    4    4    0  501  0.99916357055E+01 -0.98187229230E+01 -0.58553372341E+01  0.15183052329E+02  0.00000000000E+00 0.  1.
          5    1    3    3  502    0  0.31159628750E+02  0.59622266926E+01 -0.62685843695E+02  0.70413603875E+02  0.47000000000E+01 0. -1.
         11    1    6    6    0    0  0.98162136874E+01 -0.45585634733E+01 -0.28285910758E+01  0.11186575864E+02  0.00000000000E+00 0. -1.
        -12    1    6    6    0    0  0.32743204488E+02  0.43796515494E+02  0.21031943151E+03  0.21731202332E+03  0.00000000000E+00 0.  1.
         -5    1    5    5    0  503  0.18665017352E+02 -0.71424124836E+02  0.49015091780E+02  0.88737577743E+02  0.47000000000E+01 0.  1.
<mgrwt>
<rscale>  2 0.18617011E+03</rscale>
<asrwt>0</asrwt>
<pdfrwt beam="1">  1       21 0.54419755E-01 0.18666413E+03</pdfrwt>
<pdfrwt beam="2">  1       21 0.24295748E-01 0.18666413E+03</pdfrwt>
<totfact> 0.51164381E+04</totfact>
</mgrwt>
</event>
<event>
12    1  0.2769346E-001  0.2621561E+03  0.7546771E-02  0.1105875E+00
         21   -1    0    0  504  503  0.00000000000E+00  0.00000000000E+00  0.32737300048E+03  0.32737300048E+03  0.00000000000E+00 0.  1.
         21   -1    0    0  502  504 -0.00000000000E+00 -0.00000000000E+00 -0.26995670383E+03  0.26995670383E+03  0.00000000000E+00 0. -1.
          6    2    1    2  502    0 -0.66551832684E+02 -0.18499754416E+03 -0.11224819093E+03  0.28517624170E+03  0.17341451694E+03 0.  0.
         24    2    3    3    0    0  0.36518077677E+00 -0.24850187412E+02 -0.53530873986E+02  0.10188719164E+03  0.83052875802E+02 0.  0.
         -6    2    1    2    0  503  0.66551832684E+02  0.18499754416E+03  0.16966448757E+03  0.31215346261E+03  0.17320654750E+03 0.  0.
        -24    2    5    5    0    0  0.91925144398E+02  0.13451858453E+03  0.64650052910E+02  0.19281339474E+03  0.80323683253E+02 0.  0.
          4    1    4    4  501    0 -0.10051904518E+02 -0.45360421045E+02 -0.61910126389E+02  0.77404601487E+02  0.00000000000E+00 0. -1.
         -3    1    4    4    0  501  0.10417085295E+02  0.20510233633E+02  0.83792524031E+01  0.24482590152E+02  0.00000000000E+00 0.  1.
          5    1    3    3  502    0 -0.66917013461E+02 -0.16014735675E+03 -0.58717316943E+02  0.18328905006E+03  0.47000000000E+01 0. -1.
         13    1    6    6    0    0  0.20132480178E-01  0.60412411890E+01 -0.14805810242E+02  0.15990904206E+02  0.00000000000E+00 0. -1.
        -14    1    6    6    0    0  0.91905011918E+02  0.12847734334E+03  0.79455863151E+02  0.17682249053E+03  0.00000000000E+00 0.  1.
         -5    1    5    5    0  503 -0.25373311714E+02  0.50478959626E+02  0.10501443466E+03  0.11934006787E+03  0.47000000000E+01 0.  1.
<mgrwt>
<rscale>  2 0.26212173E+03</rscale>
<asrwt>0</asrwt>
<pdfrwt beam="1">  1       21 0.50365077E-01 0.26215612E+03</pdfrwt>
<pdfrwt beam="2">  1       21 0.41531800E-01 0.26215612E+03</pdfrwt>
<totfact> 0.20191695E+04</totfact>
</mgrwt>
</event>
<event>
12    1  0.2769346E-001  0.2818164E+03  0.7546771E-02  0.1094748E+00
         21   -1    0    0  504  503  0.00000000000E+00  0.00000000000E+00  0.42889414682E+02  0.42889414682E+02  0.00000000000E+00 0.  1.
         21   -1    0    0  502  504 -0.00000000000E+00 -0.00000000000E+00 -0.18558360330E+04  0.18558360330E+04  0.00000000000E+00 0.  1.
          6    2    1    2  502    0  0.10053118230E+02  0.22178908662E+03 -0.96254501509E+03  0.10029523301E+04  0.17357708997E+03 0.  0.
         24    2    3    3    0    0  0.47091862970E+02  0.21829273329E+03 -0.89195731229E+03  0.92302231764E+03  0.80703103722E+02 0.  0.
         -6    2    1    2    0  503 -0.10053118230E+02 -0.22178908662E+03 -0.85040160321E+03  0.89577311761E+03  0.17301770821E+03 0.  0.
        -24    2    5    5    0    0  0.22820406471E+02 -0.36582009075E+02 -0.21419794374E+03  0.23232793032E+03  0.78971474397E+02 0.  0.
          4    1    4    4  501    0  0.91194475449E+01  0.18445900539E+03 -0.64709877107E+03  0.67293767060E+03  0.00000000000E+00 0. -1.
         -3    1    4    4    0  501  0.37972415425E+02  0.33833727898E+02 -0.24485854122E+03  0.25008464704E+03  0.00000000000E+00 0.  1.
          5    1    3    3  502    0 -0.37038744740E+02  0.34963533363E+01 -0.70587702804E+02  0.79930012422E+02  0.47000000000E+01 0. -1.
         13    1    6    6    0    0  0.51458159051E+02 -0.32680276924E+02 -0.15067421657E+03  0.16253818681E+03  0.00000000000E+00 0. -1.
        -14    1    6    6    0    0 -0.28637752580E+02 -0.39017321511E+01 -0.63523727168E+02  0.69789743515E+02  0.00000000000E+00 0.  1.
         -5    1    5    5    0  503 -0.32873524701E+02 -0.18520707755E+03 -0.63620365948E+03  0.66344518729E+03  0.47000000000E+01 0.  1.
<mgrwt>
<rscale>  2 0.28173029E+03</rscale>
<asrwt>0</asrwt>
<pdfrwt beam="1">  1       21 0.65983693E-02 0.28181638E+03</pdfrwt>
<pdfrwt beam="2">  1       21 0.28551333E+00 0.28181638E+03</pdfrwt>
<totfact> 0.63894118E+03</totfact>
</mgrwt>
</event>
<event>
12    1  0.2769346E-001  0.1957399E+03  0.7546771E-02  0.1153580E+00
         21   -1    0    0  504  503  0.00000000000E+00  0.00000000000E+00  0.62520866238E+03  0.62520866238E+03  0.00000000000E+00 0.  1.
         21   -1    0    0  502  504 -0.00000000000E+00 -0.00000000000E+00 -0.14231116261E+03  0.14231116261E+03  0.00000000000E+00 0.  1.
          6    2    1    2  502    0 -0.14789687174E+02  0.89735684700E+02 -0.48390328987E+02  0.20163265338E+03  0.17332880607E+03 0.  0.
         24    2    3    3    0    0  0.16097414798E+02  0.11288894739E+03 -0.72459453103E+02  0.15589973988E+03  0.77790200829E+02 0.  0.
         -6    2    1    2    0  503  0.14789687174E+02 -0.89735684700E+02  0.53128782876E+03  0.56588717160E+03  0.17230875208E+03 0.  0.
        -24    2    5    5    0    0  0.70499089267E+02 -0.27482175386E+02  0.33584069852E+03  0.35328259117E+03  0.79336138608E+02 0.  0.
          2    1    4    4  501    0  0.30650997849E+02  0.84051675505E+01 -0.23908029165E+02  0.39770898522E+02  0.00000000000E+00 0. -1.
         -1    1    4    4    0  501 -0.14553583050E+02  0.10448377984E+03 -0.48551423938E+02  0.11612884136E+03  0.00000000000E+00 0.  1.
          5    1    3    3  502    0 -0.30887101972E+02 -0.23153262689E+02  0.24069124116E+02  0.45732913499E+02  0.47000000000E+01 0. -1.
         13    1    6    6    0    0  0.71728447471E+02 -0.37267107166E+02  0.18219724050E+03  0.19932295879E+03  0.00000000000E+00 0. -1.
        -14    1    6    6    0    0 -0.12293582040E+01  0.97849317794E+01  0.15364345801E+03  0.15395963238E+03  0.00000000000E+00 0.  1.
         -5    1    5    5    0  503 -0.55709402094E+02 -0.62253509314E+02  0.19544713024E+03  0.21260458044E+03  0.47000000000E+01 0.  1.
<mgrwt>
<rscale>  2 0.19551382E+03</rscale>
<asrwt>0</asrwt>
<pdfrwt beam="1">  1       21 0.96185946E-01 0.19573989E+03</pdfrwt>
<pdfrwt beam="2">  1       21 0.21894025E-01 0.19573989E+03</pdfrwt>
<totfact> 0.17493655E+04</totfact>
</mgrwt>
</event>
<event>
12    1  0.2769346E-001  0.2549366E+03  0.7546771E-02  0.1110668E+00
         21   -1    0    0  504  503  0.00000000000E+00  0.00000000000E+00  0.84863129175E+03  0.84863129175E+03  0.00000000000E+00 0.  1.
         21   -1    0    0  502  504 -0.00000000000E+00 -0.00000000000E+00 -0.27134104120E+03  0.27134104120E+03  0.00000000000E+00 0.  1.
          6    2    1    2  502    0 -0.16124502870E+03  0.94376801781E+02 -0.18727212976E+03  0.31402672407E+03  0.16921877216E+03 0.  0.
         24    2    3    3    0    0 -0.80303861413E+02  0.11583862011E+03 -0.10866441706E+03  0.19907741044E+03  0.89199572582E+02 0.  0.
         -6    2    1    2    0  503  0.16124502870E+03 -0.94376801781E+02  0.76456238030E+03  0.80594560888E+03  0.17345244625E+03 0.  0.
        -24    2    5    5    0    0  0.41519022674E+02 -0.35531470957E+02  0.50311653921E+03  0.51239304579E+03  0.80212634087E+02 0.  0.
          2    1    4    4  501    0 -0.30093966513E+02  0.11186804936E+03 -0.83297091401E+02  0.14268326014E+03  0.00000000000E+00 0. -1.
         -1    1    4    4    0  501 -0.50209894900E+02  0.39705707489E+01 -0.25367325655E+02  0.56394150307E+02  0.00000000000E+00 0.  1.
          5    1    3    3  502    0 -0.80941167282E+02 -0.21461818324E+02 -0.78607712701E+02  0.11494931363E+03  0.47000000000E+01 0. -1.
         11    1    6    6    0    0 -0.24031631261E+02 -0.98250373440E+01  0.11015502694E+03  0.11317323279E+03  0.00000000000E+00 0. -1.
        -12    1    6    6    0    0  0.65550653935E+02 -0.25706433613E+02  0.39296151228E+03  0.39921981300E+03  0.00000000000E+00 0.  1.
         -5    1    5    5    0  503  0.11972600602E+03 -0.58845330824E+02  0.26144584109E+03  0.29355256309E+03  0.47000000000E+01 0.  1.
<mgrwt>
<rscale>  2 0.25421826E+03</rscale>
<asrwt>0</asrwt>
<pdfrwt beam="1">  1       21 0.13055866E+00 0.25493664E+03</pdfrwt>
<pdfrwt beam="2">  1       21 0.41744776E-01 0.25493664E+03</pdfrwt>
<totfact> 0.22453260E+03</totfact>
</mgrwt>
</event>
<event>
12    1  0.2769346E-001  0.1799265E+03  0.7546771E-02  0.1168075E+00
         21   -1    0    0  504  503  0.00000000000E+00  0.00000000000E+00  0.19758310684E+03  0.19758310684E+03  0.00000000000E+00 0. -1.
         21   -1    0    0  502  504 -0.00000000000E+00 -0.00000000000E+00 -0.40349762706E+03  0.40349762706E+03  0.00000000000E+00 0. -1.
          6    2    1    2  502    0 -0.39309578726E+02 -0.29335375444E+02 -0.33484121083E+03  0.37973118983E+03  0.17225368743E+03 0.  0.
         24    2    3    3    0    0 -0.43729072912E+02 -0.77560344497E+02 -0.17239622863E+03  0.21015630428E+03  0.80730252863E+02 0.  0.
         -6    2    1    2    0  503  0.39309578726E+02  0.29335375444E+02  0.12892669061E+03  0.22134954407E+03  0.17311187677E+03 0.  0.
        -24    2    5    5    0    0 -0.33951151699E+02  0.43201326979E+02  0.38978786785E+02  0.10442172601E+03  0.79784181951E+02 0.  0.
          4    1    4    4  501    0 -0.56810358650E+02 -0.76445980024E+02 -0.10612454789E+03  0.14259671938E+03  0.00000000000E+00 0. -1.
         -3    1    4    4    0  501  0.13081285738E+02 -0.11143644731E+01 -0.66271680736E+02  0.67559584904E+02  0.00000000000E+00 0.  1.
          5    1    3    3  502    0  0.44194941858E+01  0.48224969054E+02 -0.16244498220E+03  0.16957488555E+03  0.47000000000E+01 0. -1.
         13    1    6    6    0    0 -0.60958146672E+00  0.56093534569E+02  0.39605141535E+02  0.68668940913E+02  0.00000000000E+00 0. -1.
        -14    1    6    6    0    0 -0.33341570232E+02 -0.12892207590E+02 -0.62635475040E+00  0.35752785099E+02  0.00000000000E+00 0.  1.
         -5    1    5    5    0  503  0.73260730425E+02 -0.13865951536E+02  0.89947903822E+02  0.11692781806E+03  0.47000000000E+01 0.  1.
<mgrwt>
<rscale>  2 0.17971972E+03</rscale>
<asrwt>0</asrwt>
<pdfrwt beam="1">  1       21 0.30397401E-01 0.17992645E+03</pdfrwt>
<pdfrwt beam="2">  1       21 0.62076558E-01 0.17992645E+03</pdfrwt>
<totfact> 0.25192558E+04</totfact>
</mgrwt>
</event>
<event>
12    1  0.2769346E-001  0.1944298E+03  0.7546771E-02  0.1156018E+00
         21   -1    0    0  504  503  0.00000000000E+00  0.00000000000E+00  0.15151097959E+03  0.15151097959E+03  0.00000000000E+00 0.  1.
         21   -1    0    0  502  504 -0.00000000000E+00 -0.00000000000E+00 -0.31003669159E+03  0.31003669159E+03  0.00000000000E+00 0.  1.
          6    2    1    2  502    0  0.77119474851E+02  0.27131722608E+02 -0.18923311477E+03  0.27131551986E+03  0.17640690412E+03 0.  0.
         24    2    3    3    0    0  0.21714766158E+02  0.28825554900E+02 -0.15163689272E+02  0.88573062549E+02  0.79453170184E+02 0.  0.
         -6    2    1    2    0  503 -0.77119474851E+02 -0.27131722608E+02  0.30707402770E+02  0.19023215132E+03  0.16900231666E+03 0.  0.
        -24    2    5    5    0    0 -0.55458001996E+02 -0.80085683358E+02  0.23509818913E+01  0.12620467307E+03  0.80204649026E+02 0.  0.
          4    1    4    4  501    0 -0.20746371998E+02  0.31472892721E+02  0.10188809799E+02  0.39048262093E+02  0.00000000000E+00 0. -1.
         -3    1    4    4    0  501  0.42461138156E+02 -0.26473378215E+01 -0.25352499071E+02  0.49524800456E+02  0.00000000000E+00 0.  1.
          5    1    3    3  502    0  0.55404708693E+02 -0.16938322923E+01 -0.17406942550E+03  0.18274245731E+03  0.47000000000E+01 0. -1.
         11    1    6    6    0    0  0.19659670192E+01 -0.46961405618E+02 -0.26441210700E+02  0.53929363683E+02  0.00000000000E+00 0. -1.
        -12    1    6    6    0    0 -0.57423969016E+02 -0.33124277740E+02  0.28792192592E+02  0.72275309391E+02  0.00000000000E+00 0.  1.
         -5    1    5    5    0  503 -0.21661472854E+02  0.52953960750E+02  0.28356420878E+02  0.64027478245E+02  0.47000000000E+01 0.  1.
<mgrwt>
<rscale>  2 0.19273464E+03</rscale>
<asrwt>0</asrwt>
<pdfrwt beam="1">  1       21 0.23309382E-01 0.19442978E+03</pdfrwt>
<pdfrwt beam="2">  1       21 0.47697952E-01 0.19442978E+03</pdfrwt>
<totfact> 0.72670700E+04</totfact>
</mgrwt>
</event>
<event>
12    1  0.2769346E-001  0.1901850E+03  0.7546771E-02  0.1158309E+00
         21   -1    0    0  504  503  0.00000000000E+00  0.00000000000E+00  0.48220472067E+03  0.48220472067E+03  0.00000000000E+00 0. -1.
         21   -1    0    0  502  504 -0.00000000000E+00 -0.00000000000E+00 -0.77537930907E+02  0.77537930907E+02  0.00000000000E+00 0. -1.
          6    2    1    2  502    0 -0.72453063136E+02 -0.32174101805E+02  0.15152052266E+03  0.24311453255E+03  0.17280505770E+03 0.  0.
         24    2    3    3    0    0 -0.10828951167E+03 -0.42393048246E+01  0.75620343651E+02  0.15452824073E+03  0.80099630246E+02 0.  0.
         -6    2    1    2    0  503  0.72453063136E+02  0.32174101805E+02  0.25314626710E+03  0.31662811903E+03  0.17287485076E+03 0.  0.
        -24    2    5    5    0    0 -0.37641049690E+01  0.22022840310E+02  0.43649235330E+02  0.93417005626E+02  0.79512937398E+02 0.  0.
          2    1    4    4  501    0 -0.90185135935E+01 -0.18857814626E+02 -0.94859256476E+01  0.22955033115E+02  0.00000000000E+00 0. -1.
         -1    1    4    4    0  501 -0.99270998073E+02  0.14618509801E+02  0.85106269299E+02  0.13157320761E+03  0.00000000000E+00 0.  1.
          5    1    3    3  502    0  0.35836448531E+02 -0.27934796981E+02  0.75900179004E+02  0.88586291821E+02  0.47000000000E+01 0. -1.
         11    1    6    6    0    0  0.20962406397E+00  0.52058195094E+02  0.30966365168E+02  0.60572397926E+02  0.00000000000E+00 0. -1.
        -12    1    6    6    0    0 -0.39737290330E+01 -0.30035354784E+02  0.12682870162E+02  0.32844607700E+02  0.00000000000E+00 0.  1.
         -5    1    5    5    0  503  0.76217168105E+02  0.10151261495E+02  0.20949703177E+03  0.22321111340E+03  0.47000000000E+01 0.  1.
<mgrwt>
<rscale>  2 0.19016914E+03</rscale>
<asrwt>0</asrwt>
<pdfrwt beam="1">  1       21 0.74185340E-01 0.19018500E+03</pdfrwt>
<pdfrwt beam="2">  1       21 0.11928913E-01 0.19018500E+03</pdfrwt>
<totfact> 0.96718325E+04</totfact>
</mgrwt>
</event>
<event>
12    1  0.2769346E-001  0.1998004E+03  0.7546771E-02  0.1150216E+00
         21   -1    0    0  504  503  0.00000000000E+00  0.00000000000E+00  0.13952161611E+03  0.13952161611E+03  0.00000000000E+00 0. -1.
         21   -1    0    0  502  504 -0.00000000000E+00 -0.00000000000E+00 -0.75341208382E+03  0.75341208382E+03  0.00000000000E+00 0. -1.
          6    2    1    2  502    0 -0.33720871550E+02  0.94458612114E+02 -0.65976213236E+03  0.68935207859E+03  0.17280246055E+03 0.  0.
         24    2    3    3    0    0 -0.17541903912E+02  0.93223039695E+02 -0.24856260475E+03  0.27780569342E+03  0.79964875383E+02 0.  0.
         -6    2    1    2    0  503  0.33720871550E+02 -0.94458612114E+02  0.45871664651E+02  0.20358162135E+03  0.17111908238E+03 0.  0.
        -24    2    5    5    0    0  0.66930731301E+02 -0.90433835937E+02  0.76336971223E+02  0.15809185863E+03  0.80670323633E+02 0.  0.
          4    1    4    4  501    0 -0.35882934164E+02  0.16487299254E+02 -0.12601012873E+03  0.13205290055E+03  0.00000000000E+00 0. -1.
         -3    1    4    4    0  501  0.18341030252E+02  0.76735740442E+02 -0.12255247602E+03  0.14575279287E+03  0.00000000000E+00 0.  1.
          5    1    3    3  502    0 -0.16178967638E+02  0.12355724187E+01 -0.41119952761E+03  0.41154638516E+03  0.47000000000E+01 0. -1.
         11    1    6    6    0    0  0.15373458458E+02 -0.80364034009E+02  0.64639951186E+02  0.10427389163E+03  0.00000000000E+00 0. -1.
        -12    1    6    6    0    0  0.51557272843E+02 -0.10069801928E+02  0.11697020037E+02  0.53817966997E+02  0.00000000000E+00 0.  1.
         -5    1    5    5    0  503 -0.33209859750E+02 -0.40247761769E+01 -0.30465306572E+02  0.45489762721E+02  0.47000000000E+01 0.  1.
<mgrwt>
<rscale>  2 0.19943592E+03</rscale>
<asrwt>0</asrwt>
<pdfrwt beam="1">  1       21 0.21464864E-01 0.19980044E+03</pdfrwt>
<pdfrwt beam="2">  1       21 0.11590955E+00 0.19980044E+03</pdfrwt>
<totfact> 0.11569795E+04</totfact>
</mgrwt>
</event>
<event>
12    1  0.2769346E-001  0.1786995E+03  0.7546771E-02  0.1169146E+00
         21   -1    0    0  504  503  0.00000000000E+00  0.00000000000E+00  0.23616800018E+02  0.23616800018E+02  0.00000000000E+00 0.  1.
         21   -1    0    0  502  504 -0.00000000000E+00 -0.00000000000E+00 -0.25277832009E+04  0.25277832009E+04  0.00000000000E+00 0.  1.
          6    2    1    2  502    0 -0.39601149400E+02  0.11648950563E+02 -0.21235750790E+04  0.21310806207E+04  0.17386646271E+03 0.  0.
         24    2    3    3    0    0 -0.86170042782E+02 -0.11063256093E+02 -0.17227288762E+04  0.17268724139E+04  0.82133313286E+02 0.  0.
         -6    2    1    2    0  503  0.39601149400E+02 -0.11648950563E+02 -0.38059132192E+03  0.42031938021E+03  0.17353581181E+03 0.  0.
        -24    2    5    5    0    0  0.12071314768E+02 -0.18948305805E+02 -0.68538390910E+02  0.10693416338E+03  0.78947130001E+02 0.  0.
          4    1    4    4  501    0 -0.74075481042E+02 -0.35365528540E+02 -0.91123949322E+03  0.91492912922E+03  0.00000000000E+00 0. -1.
         -3    1    4    4    0  501 -0.12094561739E+02  0.24302272448E+02 -0.81148938296E+03  0.81194328468E+03  0.00000000000E+00 0.  1.
          5    1    3    3  502    0  0.46568893382E+02  0.22712206656E+02 -0.40084620283E+03  0.40420820685E+03  0.47000000000E+01 0. -1.
         11    1    6    6    0    0  0.16170743089E+02  0.98419160974E+01 -0.74824407676E+02  0.77181916461E+02  0.00000000000E+00 0. -1.
        -12    1    6    6    0    0 -0.40994283206E+01 -0.28790221902E+02  0.62860167662E+01  0.29752246916E+02  0.00000000000E+00 0.  1.
         -5    1    5    5    0  503  0.27529834632E+02  0.72993552420E+01 -0.31205293101E+03  0.31338521684E+03  0.47000000000E+01 0.  1.
<mgrwt>
<rscale>  2 0.17861898E+03</rscale>
<asrwt>0</asrwt>
<pdfrwt beam="1">  1       21 0.36333542E-02 0.17869946E+03</pdfrwt>
<pdfrwt beam="2">  1       21 0.38888968E+00 0.17869946E+03</pdfrwt>
<totfact> 0.47898698E+03</totfact>
</mgrwt>
</event>
<event>
12    1  0.2769346E-001  0.1788627E+03  0.7546771E-02  0.1168909E+00
         21   -1    0    0  504  503  0.00000000000E+00  0.00000000000E+00  0.16359100477E+03  0.16359100477E+03  0.00000000000E+00 0.  1.
         21   -1    0    0  502  504 -0.00000000000E+00 -0.00000000000E+00 -0.25673364580E+03  0.25673364580E+03  0.00000000000E+00 0.  1.
          6    2    1    2  502    0 -0.23147804697E+02  0.40421933518E+02  0.56020155768E+02  0.18743035833E+03  0.17269084457E+03 0.  0.
         24    2    3    3    0    0 -0.18730143753E+02  0.56923920782E+02  0.99131072122E+02  0.14082056943E+03  0.80076914733E+02 0.  0.
         -6    2    1    2    0  503  0.23147804697E+02 -0.40421933518E+02 -0.14916279680E+03  0.23289429224E+03  0.17268600938E+03 0.  0.
        -24    2    5    5    0    0  0.15917762014E+02 -0.98507773728E+01 -0.13950614047E+01  0.81751106059E+02  0.79566853545E+02 0.  0.
          4    1    4    4  501    0  0.35994939212E+01  0.62767520030E+02  0.33478385977E+02  0.71228647712E+02  0.00000000000E+00 0. -1.
         -3    1    4    4    0  501 -0.22329637674E+02 -0.58435992483E+01  0.65652686144E+02  0.69591921721E+02  0.00000000000E+00 0.  1.
          5    1    3    3  502    0 -0.44176609446E+01 -0.16501987263E+02 -0.43110916354E+02  0.46609788894E+02  0.47000000000E+01 0. -1.
         11    1    6    6    0    0  0.40854099216E+02 -0.71545703575E+01 -0.24057183134E+02  0.47947819138E+02  0.00000000000E+00 0. -1.
        -12    1    6    6    0    0 -0.24936337203E+02 -0.26962070153E+01  0.22662121729E+02  0.33803286920E+02  0.00000000000E+00 0.  1.
         -5    1    5    5    0  503  0.72300426837E+01 -0.30571156145E+02 -0.14776773539E+03  0.15114318618E+03  0.47000000000E+01 0.  1.
<mgrwt>
<rscale>  2 0.17886158E+03</rscale>
<asrwt>0</asrwt>
<pdfrwt beam="1">  1       21 0.25167847E-01 0.17886274E+03</pdfrwt>
<pdfrwt beam="2">  1       21 0.39497484E-01 0.17886274E+03</pdfrwt>
<totfact> 0.92901164E+04</totfact>
</mgrwt>
</event>
<event>
12    1  0.2769346E-001  0.1980153E+03  0.7546771E-02  0.1151516E+00
         21   -1    0    0  504  503  0.00000000000E+00  0.00000000000E+00  0.18597223679E+04  0.18597223679E+04  0.00000000000E+00 0.  1.
         21   -1    0    0  502  504 -0.00000000000E+00 -0.00000000000E+00 -0.53721716838E+02  0.53721716838E+02  0.00000000000E+00 0.  1.
          6    2    1    2  502    0 -0.95736313410E+02 -0.22506608413E+02  0.15638044691E+03  0.25198181980E+03  0.17137095497E+03 0.  0.
         24    2    3    3    0    0 -0.42324723206E+02 -0.44037783961E+01  0.51390333731E+01  0.90499419552E+02  0.79705456630E+02 0.  0.
         -6    2    1    2    0  503  0.95736313410E+02  0.22506608413E+02  0.16496202041E+04  0.16614622649E+04  0.17186637461E+03 0.  0.
        -24    2    5    5    0    0  0.60601090801E+02  0.79234906760E+02  0.11130164521E+04  0.11207051472E+04  0.84992597210E+02 0.  0.
          2    1    4    4  501    0 -0.22374649872E+02 -0.37012447396E+02  0.22226581288E+02  0.48626814978E+02  0.00000000000E+00 0. -1.
         -1    1    4    4    0  501 -0.19950073335E+02  0.32608669000E+02 -0.17087547915E+02  0.41872604574E+02  0.00000000000E+00 0.  1.
          5    1    3    3  502    0 -0.53411590203E+02 -0.18102830017E+02  0.15124141353E+03  0.16148240025E+03  0.47000000000E+01 0. -1.
         13    1    6    6    0    0  0.70389919673E+02  0.23324629491E+02  0.60493234406E+03  0.60946035148E+03  0.00000000000E+00 0. -1.
        -14    1    6    6    0    0 -0.97888288718E+01  0.55910277269E+02  0.50808410805E+03  0.51124479570E+03  0.00000000000E+00 0.  1.
         -5    1    5    5    0  503  0.35135222609E+02 -0.56728298347E+02  0.53660375199E+03  0.54075711771E+03  0.47000000000E+01 0.  1.
<mgrwt>
<rscale>  2 0.19790770E+03</rscale>
<asrwt>0</asrwt>
<pdfrwt beam="1">  1       21 0.28611108E+00 0.19801525E+03</pdfrwt>
<pdfrwt beam="2">  1       21 0.82648810E-02 0.19801525E+03</pdfrwt>
<totfact> 0.46246610E+03</totfact>
</mgrwt>
</event>
<event>
12    1  0.2769346E-001  0.2059988E+03  0.7546771E-02  0.1144794E+00
         21   -1    0    0  504  503  0.00000000000E+00  0.00000000000E+00  0.13409311780E+03  0.13409311780E+03  0.00000000000E+00 0.  1.
         21   -1    0    0  502  504 -0.00000000000E+00 -0.00000000000E+00 -0.32911460936E+03  0.32911460936E+03  0.00000000000E+00 0. -1.
          6    2    1    2  502    0 -0.96583502979E+02 -0.56694257980E+02 -0.14320433408E+03  0.25088443076E+03  0.17289564588E+03 0.  0.
         24    2    3    3    0    0 -0.66577171842E+02  0.13120704852E+02 -0.23553429267E+02  0.10906434063E+03  0.82070662600E+02 0.  0.
         -6    2    1    2    0  503  0.96583502979E+02  0.56694257980E+02 -0.51817157479E+02  0.21232329639E+03  0.17278180589E+03 0.  0.
        -24    2    5    5    0    0  0.72347472090E+02  0.62350856189E+02 -0.98350710314E+02  0.15934364147E+03  0.81214209784E+02 0.  0.
          2    1    4    4  501    0 -0.52953812101E+02  0.36272962051E+02 -0.41794148171E+02  0.76593634287E+02  0.00000000000E+00 0. -1.
         -1    1    4    4    0  501 -0.13623359741E+02 -0.23152257199E+02  0.18240718903E+02  0.32470706339E+02  0.00000000000E+00 0.  1.
          5    1    3    3  502    0 -0.30006331137E+02 -0.69814962832E+02 -0.11965090481E+03  0.14182009014E+03  0.47000000000E+01 0. -1.
         11    1    6    6    0    0 -0.75352818752E+01  0.42187447742E+02 -0.37076750543E+02  0.56667862592E+02  0.00000000000E+00 0. -1.
        -12    1    6    6    0    0  0.79882753965E+02  0.20163408448E+02 -0.61273959771E+02  0.10267577887E+03  0.00000000000E+00 0.  1.
         -5    1    5    5    0  503  0.24236030889E+02 -0.56565982092E+01  0.46533552835E+02  0.52979654926E+02  0.47000000000E+01 0.  1.
<mgrwt>
<rscale>  2 0.20597494E+03</rscale>
<asrwt>0</asrwt>
<pdfrwt beam="1">  1       21 0.20629711E-01 0.20599883E+03</pdfrwt>
<pdfrwt beam="2">  1       21 0.50633016E-01 0.20599883E+03</pdfrwt>
<totfact> 0.80386608E+04</totfact>
</mgrwt>
</event>
<event>
12    1  0.2769346E-001  0.2461051E+03  0.7546771E-02  0.1116447E+00
         21   -1    0    0  504  503  0.00000000000E+00  0.00000000000E+00  0.35221382622E+03  0.35221382622E+03  0.00000000000E+00 0.  1.
         21   -1    0    0  502  504 -0.00000000000E+00 -0.00000000000E+00 -0.27440928325E+03  0.27440928325E+03  0.00000000000E+00 0.  1.
          6    2    1    2  502    0  0.29561774663E+02 -0.17078792354E+03 -0.15532986474E+03  0.28762549234E+03  0.16899302830E+03 0.  0.
         24    2    3    3    0    0  0.31296115562E+02 -0.11977964857E+03 -0.17817338367E+03  0.23151160448E+03  0.80779064732E+02 0.  0.
         -6    2    1    2    0  503 -0.29561774663E+02  0.17078792354E+03  0.23313440770E+03  0.33899761713E+03  0.17471496506E+03 0.  0.
        -24    2    5    5    0    0 -0.70529640949E+02  0.15107015189E+03  0.13450674369E+03  0.23029314300E+03  0.84535475226E+02 0.  0.
          2    1    4    4  501    0  0.17270441646E+02 -0.53898008886E+02 -0.20746896284E+02  0.60280156121E+02  0.00000000000E+00 0. -1.
         -1    1    4    4    0  501  0.14025673916E+02 -0.65881639684E+02 -0.15742648738E+03  0.17123144836E+03  0.00000000000E+00 0.  1.
          5    1    3    3  502    0 -0.17343408988E+01 -0.51008274972E+02  0.22843518931E+02  0.56113887863E+02  0.47000000000E+01 0. -1.
         13    1    6    6    0    0 -0.15724530390E+02  0.16340599593E+02  0.65478821163E+02  0.69294675639E+02  0.00000000000E+00 0. -1.
        -14    1    6    6    0    0 -0.54805110559E+02  0.13472955229E+03  0.69027922528E+02  0.16099846736E+03  0.00000000000E+00 0.  1.
         -5    1    5    5    0  503  0.40967866286E+02  0.19717771657E+02  0.98627664010E+02  0.10870447413E+03  0.47000000000E+01 0.  1.
<mgrwt>
<rscale>  2 0.24509174E+03</rscale>
<asrwt>0</asrwt>
<pdfrwt beam="1">  1       21 0.54186743E-01 0.24610512E+03</pdfrwt>
<pdfrwt beam="2">  1       21 0.42216813E-01 0.24610512E+03</pdfrwt>
<totfact> 0.16859577E+04</totfact>
</mgrwt>
</event>
<event>
12    1  0.2769346E-001  0.2115334E+03  0.7546771E-02  0.1140675E+00
         21   -1    0    0  504  503  0.00000000000E+00  0.00000000000E+00  0.63289080264E+02  0.63289080264E+02  0.00000000000E+00 0. -1.
         21   -1    0    0  502  504 -0.00000000000E+00 -0.00000000000E+00 -0.72130593599E+03  0.72130593599E+03  0.00000000000E+00 0. -1.
          6    2    1    2  502    0 -0.72981742898E+02  0.94418207652E+02 -0.39256949951E+03  0.44517096283E+03  0.17269985950E+03 0.  0.
         24    2    3    3    0    0  0.25517411740E+02  0.30646531841E+02 -0.14279111982E+03  0.16916328348E+03  0.81465111321E+02 0.  0.
         -6    2    1    2    0  503  0.72981742898E+02 -0.94418207652E+02 -0.26544735622E+03  0.33942405342E+03  0.17465754031E+03 0.  0.
        -24    2    5    5    0    0  0.19839194258E+01 -0.92421226642E+02 -0.22538834415E+03  0.25774484359E+03  0.84183606774E+02 0.  0.
          4    1    4    4  501    0 -0.27597430556E+02 -0.30268571863E+01 -0.46348844310E+02  0.54027728128E+02  0.00000000000E+00 0. -1.
         -3    1    4    4    0  501  0.53114842297E+02  0.33673389028E+02 -0.96442275507E+02  0.11513555535E+03  0.00000000000E+00 0.  1.
          5    1    3    3  502    0 -0.98499154639E+02  0.63771675811E+02 -0.24977837969E+03  0.27600767935E+03  0.47000000000E+01 0. -1.
         13    1    6    6    0    0  0.39971389271E+02 -0.34797229346E+02 -0.12650141945E+03  0.13715381239E+03  0.00000000000E+00 0. -1.
        -14    1    6    6    0    0 -0.37987469845E+02 -0.57623997296E+02 -0.98886924696E+02  0.12059103120E+03  0.00000000000E+00 0.  1.
         -5    1    5    5    0  503  0.70997823472E+02 -0.19969810104E+01 -0.40059012067E+02  0.81679209832E+02  0.47000000000E+01 0.  1.
<mgrwt>
<rscale>  2 0.21112889E+03</rscale>
<asrwt>0</asrwt>
<pdfrwt beam="1">  1       21 0.97367816E-02 0.21153342E+03</pdfrwt>
<pdfrwt beam="2">  1       21 0.11097014E+00 0.21153342E+03</pdfrwt>
<totfact> 0.53863321E+04</totfact>
</mgrwt>
</event>
<event>
12    1  0.2769346E-001  0.2338215E+03  0.7546771E-02  0.1124007E+00
         21   -1    0    0  504  503  0.00000000000E+00  0.00000000000E+00  0.35735554237E+03  0.35735554237E+03  0.00000000000E+00 0. -1.
         21   -1    0    0  502  504 -0.00000000000E+00 -0.00000000000E+00 -0.30896728282E+03  0.30896728282E+03  0.00000000000E+00 0.  1.
          6    2    1    2  502    0  0.15109996191E+03  0.46268291518E+02 -0.21260622988E+03  0.31590788006E+03  0.17211747851E+03 0.  0.
         24    2    3    3    0    0  0.57467510253E+02  0.62026563082E+02 -0.48025957168E+02  0.12584442936E+03  0.79878148302E+02 0.  0.
         -6    2    1    2    0  503 -0.15109996191E+03 -0.46268291518E+02  0.26099448943E+03  0.35041494513E+03  0.17233849531E+03 0.  0.
        -24    2    5    5    0    0 -0.14899563320E+02 -0.13330843959E+02  0.45840599934E+02  0.93610135606E+02  0.79131463389E+02 0.  0.
          4    1    4    4  501    0  0.63915112302E+02  0.42372878679E+02 -0.35189386405E+01  0.76765782464E+02  0.00000000000E+00 0. -1.
         -3    1    4    4    0  501 -0.64476020485E+01  0.19653684403E+02 -0.44507018528E+02  0.49078646895E+02  0.00000000000E+00 0.  1.
          5    1    3    3  502    0  0.93632451660E+02 -0.15758271564E+02 -0.16458027272E+03  0.19006345070E+03  0.47000000000E+01 0. -1.
         13    1    6    6    0    0 -0.21459004527E+02 -0.44627010564E+02  0.30353206496E+02  0.58080772135E+02  0.00000000000E+00 0. -1.
        -14    1    6    6    0    0  0.65594412070E+01  0.31296166605E+02  0.15487393437E+02  0.35529363471E+02  0.00000000000E+00 0.  1.
         -5    1    5    5    0  503 -0.13620039859E+03 -0.32937447559E+02  0.21515388949E+03  0.25680480952E+03  0.47000000000E+01 0.  1.
<mgrwt>
<rscale>  2 0.23378081E+03</rscale>
<asrwt>0</asrwt>
<pdfrwt beam="1">  1       21 0.54977775E-01 0.23382154E+03</pdfrwt>
<pdfrwt beam="2">  1       21 0.47533428E-01 0.23382154E+03</pdfrwt>
<totfact> 0.12882391E+04</totfact>
</mgrwt>
</event>
<event>
12    1  0.2769346E-001  0.1871787E+03  0.7546771E-02  0.1161079E+00
         21   -1    0    0  504  503  0.00000000000E+00  0.00000000000E+00  0.45169106919E+03  0.45169106919E+03  0.00000000000E+00 0. -1.
         21   -1    0    0  502  504 -0.00000000000E+00 -0.00000000000E+00 -0.78492062271E+02  0.78492062271E+02  0.00000000000E+00 0. -1.
          6    2    1    2  502    0 -0.69272954699E+02  0.10668227372E+02  0.21659688058E+03  0.28613376254E+03  0.17333715141E+03 0.  0.
         24    2    3    3    0    0 -0.56858083840E+02  0.40778083711E+02  0.22771053794E+03  0.25140141671E+03  0.80342326493E+02 0.  0.
         -6    2    1    2    0  503  0.69272954699E+02 -0.10668227372E+02  0.15660212633E+03  0.24404936892E+03  0.17356069592E+03 0.  0.
        -24    2    5    5    0    0  0.79462613041E+02 -0.35288527373E+01  0.18114270542E+03  0.21613647174E+03  0.87037549463E+02 0.  0.
          2    1    4    4  501    0 -0.88536744646E+01  0.53202779837E+02  0.14805481466E+03  0.15757268633E+03  0.00000000000E+00 0. -1.
         -1    1    4    4    0  501 -0.48004409375E+02 -0.12424696126E+02  0.79655723280E+02  0.93828730379E+02  0.00000000000E+00 0.  1.
          5    1    3    3  502    0 -0.12414870859E+02 -0.30109856339E+02 -0.11113657355E+02  0.34732345832E+02  0.47000000000E+01 0. -1.
         13    1    6    6    0    0 -0.14546901622E+02 -0.14148145770E+02  0.16111513452E+02  0.25910678131E+02  0.00000000000E+00 0. -1.
        -14    1    6    6    0    0  0.94009514662E+02  0.10619293033E+02  0.16503119196E+03  0.19022579361E+03  0.00000000000E+00 0.  1.
         -5    1    5    5    0  503 -0.10189658342E+02 -0.71393746346E+01 -0.24540579083E+02  0.27912897181E+02  0.47000000000E+01 0.  1.
<mgrwt>
<rscale>  2 0.18712687E+03</rscale>
<asrwt>0</asrwt>
<pdfrwt beam="1">  1       21 0.69490932E-01 0.18717871E+03</pdfrwt>
<pdfrwt beam="2">  1       21 0.12075702E-01 0.18717871E+03</pdfrwt>
<totfact> 0.10948353E+05</totfact>
</mgrwt>
</event>
<event>
12    1  0.2769346E-001  0.2025787E+03  0.7546771E-02  0.1148056E+00
         21   -1    0    0  504  503  0.00000000000E+00  0.00000000000E+00  0.32472288200E+03  0.32472288200E+03  0.00000000000E+00 0. -1.
         21   -1    0    0  502  504 -0.00000000000E+00 -0.00000000000E+00 -0.12917889947E+03  0.12917889947E+03  0.00000000000E+00 0. -1.
          6    2    1    2  502    0  0.67405489700E+02 -0.84685329507E+02  0.13930191907E+03  0.24585189408E+03  0.17123966857E+03 0.  0.
         24    2    3    3    0    0  0.80098029962E+02 -0.27604774043E+02  0.14429170846E+03  0.18697678569E+03  0.83441616121E+02 0.  0.
         -6    2    1    2    0  503 -0.67405489700E+02  0.84685329507E+02  0.56242063460E+02  0.20804988739E+03  0.16854222280E+03 0.  0.
        -24    2    5    5    0    0 -0.20240594618E+02  0.17922493694E+02  0.88181769811E+02  0.12016337867E+03  0.77021526830E+02 0.  0.
          4    1    4    4  501    0  0.71799950128E+01  0.10827549239E+02 -0.69487972797E+01  0.14733429150E+02  0.00000000000E+00 0. -1.
         -3    1    4    4    0  501  0.72918034949E+02 -0.38432323282E+02  0.15124050574E+03  0.17224335654E+03  0.00000000000E+00 0.  1.
          5    1    3    3  502    0 -0.12692540262E+02 -0.57080555464E+02 -0.49897893933E+01  0.58875108396E+02  0.47000000000E+01 0. -1.
         13    1    6    6    0    0 -0.77669398485E+01  0.25180246948E+02 -0.41805035713E+01  0.26680457287E+02  0.00000000000E+00 0. -1.
        -14    1    6    6    0    0 -0.12473654770E+02 -0.72577532533E+01  0.92362273382E+02  0.93482921381E+02  0.00000000000E+00 0.  1.
         -5    1    5    5    0  503 -0.47164895081E+02  0.66762835813E+02 -0.31939706351E+02  0.87886508724E+02  0.47000000000E+01 0.  1.
<mgrwt>
<rscale>  2 0.20200755E+03</rscale>
<asrwt>0</asrwt>
<pdfrwt beam="1">  1       21 0.49957366E-01 0.20257870E+03</pdfrwt>
<pdfrwt beam="2">  1       21 0.19873677E-01 0.20257870E+03</pdfrwt>
<totfact> 0.88790825E+04</totfact>
</mgrwt>
</event>
<event>
12    1  0.2769346E-001  0.1868525E+03  0.7546771E-02  0.1161448E+00
         21   -1    0    0  504  503  0.00000000000E+00  0.00000000000E+00  0.17344626032E+03  0.17344626032E+03  0.00000000000E+00 0. -1.
         21   -1    0    0  502  504 -0.00000000000E+00 -0.00000000000E+00 -0.34307917123E+03  0.34307917123E+03  0.00000000000E+00 0. -1.
          6    2    1    2  502    0 -0.65984974812E+02 -0.22163697709E+02 -0.25109424057E+03  0.31268778101E+03  0.17285856746E+03 0.  0.
         24    2    3    3    0    0 -0.52755582469E+01 -0.57012925596E+02 -0.97923448924E+02  0.14421379679E+03  0.89052300002E+02 0.  0.
         -6    2    1    2    0  503  0.65984974812E+02  0.22163697709E+02  0.81461329661E+02  0.20383765055E+03  0.17340297908E+03 0.  0.
        -24    2    5    5    0    0  0.10574839895E+03  0.45829003046E+02  0.67512063055E+02  0.15527996718E+03  0.79189444668E+02 0.  0.
          2    1    4    4  501    0  0.81383533836E+01 -0.64315651218E+02 -0.10796662851E+03  0.12593462058E+03  0.00000000000E+00 0. -1.
         -1    1    4    4    0  501 -0.13413911630E+02  0.73027256214E+01  0.10043179590E+02  0.18279176213E+02  0.00000000000E+00 0.  1.
          5    1    3    3  502    0 -0.60709416565E+02  0.34849227887E+02 -0.15317079165E+03  0.16847398422E+03  0.47000000000E+01 0. -1.
         11    1    6    6    0    0  0.77471308728E+02  0.46554434860E+02  0.96789755992E+01  0.90899954070E+02  0.00000000000E+00 0. -1.
        -12    1    6    6    0    0  0.28277090224E+02 -0.72543181382E+00  0.57833087455E+02  0.64380013105E+02  0.00000000000E+00 0.  1.
         -5    1    5    5    0  503 -0.39763424141E+02 -0.23665305337E+02  0.13949266606E+02  0.48557683377E+02  0.47000000000E+01 0.  1.
<mgrwt>
<rscale>  2 0.18672605E+03</rscale>
<asrwt>0</asrwt>
<pdfrwt beam="1">  1       21 0.26684040E-01 0.18685245E+03</pdfrwt>
<pdfrwt beam="2">  1       21 0.52781411E-01 0.18685245E+03</pdfrwt>
<totfact> 0.45608760E+04</totfact>
</mgrwt>
</event>
<event>
12    1  0.2769346E-001  0.2283052E+03  0.7546771E-02  0.1128828E+00
         21   -1    0    0  504  503  0.00000000000E+00  0.00000000000E+00  0.14573272671E+04  0.14573272671E+04  0.00000000000E+00 0.  1.
         21   -1    0    0  502  504 -0.00000000000E+00 -0.00000000000E+00 -0.36759916404E+02  0.36759916404E+02  0.00000000000E+00 0.  1.
          6    2    1    2  502    0  0.14009020611E+02 -0.14047472810E+03  0.55093562219E+03  0.59636676292E+03  0.17942645909E+03 0.  0.
         24    2    3    3    0    0 -0.42478328411E+02 -0.12471323846E+03  0.47969527253E+03  0.50397345918E+03  0.80770618677E+02 0.  0.
         -6    2    1    2    0  503 -0.14009020611E+02  0.14047472810E+03  0.86963172854E+03  0.89772042063E+03  0.17237519666E+03 0.  0.
        -24    2    5    5    0    0  0.17556867099E+02  0.74347427378E+02  0.24269036991E+03  0.26649400931E+03  0.79275833734E+02 0.  0.
          4    1    4    4  501    0 -0.14681440926E+02 -0.67867387405E+02  0.37705297320E+03  0.38339336403E+03  0.00000000000E+00 0. -1.
         -3    1    4    4    0  501 -0.27796887485E+02 -0.56845851057E+02  0.10264229933E+03  0.12058009516E+03  0.00000000000E+00 0.  1.
          5    1    3    3  502    0  0.56487349022E+02 -0.15761489637E+02  0.71240349660E+02  0.92393303734E+02  0.47000000000E+01 0. -1.
         13    1    6    6    0    0  0.26174110199E+02  0.44783520411E+02  0.52414205752E+02  0.73742095913E+02  0.00000000000E+00 0. -1.
        -14    1    6    6    0    0 -0.86172431002E+01  0.29563906967E+02  0.19027616416E+03  0.19275191340E+03  0.00000000000E+00 0.  1.
         -5    1    5    5    0  503 -0.31565887710E+02  0.66127300722E+02  0.62694135864E+03  0.63122641131E+03  0.47000000000E+01 0.  1.
<mgrwt>
<rscale>  2 0.22691785E+03</rscale>
<asrwt>0</asrwt>
<pdfrwt beam="1">  1       21 0.22420415E+00 0.22830518E+03</pdfrwt>
<pdfrwt beam="2">  1       21 0.56553729E-02 0.22830518E+03</pdfrwt>
<totfact> 0.20125802E+04</totfact>
</mgrwt>
</event>
<event>
12    1  0.2769346E-001  0.1773767E+03  0.7546771E-02  0.1170622E+00
         21   -1    0    0  504  503  0.00000000000E+00  0.00000000000E+00  0.10730470476E+04  0.10730470476E+04  0.00000000000E+00 0. -1.
         21   -1    0    0  502  504 -0.00000000000E+00 -0.00000000000E+00 -0.37345835008E+02  0.37345835008E+02  0.00000000000E+00 0. -1.
          6    2    1    2  502    0 -0.18463797725E+02  0.16347198899E+02  0.25658413055E+03  0.31133975113E+03  0.17461065787E+03 0.  0.
         24    2    3    3    0    0  0.58370826786E+02  0.35359428584E+01  0.13192870159E+03  0.16427257676E+03  0.78489750047E+02 0.  0.
         -6    2    1    2    0  503  0.18463797725E+02 -0.16347198899E+02  0.77911708199E+03  0.79905313143E+03  0.17565402546E+03 0.  0.
        -24    2    5    5    0    0  0.79658054085E+02 -0.27857675436E+02  0.51412460873E+03  0.52680264205E+03  0.77945203259E+02 0.  0.
          4    1    4    4  501    0  0.27490738189E+02 -0.35340621516E+02  0.84403836611E+02  0.95544271675E+02  0.00000000000E+00 0. -1.
         -3    1    4    4    0  501  0.30880088597E+02  0.38876564374E+02  0.47524864978E+02  0.68728305089E+02  0.00000000000E+00 0.  1.
          5    1    3    3  502    0 -0.76834624511E+02  0.12811256040E+02  0.12465542896E+03  0.14706717436E+03  0.47000000000E+01 0. -1.
         13    1    6    6    0    0  0.50361611650E+02  0.19795577275E+02  0.32868882037E+03  0.33311334024E+03  0.00000000000E+00 0. -1.
        -14    1    6    6    0    0  0.29296442435E+02 -0.47653252711E+02  0.18543578836E+03  0.19368930181E+03  0.00000000000E+00 0.  1.
         -5    1    5    5    0  503 -0.61194256360E+02  0.11510476538E+02  0.26499247327E+03  0.27225048938E+03  0.47000000000E+01 0.  1.
<mgrwt>
<rscale>  2 0.17711780E+03</rscale>
<asrwt>0</asrwt>
<pdfrwt beam="1">  1       21 0.16508414E+00 0.17737666E+03</pdfrwt>
<pdfrwt beam="2">  1       21 0.57455139E-02 0.17737666E+03</pdfrwt>
<totfact> 0.49546741E+04</totfact>
</mgrwt>
</event>
<event>
12    1  0.2769346E-001  0.2450366E+03  0.7546771E-02  0.1118340E+00
         21   -1    0    0  504  503  0.00000000000E+00  0.00000000000E+00  0.10429540421E+04  0.10429540421E+04  0.00000000000E+00 0.  1.
         21   -1    0    0  502  504 -0.00000000000E+00 -0.00000000000E+00 -0.60410786812E+02  0.60410786812E+02  0.00000000000E+00 0. -1.
          6    2    1    2  502    0  0.10066259275E+03  0.14563472975E+03  0.31538453627E+03  0.39263021855E+03  0.15280265284E+03 0.  0.
         24    2    3    3    0    0  0.80551376101E+02  0.31767435752E+02  0.15741363966E+03  0.19680602226E+03  0.80348380697E+02 0.  0.
         -6    2    1    2    0  503 -0.10066259275E+03 -0.14563472975E+03  0.66715871901E+03  0.71073461035E+03  0.16941221300E+03 0.  0.
        -24    2    5    5    0    0 -0.76473320529E+02 -0.13827233459E+03  0.66070498810E+03  0.68421921114E+03  0.81593138918E+02 0.  0.
          2    1    4    4  501    0  0.31691871046E+02 -0.18984621937E+02  0.19108923464E+02  0.41592565639E+02  0.00000000000E+00 0. -1.
         -1    1    4    4    0  501  0.48859505055E+02  0.50752057690E+02  0.13830471620E+03  0.15521345662E+03  0.00000000000E+00 0.  1.
          5    1    3    3  502    0  0.20111216645E+02  0.11386729400E+03  0.15797089660E+03  0.19582419629E+03  0.47000000000E+01 0. -1.
         11    1    6    6    0    0 -0.26832314722E+02 -0.17503090509E+02  0.47684448993E+02  0.57446827297E+02  0.00000000000E+00 0. -1.
        -12    1    6    6    0    0 -0.49641005807E+02 -0.12076924408E+03  0.61302053911E+03  0.62677238384E+03  0.00000000000E+00 0.  1.
         -5    1    5    5    0  503 -0.24189272217E+02 -0.73623951606E+01  0.64537309070E+01  0.26515399214E+02  0.47000000000E+01 0.  1.
<mgrwt>
<rscale>  2 0.24219366E+03</rscale>
<asrwt>0</asrwt>
<pdfrwt beam="1">  1       21 0.16045446E+00 0.24503659E+03</pdfrwt>
<pdfrwt beam="2">  1       21 0.92939679E-02 0.24503659E+03</pdfrwt>
<totfact> 0.22322179E+04</totfact>
</mgrwt>
</event>
<event>
12    1  0.2769346E-001  0.1923510E+03  0.7546771E-02  0.1156370E+00
         21   -1    0    0  504  503  0.00000000000E+00  0.00000000000E+00  0.10859522340E+04  0.10859522340E+04  0.00000000000E+00 0. -1.
         21   -1    0    0  502  504 -0.00000000000E+00 -0.00000000000E+00 -0.76843814894E+02  0.76843814894E+02  0.00000000000E+00 0.  1.
          6    2    1    2  502    0  0.13002394987E+02  0.83704891528E+02  0.70708329230E+02  0.20488496250E+03  0.17263432131E+03 0.  0.
         24    2    3    3    0    0 -0.31435732493E+02  0.80860793439E+02  0.96772332465E+02  0.15307513397E+03  0.80872981367E+02 0.  0.
         -6    2    1    2    0  503 -0.13002394987E+02 -0.83704891528E+02  0.93840008990E+03  0.95791108642E+03  0.17269438214E+03 0.  0.
        -24    2    5    5    0    0 -0.25150416528E+02 -0.60807227883E+02  0.92003681909E+03  0.92579913938E+03  0.79411810113E+02 0.  0.
          4    1    4    4  501    0 -0.77192235300E+01  0.41203282534E+01  0.66757706812E+02  0.67328708109E+02  0.00000000000E+00 0. -1.
         -3    1    4    4    0  501 -0.23716508963E+02  0.76740465185E+02  0.30014625653E+02  0.85746425857E+02  0.00000000000E+00 0.  1.
          5    1    3    3  502    0  0.44438127480E+02  0.28440980891E+01 -0.26064003235E+02  0.51809828532E+02  0.47000000000E+01 0. -1.
         11    1    6    6    0    0 -0.47826052343E+02 -0.55018002290E+02  0.52084295045E+03  0.52591985216E+03  0.00000000000E+00 0. -1.
        -12    1    6    6    0    0  0.22675635815E+02 -0.57892255935E+01  0.39919386864E+03  0.39987928723E+03  0.00000000000E+00 0.  1.
         -5    1    5    5    0  503  0.12148021541E+02 -0.22897663645E+02  0.18363270811E+02  0.32111947039E+02  0.47000000000E+01 0.  1.
<mgrwt>
<rscale>  2 0.19233755E+03</rscale>
<asrwt>0</asrwt>
<pdfrwt beam="1">  1       21 0.16706956E+00 0.19235104E+03</pdfrwt>
<pdfrwt beam="2">  1       21 0.11822126E-01 0.19235104E+03</pdfrwt>
<totfact> 0.13492338E+04</totfact>
</mgrwt>
</event>
<event>
12    1  0.2769346E-001  0.1797350E+03  0.7546771E-02  0.1168238E+00
         21   -1    0    0  504  503  0.00000000000E+00  0.00000000000E+00  0.12016209894E+03  0.12016209894E+03  0.00000000000E+00 0. -1.
         21   -1    0    0  502  504 -0.00000000000E+00 -0.00000000000E+00 -0.28295142712E+03  0.28295142712E+03  0.00000000000E+00 0. -1.
          6    2    1    2  502    0  0.47816034508E+02 -0.18605116838E+02 -0.12828048227E+03  0.22081790444E+03  0.17225603403E+03 0.  0.
         24    2    3    3    0    0  0.32567150656E+02 -0.54046031361E+02 -0.14588891495E+03  0.17814784722E+03  0.80445553989E+02 0.  0.
         -6    2    1    2    0  503 -0.47816034508E+02  0.18605116838E+02 -0.34508845915E+02  0.18229562163E+03  0.17148851183E+03 0.  0.
        -24    2    5    5    0    0  0.29093734558E+02  0.79997167177E+01 -0.53244934188E+02  0.10229113367E+03  0.81963480602E+02 0.  0.
          2    1    4    4  501    0 -0.24065366928E+02 -0.11048933569E+01 -0.26668440290E+02  0.35938397046E+02  0.00000000000E+00 0. -1.
         -1    1    4    4    0  501  0.56632517584E+02 -0.52941138004E+02 -0.11922047466E+03  0.14220945018E+03  0.00000000000E+00 0.  1.
          5    1    3    3  502    0  0.15248883852E+02  0.35440914523E+02  0.17608432680E+02  0.42670057211E+02  0.47000000000E+01 0. -1.
         11    1    6    6    0    0 -0.24703977305E+02  0.47143005290E+01 -0.39232481338E+02  0.46601488347E+02  0.00000000000E+00 0. -1.
        -12    1    6    6    0    0  0.53797711863E+02  0.32854161886E+01 -0.14012452850E+02  0.55689645322E+02  0.00000000000E+00 0.  1.
         -5    1    5    5    0  503 -0.76909769066E+02  0.10605400121E+02  0.18736088273E+02  0.80004487957E+02  0.47000000000E+01 0.  1.
<mgrwt>
<rscale>  2 0.17955084E+03</rscale>
<asrwt>0</asrwt>
<pdfrwt beam="1">  1       21 0.18486477E-01 0.17973498E+03</pdfrwt>
<pdfrwt beam="2">  1       21 0.43530988E-01 0.17973498E+03</pdfrwt>
<totfact> 0.13613351E+05</totfact>
</mgrwt>
</event>
<event>
12    1  0.2769346E-001  0.1800652E+03  0.7546771E-02  0.1170150E+00
         21   -1    0    0  504  503  0.00000000000E+00  0.00000000000E+00  0.64777071920E+02  0.64777071920E+02  0.00000000000E+00 0.  1.
         21   -1    0    0  502  504 -0.00000000000E+00 -0.00000000000E+00 -0.58241943451E+03  0.58241943451E+03  0.00000000000E+00 0.  1.
          6    2    1    2  502    0 -0.15029533710E+02 -0.11545814362E+02 -0.12506590122E+03  0.21923722585E+03  0.17906504080E+03 0.  0.
         24    2    3    3    0    0  0.45078356592E+02 -0.42977640512E+02 -0.23828404217E+02  0.97286256312E+02  0.70835633707E+02 0.  0.
         -6    2    1    2    0  503  0.15029533710E+02  0.11545814362E+02 -0.39257646136E+03  0.42795928058E+03  0.16933303015E+03 0.  0.
        -24    2    5    5    0    0  0.68055375948E+02  0.16166249511E+02 -0.19940873914E+03  0.22753735743E+03  0.84359480583E+02 0.  0.
          2    1    4    4  501    0 -0.11296228667E+02 -0.19630167491E+02  0.12902530302E+02  0.26065754277E+02  0.00000000000E+00 0. -1.
         -1    1    4    4    0  501  0.56374585259E+02 -0.23347473021E+02 -0.36730934519E+02  0.71220502035E+02  0.00000000000E+00 0.  1.
          5    1    3    3  502    0 -0.60107890302E+02  0.31431826150E+02 -0.10123749701E+03  0.12195096954E+03  0.47000000000E+01 0. -1.
         11    1    6    6    0    0  0.10637781384E+02 -0.28477670321E+01  0.65962079101E+01  0.12836749146E+02  0.00000000000E+00 0. -1.
        -12    1    6    6    0    0  0.57417594565E+02  0.19014016543E+02 -0.20600494705E+03  0.21470060829E+03  0.00000000000E+00 0.  1.
         -5    1    5    5    0  503 -0.53025842238E+02 -0.46204351486E+01 -0.19316772223E+03  0.20042192315E+03  0.47000000000E+01 0.  1.
<mgrwt>
<rscale>  2 0.17759618E+03</rscale>
<asrwt>0</asrwt>
<pdfrwt beam="1">  1       21 0.99657039E-02 0.18006521E+03</pdfrwt>
<pdfrwt beam="2">  1       21 0.89602985E-01 0.18006521E+03</pdfrwt>
<totfact> 0.87108790E+04</totfact>
</mgrwt>
</event>
<event>
12    1  0.2769346E-001  0.1811549E+03  0.7546771E-02  0.1166886E+00
         21   -1    0    0  504  503  0.00000000000E+00  0.00000000000E+00  0.19978893594E+03  0.19978893594E+03  0.00000000000E+00 0. -1.
         21   -1    0    0  502  504 -0.00000000000E+00 -0.00000000000E+00 -0.17658646088E+03  0.17658646088E+03  0.00000000000E+00 0. -1.
          6    2    1    2  502    0 -0.49186108616E+02  0.28330460124E+02 -0.39612089484E+02  0.18463916983E+03  0.17117423039E+03 0.  0.
         24    2    3    3    0    0 -0.66446792325E+02 -0.38078614411E+02 -0.14275065786E+02  0.11134420989E+03  0.79552488881E+02 0.  0.
         -6    2    1    2    0  503  0.49186108616E+02 -0.28330460124E+02  0.62814564539E+02  0.19173622699E+03  0.17203262182E+03 0.  0.
        -24    2    5    5    0    0 -0.80278604243E+01 -0.60321347574E+02  0.26894922280E+01  0.10266339469E+03  0.82640351674E+02 0.  0.
          2    1    4    4  501    0 -0.17105035547E+01 -0.17377062130E+02 -0.35983111492E+02  0.39995905082E+02  0.00000000000E+00 0. -1.
         -1    1    4    4    0  501 -0.64736288771E+02 -0.20701552281E+02  0.21708045706E+02  0.71348304808E+02  0.00000000000E+00 0.  1.
          5    1    3    3  502    0  0.17260683710E+02  0.66409074535E+02 -0.25337023698E+02  0.73294959940E+02  0.47000000000E+01 0. -1.
         13    1    6    6    0    0 -0.38515492871E+02 -0.50184756741E+01 -0.45207122013E+01  0.39103262371E+02  0.00000000000E+00 0. -1.
        -14    1    6    6    0    0  0.30487632447E+02 -0.55302871900E+02  0.72102044293E+01  0.63560132320E+02  0.00000000000E+00 0.  1.
         -5    1    5    5    0  503  0.57213969040E+02  0.31990887449E+02  0.60125072311E+02  0.89072832298E+02  0.47000000000E+01 0.  1.
<mgrwt>
<rscale>  2 0.18095085E+03</rscale>
<asrwt>0</asrwt>
<pdfrwt beam="1">  1       21 0.30736759E-01 0.18115494E+03</pdfrwt>
<pdfrwt beam="2">  1       21 0.27167148E-01 0.18115494E+03</pdfrwt>
<totfact> 0.13176899E+05</totfact>
</mgrwt>
</event>
<event>
12    1  0.2769346E-001  0.2180554E+03  0.7546771E-02  0.1135388E+00
         21   -1    0    0  504  503  0.00000000000E+00  0.00000000000E+00  0.68095257391E+02  0.68095257391E+02  0.00000000000E+00 0.  1.
         21   -1    0    0  502  504 -0.00000000000E+00 -0.00000000000E+00 -0.90849810240E+03  0.90849810240E+03  0.00000000000E+00 0.  1.
          6    2    1    2  502    0  0.33834433969E+02  0.12763509134E+03 -0.65572521041E+03  0.69103089635E+03  0.17353000516E+03 0.  0.
         24    2    3    3    0    0  0.40335115491E+02  0.16043246045E+03 -0.53149402415E+03  0.56229316326E+03  0.79512312521E+02 0.  0.
         -6    2    1    2    0  503 -0.33834433969E+02 -0.12763509134E+03 -0.18467763460E+03  0.28556246344E+03  0.17321837760E+03 0.  0.
        -24    2    5    5    0    0  0.32294407821E+01 -0.62383027546E+02 -0.18382895340E+03  0.21036689907E+03  0.80988126926E+02 0.  0.
          2    1    4    4  501    0  0.27483407585E+02  0.19878896889E+02 -0.49108989800E+02  0.59684178081E+02  0.00000000000E+00 0. -1.
         -1    1    4    4    0  501  0.12851707906E+02  0.14055356356E+03 -0.48238503435E+03  0.50260898518E+03  0.00000000000E+00 0.  1.
          5    1    3    3  502    0 -0.65006815225E+01 -0.32797369115E+02 -0.12423118626E+03  0.12873773309E+03  0.47000000000E+01 0. -1.
         13    1    6    6    0    0 -0.24578588020E+02 -0.57558745667E+02 -0.16491532476E+03  0.17639212152E+03  0.00000000000E+00 0. -1.
        -14    1    6    6    0    0  0.27808028802E+02 -0.48242818784E+01 -0.18913628634E+02  0.33974777550E+02  0.00000000000E+00 0.  1.
         -5    1    5    5    0  503 -0.37063874751E+02 -0.65252063793E+02 -0.84868120413E+00  0.75195564368E+02  0.47000000000E+01 0.  1.
<mgrwt>
<rscale>  2 0.21799337E+03</rscale>
<asrwt>0</asrwt>
<pdfrwt beam="1">  1       21 0.10476193E-01 0.21805538E+03</pdfrwt>
<pdfrwt beam="2">  1       21 0.13976894E+00 0.21805538E+03</pdfrwt>
<totfact> 0.26442553E+04</totfact>
</mgrwt>
</event>
<event>
12    1  0.2769346E-001  0.2289216E+03  0.7546771E-02  0.1127711E+00
         21   -1    0    0  504  503  0.00000000000E+00  0.00000000000E+00  0.13213358249E+03  0.13213358249E+03  0.00000000000E+00 0.  1.
         21   -1    0    0  502  504 -0.00000000000E+00 -0.00000000000E+00 -0.43281475401E+03  0.43281475401E+03  0.00000000000E+00 0. -1.
          6    2    1    2  502    0 -0.70172139973E+02  0.13241787671E+03 -0.23485270458E+03  0.32674992909E+03  0.17073693218E+03 0.  0.
         24    2    3    3    0    0 -0.10882197374E+03  0.77972571391E+02 -0.18723967478E+03  0.24460863906E+03  0.82781318121E+02 0.  0.
         -6    2    1    2    0  503  0.70172139973E+02 -0.13241787671E+03 -0.65828466945E+02  0.23819840741E+03  0.17305048665E+03 0.  0.
        -24    2    5    5    0    0  0.10004820659E+02 -0.45553597574E+02 -0.90088311415E+02  0.12968048558E+03  0.80783029155E+02 0.  0.
          2    1    4    4  501    0 -0.27657944362E+02  0.42195102662E+02 -0.12895545407E+03  0.13847345489E+03  0.00000000000E+00 0. -1.
         -1    1    4    4    0  501 -0.81164029378E+02  0.35777468730E+02 -0.58284220713E+02  0.10613518416E+03  0.00000000000E+00 0.  1.
          5    1    3    3  502    0  0.38649833766E+02  0.54445305322E+02 -0.47613029792E+02  0.82141290030E+02  0.47000000000E+01 0. -1.
         11    1    6    6    0    0  0.21624344750E+01 -0.68439037012E+02 -0.59745217417E+02  0.90873917678E+02  0.00000000000E+00 0. -1.
        -12    1    6    6    0    0  0.78423861837E+01  0.22885439437E+02 -0.30343093998E+02  0.38806567907E+02  0.00000000000E+00 0.  1.
         -5    1    5    5    0  503  0.60167319315E+02 -0.86864279139E+02  0.24259844470E+02  0.10851792183E+03  0.47000000000E+01 0.  1.
<mgrwt>
<rscale>  2 0.22848438E+03</rscale>
<asrwt>0</asrwt>
<pdfrwt beam="1">  1       21 0.20328243E-01 0.22892159E+03</pdfrwt>
<pdfrwt beam="2">  1       21 0.66586886E-01 0.22892159E+03</pdfrwt>
<totfact> 0.45499716E+04</totfact>
</mgrwt>
</event>
<event>
12    1  0.2769346E-001  0.1782306E+03  0.7546771E-02  0.1169646E+00
         21   -1    0    0  504  503  0.00000000000E+00  0.00000000000E+00  0.54121732515E+03  0.54121732515E+03  0.00000000000E+00 0.  1.
         21   -1    0    0  502  504 -0.00000000000E+00 -0.00000000000E+00 -0.82366505220E+02  0.82366505220E+02  0.00000000000E+00 0.  1.
          6    2    1    2  502    0  0.41089401532E+02  0.89321703831E+01  0.61932750718E+02  0.18868445162E+03  0.17319940556E+03 0.  0.
         24    2    3    3    0    0  0.37309972767E+02  0.43473308198E+02 -0.22673190791E+02  0.97100448530E+02  0.75049723054E+02 0.  0.
         -6    2    1    2    0  503 -0.41089401532E+02 -0.89321703831E+01  0.39691806921E+03  0.43489937875E+03  0.17270029932E+03 0.  0.
        -24    2    5    5    0    0  0.28554688136E+02 -0.27591044172E+02  0.12437682501E+03  0.15294322509E+03  0.79658016346E+02 0.  0.
          4    1    4    4  501    0  0.17360801615E+02 -0.23731891587E+01 -0.40412805648E+02  0.44047977477E+02  0.00000000000E+00 0. -1.
         -3    1    4    4    0  501  0.19949171153E+02  0.45846497357E+02  0.17739614856E+02  0.53052471053E+02  0.00000000000E+00 0.  1.
          5    1    3    3  502    0  0.37794287650E+01 -0.34541137815E+02  0.84605941509E+02  0.91584003090E+02  0.47000000000E+01 0. -1.
         13    1    6    6    0    0  0.42735164958E+02  0.14074000756E+02  0.63183974222E+02  0.77566657913E+02  0.00000000000E+00 0. -1.
        -14    1    6    6    0    0 -0.14180476823E+02 -0.41665044928E+02  0.61192850789E+02  0.75376567178E+02  0.00000000000E+00 0.  1.
         -5    1    5    5    0  503 -0.69644089668E+02  0.18658873789E+02  0.27254124420E+03  0.28195615366E+03  0.47000000000E+01 0.  1.
<mgrwt>
<rscale>  2 0.17810926E+03</rscale>
<asrwt>0</asrwt>
<pdfrwt beam="1">  1       21 0.83264201E-01 0.17823063E+03</pdfrwt>
<pdfrwt beam="2">  1       21 0.12671770E-01 0.17823063E+03</pdfrwt>
<totfact> 0.67284768E+04</totfact>
</mgrwt>
</event>
<event>
12    1  0.2769346E-001  0.1862291E+03  0.7546771E-02  0.1162115E+00
         21   -1    0    0  504  503  0.00000000000E+00  0.00000000000E+00  0.13612485966E+03  0.13612485966E+03  0.00000000000E+00 0. -1.
         21   -1    0    0  502  504 -0.00000000000E+00 -0.00000000000E+00 -0.38432459077E+03  0.38432459077E+03  0.00000000000E+00 0. -1.
          6    2    1    2  502    0  0.67251107241E+02  0.63957446109E+01 -0.27609186149E+03  0.33302851247E+03  0.17354439536E+03 0.  0.
         24    2    3    3    0    0 -0.72510651816E+01  0.24850430659E+02 -0.49982283171E+02  0.94200581648E+02  0.75534092314E+02 0.  0.
         -6    2    1    2    0  503 -0.67251107241E+02 -0.63957446109E+01  0.27892130383E+02  0.18742093796E+03  0.17258337137E+03 0.  0.
        -24    2    5    5    0    0 -0.50271692058E+02  0.49418621968E+02  0.58148937717E+02  0.12153384934E+03  0.80123244809E+02 0.  0.
          2    1    4    4  501    0  0.22107835065E+02  0.27036896121E+02  0.14317370858E+01  0.34954255738E+02  0.00000000000E+00 0. -1.
         -1    1    4    4    0  501 -0.29358900247E+02 -0.21864654620E+01 -0.51414020257E+02  0.59246325910E+02  0.00000000000E+00 0.  1.
          5    1    3    3  502    0  0.74502172423E+02 -0.18454686048E+02 -0.22610957832E+03  0.23882793082E+03  0.47000000000E+01 0. -1.
         11    1    6    6    0    0 -0.71204996559E+02  0.47232138530E+02  0.43423938849E+02  0.95847091298E+02  0.00000000000E+00 0. -1.
        -12    1    6    6    0    0  0.20933304501E+02  0.21864834383E+01  0.14724998868E+02  0.25686758044E+02  0.00000000000E+00 0.  1.
         -5    1    5    5    0  503 -0.16979415184E+02 -0.55814366579E+02 -0.30256807334E+02  0.65887088619E+02  0.47000000000E+01 0.  1.
<mgrwt>
<rscale>  2 0.18600488E+03</rscale>
<asrwt>0</asrwt>
<pdfrwt beam="1">  1       21 0.20942286E-01 0.18622909E+03</pdfrwt>
<pdfrwt beam="2">  1       21 0.59126860E-01 0.18622909E+03</pdfrwt>
<totfact> 0.56792188E+04</totfact>
</mgrwt>
</event>
<event>
12    1  0.2769346E-001  0.2271460E+03  0.7546771E-02  0.1128824E+00
         21   -1    0    0  504  503  0.00000000000E+00  0.00000000000E+00  0.83425297700E+02  0.83425297700E+02  0.00000000000E+00 0.  1.
         21   -1    0    0  502  504 -0.00000000000E+00 -0.00000000000E+00 -0.67432724163E+03  0.67432724163E+03  0.00000000000E+00 0. -1.
          6    2    1    2  502    0 -0.14369224351E+03 -0.23329030081E+02 -0.40735942636E+03  0.46640861147E+03  0.17436624133E+03 0.  0.
         24    2    3    3    0    0 -0.28900850600E+02 -0.45519572933E+02 -0.10590281107E+03  0.14303937208E+03  0.79608830462E+02 0.  0.
         -6    2    1    2    0  503  0.14369224351E+03  0.23329030081E+02 -0.18354251757E+03  0.29134392786E+03  0.17321005761E+03 0.  0.
        -24    2    5    5    0    0  0.15320304568E+03  0.36196336124E+02 -0.20070245374E+03  0.26741536058E+03  0.80300387175E+02 0.  0.
          4    1    4    4  501    0 -0.40747057574E+02 -0.35410228344E+02 -0.11352066179E+03  0.12570261583E+03  0.00000000000E+00 0. -1.
         -3    1    4    4    0  501  0.11846206973E+02 -0.10109344588E+02  0.76178507249E+01  0.17336756251E+02  0.00000000000E+00 0.  1.
          5    1    3    3  502    0 -0.11479139291E+03  0.22190542852E+02 -0.30145661530E+03  0.32336923939E+03  0.47000000000E+01 0. -1.
         11    1    6    6    0    0  0.62418943869E+02 -0.21091333431E+02 -0.51587360709E+02  0.83679296630E+02  0.00000000000E+00 0. -1.
        -12    1    6    6    0    0  0.90784101811E+02  0.57287669555E+02 -0.14911509303E+03  0.18373606395E+03  0.00000000000E+00 0.  1.
         -5    1    5    5    0  503 -0.95108021675E+01 -0.12867306043E+02  0.17159936175E+02  0.23928567283E+02  0.47000000000E+01 0.  1.
<mgrwt>
<rscale>  2 0.22692406E+03</rscale>
<asrwt>0</asrwt>
<pdfrwt beam="1">  1       21 0.12834661E-01 0.22714597E+03</pdfrwt>
<pdfrwt beam="2">  1       21 0.10374265E+00 0.22714597E+03</pdfrwt>
<totfact> 0.38416946E+04</totfact>
</mgrwt>
</event>
<event>
12    1  0.2769346E-001  0.2122549E+03  0.7546771E-02  0.1139924E+00
         21   -1    0    0  504  503  0.00000000000E+00  0.00000000000E+00  0.29350070133E+03  0.29350070133E+03  0.00000000000E+00 0. -1.
         21   -1    0    0  502  504 -0.00000000000E+00 -0.00000000000E+00 -0.15311253987E+03  0.15311253987E+03  0.00000000000E+00 0.  1.
          6    2    1    2  502    0  0.98299998674E+02 -0.72931433117E+02  0.64439626658E+02  0.22117963928E+03  0.17258645274E+03 0.  0.
         24    2    3    3    0    0 -0.55350441337E+01 -0.25327462904E+02  0.67118631664E+02  0.10682439819E+03  0.78958370313E+02 0.  0.
         -6    2    1    2    0  503 -0.98299998674E+02  0.72931433117E+02  0.75948534794E+02  0.22543360192E+03  0.17340774280E+03 0.  0.
        -24    2    5    5    0    0 -0.71021550866E+02  0.30809547905E+02  0.11653126295E+03  0.16072336507E+03  0.79114953754E+02 0.  0.
          2    1    4    4  501    0  0.30275064047E+02 -0.18161759458E+02  0.60001134591E+02  0.69617276317E+02  0.00000000000E+00 0. -1.
         -1    1    4    4    0  501 -0.35810108181E+02 -0.71657034453E+01  0.71174970736E+01  0.37207121877E+02  0.00000000000E+00 0.  1.
          5    1    3    3  502    0  0.10383504281E+03 -0.47603970213E+02 -0.26790050063E+01  0.11435524108E+03  0.47000000000E+01 0. -1.
         13    1    6    6    0    0 -0.47232027986E+02  0.52224403159E+02  0.10555317029E+03  0.12688468982E+03  0.00000000000E+00 0. -1.
        -14    1    6    6    0    0 -0.23789522880E+02 -0.21414855254E+02  0.10978092656E+02  0.33838675252E+02  0.00000000000E+00 0.  1.
         -5    1    5    5    0  503 -0.27278447808E+02  0.42121885212E+02 -0.40582728152E+02  0.64710236848E+02  0.47000000000E+01 0.  1.
<mgrwt>
<rscale>  2 0.21208706E+03</rscale>
<asrwt>0</asrwt>
<pdfrwt beam="1">  1       21 0.45153954E-01 0.21225487E+03</pdfrwt>
<pdfrwt beam="2">  1       21 0.23555775E-01 0.21225487E+03</pdfrwt>
<totfact> 0.79155624E+04</totfact>
</mgrwt>
</event>
<event>
12    1  0.2769346E-001  0.1760498E+03  0.7546771E-02  0.1171703E+00
         21   -1    0    0  504  503  0.00000000000E+00  0.00000000000E+00  0.17198182865E+04  0.17198182865E+04  0.00000000000E+00 0. -1.
         21   -1    0    0  502  504 -0.00000000000E+00 -0.00000000000E+00 -0.19796415973E+02  0.19796415973E+02  0.00000000000E+00 0. -1.
          6    2    1    2  502    0  0.24098634345E+02 -0.17295692540E+02  0.11112835647E+04  0.11251420702E+04  0.17353279727E+03 0.  0.
         24    2    3    3    0    0  0.83623647498E+02 -0.20096564001E+02  0.86131904317E+03  0.86812957223E+03  0.66194212347E+02 0.  0.
         -6    2    1    2    0  503 -0.24098634345E+02  0.17295692540E+02  0.58873830581E+03  0.61447263229E+03  0.17344721949E+03 0.  0.
        -24    2    5    5    0    0 -0.60434319982E+02 -0.45942283886E+02  0.38277873254E+03  0.39593028048E+03  0.66919566909E+02 0.  0.
          2    1    4    4  501    0  0.82585074499E+02 -0.45681921243E+01  0.81663307534E+03  0.82081102737E+03  0.00000000000E+00 0. -1.
         -1    1    4    4    0  501  0.10385729991E+01 -0.15528371877E+02  0.44685967833E+02  0.47318544865E+02  0.00000000000E+00 0.  1.
          5    1    3    3  502    0 -0.59525013153E+02  0.28008714614E+01  0.24996452153E+03  0.25701249794E+03  0.47000000000E+01 0. -1.
         13    1    6    6    0    0  0.21931000059E+01 -0.23080063305E+02  0.20060442030E+03  0.20193967528E+03  0.00000000000E+00 0. -1.
        -14    1    6    6    0    0 -0.62627419988E+02 -0.22862220581E+02  0.18217431225E+03  0.19399060520E+03  0.00000000000E+00 0.  1.
         -5    1    5    5    0  503  0.36335685637E+02  0.63237976426E+02  0.20595957327E+03  0.21854235181E+03  0.47000000000E+01 0.  1.
<mgrwt>
<rscale>  2 0.17602866E+03</rscale>
<asrwt>0</asrwt>
<pdfrwt beam="1">  1       21 0.26458731E+00 0.17604976E+03</pdfrwt>
<pdfrwt beam="2">  1       21 0.30456038E-02 0.17604976E+03</pdfrwt>
<totfact> 0.34218487E+04</totfact>
</mgrwt>
</event>
<event>
12    1  0.2769346E-001  0.1972801E+03  0.7546771E-02  0.1152062E+00
         21   -1    0    0  504  503  0.00000000000E+00  0.00000000000E+00  0.39635596104E+03  0.39635596104E+03  0.00000000000E+00 0. -1.
         21   -1    0    0  502  504 -0.00000000000E+00 -0.00000000000E+00 -0.11504987132E+03  0.11504987132E+03  0.00000000000E+00 0. -1.
          6    2    1    2  502    0 -0.91383812487E+02 -0.25125656123E+02  0.42709672996E+02  0.20181308645E+03  0.17298007375E+03 0.  0.
         24    2    3    3    0    0 -0.39135214237E+02 -0.81068333984E+02  0.25565522893E+02  0.12322866619E+03  0.80175235838E+02 0.  0.
         -6    2    1    2    0  503  0.91383812487E+02  0.25125656123E+02  0.23859641672E+03  0.30959274590E+03  0.17302346217E+03 0.  0.
        -24    2    5    5    0    0  0.57002347889E+02 -0.51848917321E+02  0.16032300008E+03  0.19445809509E+03  0.78567859195E+02 0.  0.
          2    1    4    4  501    0 -0.40217092221E+02 -0.61859194877E+02  0.52193200462E+02  0.90377567305E+02  0.00000000000E+00 0. -1.
         -1    1    4    4    0  501  0.10818779839E+01 -0.19209139106E+02 -0.26627677569E+02  0.32851098884E+02  0.00000000000E+00 0.  1.
          5    1    3    3  502    0 -0.52248598250E+02  0.55942677860E+02  0.17144150103E+02  0.78584420263E+02  0.47000000000E+01 0. -1.
         11    1    6    6    0    0  0.20995603363E+02  0.80361091484E+01  0.98901036831E+02  0.10142390989E+03  0.00000000000E+00 0. -1.
        -12    1    6    6    0    0  0.36006744526E+02 -0.59885026469E+02  0.61421963254E+02  0.93034185204E+02  0.00000000000E+00 0.  1.
         -5    1    5    5    0  503  0.34381464598E+02  0.76974573444E+02  0.78273416640E+02  0.11513465081E+03  0.47000000000E+01 0.  1.
<mgrwt>
<rscale>  2 0.19727054E+03</rscale>
<asrwt>0</asrwt>
<pdfrwt beam="1">  1       21 0.60977839E-01 0.19728005E+03</pdfrwt>
<pdfrwt beam="2">  1       21 0.17699980E-01 0.19728005E+03</pdfrwt>
<totfact> 0.72332121E+04</totfact>
</mgrwt>
</event>
<event>
12    1  0.2769346E-001  0.1735809E+03  0.7546771E-02  0.1174276E+00
         21   -1    0    0  504  503  0.00000000000E+00  0.00000000000E+00  0.24106609600E+03  0.24106609600E+03  0.00000000000E+00 0. -1.
         21   -1    0    0  502  504 -0.00000000000E+00 -0.00000000000E+00 -0.23041434359E+03  0.23041434359E+03  0.00000000000E+00 0. -1.
          6    2    1    2  502    0 -0.52972779454E+01 -0.24371172780E+02 -0.15437740676E+03  0.23197063228E+03  0.17133585528E+03 0.  0.
         24    2    3    3    0    0  0.43063437666E+02  0.44821213083E+02 -0.10122855874E+03  0.13210454633E+03  0.57801291096E+02 0.  0.
         -6    2    1    2    0  503  0.52972779454E+01  0.24371172780E+02  0.16502915917E+03  0.23950980732E+03  0.17177982771E+03 0.  0.
        -24    2    5    5    0    0  0.12857252320E+02  0.54319392317E+02  0.18294460539E+03  0.20349450114E+03  0.69464941026E+02 0.  0.
          2    1    4    4  501    0  0.96046125595E+01  0.15077415225E+02 -0.81051536447E+02  0.82999569835E+02  0.00000000000E+00 0. -1.
         -1    1    4    4    0  501  0.33458825107E+02  0.29743797858E+02 -0.20177022290E+02  0.49104976500E+02  0.00000000000E+00 0.  1.
          5    1    3    3  502    0 -0.48360715612E+02 -0.69192385862E+02 -0.53148848024E+02  0.99866085946E+02  0.47000000000E+01 0. -1.
         11    1    6    6    0    0 -0.23979981413E+02  0.35968777261E+02  0.12618610380E+03  0.13338562606E+03  0.00000000000E+00 0. -1.
        -12    1    6    6    0    0  0.36837233733E+02  0.18350615056E+02  0.56758501591E+02  0.70108875079E+02  0.00000000000E+00 0.  1.
         -5    1    5    5    0  503 -0.75599743745E+01 -0.29948219538E+02 -0.17915446219E+02  0.36015306180E+02  0.47000000000E+01 0.  1.
<mgrwt>
<rscale>  2 0.17347094E+03</rscale>
<asrwt>0</asrwt>
<pdfrwt beam="1">  1       21 0.37087092E-01 0.17358089E+03</pdfrwt>
<pdfrwt beam="2">  1       21 0.35448361E-01 0.17358089E+03</pdfrwt>
<totfact> 0.54280326E+04</totfact>
</mgrwt>
</event>
<event>
12    1  0.2769346E-001  0.2168987E+03  0.7546771E-02  0.1136596E+00
         21   -1    0    0  504  503  0.00000000000E+00  0.00000000000E+00  0.82631861637E+03  0.82631861637E+03  0.00000000000E+00 0. -1.
         21   -1    0    0  502  504 -0.00000000000E+00 -0.00000000000E+00 -0.12506797811E+03  0.12506797811E+03  0.00000000000E+00 0. -1.
          6    2    1    2  502    0  0.29565935783E+02 -0.12558840882E+03 -0.10897488087E+01  0.21690145436E+03  0.17435154247E+03 0.  0.
         24    2    3    3    0    0 -0.36424341267E+02 -0.98945261534E+02  0.30502131453E+02  0.13889689769E+03  0.85117981340E+02 0.  0.
         -6    2    1    2    0  503 -0.29565935783E+02  0.12558840882E+03  0.70234038708E+03  0.73448514012E+03  0.17187148907E+03 0.  0.
        -24    2    5    5    0    0  0.46500609674E+02  0.74490525221E+02  0.31629365677E+03  0.33768382835E+03  0.79230963439E+02 0.  0.
          2    1    4    4  501    0 -0.20781781171E+01 -0.98365054158E+02  0.34619166168E+02  0.10429999698E+03  0.00000000000E+00 0. -1.
         -1    1    4    4    0  501 -0.34346163150E+02 -0.58020737541E+00 -0.41170347147E+01  0.34596900708E+02  0.00000000000E+00 0.  1.
          5    1    3    3  502    0  0.65990277050E+02 -0.26643147286E+02 -0.31591880262E+02  0.78004556668E+02  0.47000000000E+01 0. -1.
         13    1    6    6    0    0  0.24695995932E+02  0.82407255484E+02  0.29060603509E+03  0.30307212937E+03  0.00000000000E+00 0. -1.
        -14    1    6    6    0    0  0.21804613742E+02 -0.79167302621E+01  0.25687621680E+02  0.34611698977E+02  0.00000000000E+00 0.  1.
         -5    1    5    5    0  503 -0.76066545457E+02  0.51097883598E+02  0.38604673031E+03  0.39680131178E+03  0.47000000000E+01 0.  1.
<mgrwt>
<rscale>  2 0.21639987E+03</rscale>
<asrwt>0</asrwt>
<pdfrwt beam="1">  1       21 0.12712594E+00 0.21689872E+03</pdfrwt>
<pdfrwt beam="2">  1       21 0.19241228E-01 0.21689872E+03</pdfrwt>
<totfact> 0.11154673E+04</totfact>
</mgrwt>
</event>
<event>
12    1  0.2769346E-001  0.2216759E+03  0.7546771E-02  0.1133257E+00
         21   -1    0    0  504  503  0.00000000000E+00  0.00000000000E+00  0.90568215595E+03  0.90568215595E+03  0.00000000000E+00 0. -1.
         21   -1    0    0  502  504 -0.00000000000E+00 -0.00000000000E+00 -0.67851653077E+02  0.67851653077E+02  0.00000000000E+00 0. -1.
          6    2    1    2  502    0  0.12167129995E+03  0.54242729779E+02  0.19714305888E+03  0.29665735183E+03  0.17718357646E+03 0.  0.
         24    2    3    3    0    0  0.29338819363E+01  0.55363428211E+02  0.53810252363E+02  0.11046870066E+03  0.78956150610E+02 0.  0.
         -6    2    1    2    0  503 -0.12167129995E+03 -0.54242729779E+02  0.64068744399E+03  0.67687645719E+03  0.17301779808E+03 0.  0.
        -24    2    5    5    0    0 -0.10708580238E+03  0.73003008620E+01  0.28096140203E+03  0.31160231819E+03  0.81461842650E+02 0.  0.
          2    1    4    4  501    0  0.39817379468E+02  0.35423840960E+02  0.21217374284E+02  0.57362437078E+02  0.00000000000E+00 0. -1.
         -1    1    4    4    0  501 -0.36883497532E+02  0.19939587251E+02  0.32592878079E+02  0.53106263580E+02  0.00000000000E+00 0.  1.
          5    1    3    3  502    0  0.11873741801E+03 -0.11206984322E+01  0.14333280652E+03  0.18618865117E+03  0.47000000000E+01 0. -1.
         11    1    6    6    0    0 -0.72052528703E+02 -0.33333505457E+02  0.19123490101E+03  0.20705911436E+03  0.00000000000E+00 0. -1.
        -12    1    6    6    0    0 -0.35033273675E+02  0.40633806319E+02  0.89726501021E+02  0.10454320382E+03  0.00000000000E+00 0.  1.
         -5    1    5    5    0  503 -0.14585497572E+02 -0.61543030641E+02  0.35972604196E+03  0.36527413900E+03  0.47000000000E+01 0.  1.
<mgrwt>
<rscale>  2 0.22084237E+03</rscale>
<asrwt>0</asrwt>
<pdfrwt beam="1">  1       21 0.13933571E+00 0.22167589E+03</pdfrwt>
<pdfrwt beam="2">  1       21 0.10438717E-01 0.22167589E+03</pdfrwt>
<totfact> 0.26770762E+04</totfact>
</mgrwt>
</event>
<event>
12    1  0.2769346E-001  0.3034659E+03  0.7546771E-02  0.1083810E+00
         21   -1    0    0  504  503  0.00000000000E+00  0.00000000000E+00  0.26185901697E+03  0.26185901697E+03  0.00000000000E+00 0. -1.
         21   -1    0    0  502  504 -0.00000000000E+00 -0.00000000000E+00 -0.40327256687E+03  0.40327256687E+03  0.00000000000E+00 0.  1.
          6    2    1    2  502    0  0.43441788493E+02 -0.24450557732E+03 -0.19249930458E+03  0.35739579209E+03  0.17031031564E+03 0.  0.
         24    2    3    3    0    0  0.68224761634E+02 -0.10366845136E+03 -0.14430862828E+03  0.20641988975E+03  0.79890079356E+02 0.  0.
         -6    2    1    2    0  503 -0.43441788493E+02  0.24450557732E+03  0.51085754678E+02  0.30773579175E+03  0.17441730668E+03 0.  0.
        -24    2    5    5    0    0 -0.25049794626E+02  0.10690508000E+03  0.90467586776E+02  0.16335718877E+03  0.80280748157E+02 0.  0.
          2    1    4    4  501    0  0.51014244325E+02 -0.73156167394E+02 -0.42582647585E+02  0.98830965933E+02  0.00000000000E+00 0. -1.
         -1    1    4    4    0  501  0.17210517308E+02 -0.30512283965E+02 -0.10172598070E+03  0.10758892381E+03  0.00000000000E+00 0.  1.
          5    1    3    3  502    0 -0.24782973140E+02 -0.14083712596E+03 -0.48190676299E+02  0.15097590234E+03  0.47000000000E+01 0. -1.
         13    1    6    6    0    0  0.27024546078E+02  0.21675133616E+02  0.34381032048E+02  0.48807713249E+02  0.00000000000E+00 0. -1.
        -14    1    6    6    0    0 -0.52074340704E+02  0.85229946386E+02  0.56086554729E+02  0.11454947552E+03  0.00000000000E+00 0.  1.
         -5    1    5    5    0  503 -0.18391993867E+02  0.13760049732E+03 -0.39381832099E+02  0.14437860298E+03  0.47000000000E+01 0.  1.
<mgrwt>
<rscale>  2 0.30287878E+03</rscale>
<asrwt>0</asrwt>
<pdfrwt beam="1">  1       21 0.40286003E-01 0.30346592E+03</pdfrwt>
<pdfrwt beam="2">  1       21 0.62041933E-01 0.30346592E+03</pdfrwt>
<totfact> 0.13500081E+04</totfact>
</mgrwt>
</event>
<event>
12    1  0.2769346E-001  0.2691480E+03  0.7546771E-02  0.1101990E+00
         21   -1    0    0  504  503  0.00000000000E+00  0.00000000000E+00  0.88750144696E+02  0.88750144696E+02  0.00000000000E+00 0. -1.
         21   -1    0    0  502  504 -0.00000000000E+00 -0.00000000000E+00 -0.84440837121E+03  0.84440837121E+03  0.00000000000E+00 0. -1.
          6    2    1    2  502    0  0.65622433157E+02 -0.19405202260E+03 -0.28685598984E+03  0.39335352887E+03  0.17457992027E+03 0.  0.
         24    2    3    3    0    0 -0.98060665612E+01 -0.36613458379E+02 -0.65094229289E+02  0.11108286353E+03  0.81642143569E+02 0.  0.
         -6    2    1    2    0  503 -0.65622433157E+02  0.19405202260E+03 -0.46880223668E+03  0.53980498703E+03  0.17219580630E+03 0.  0.
        -24    2    5    5    0    0  0.10840303616E+02  0.67159846044E+02 -0.10375758308E+03  0.14581531241E+03  0.76606215057E+02 0.  0.
          2    1    4    4  501    0 -0.38626368999E+02  0.37642227572E+01 -0.39044053243E+02  0.55050920507E+02  0.00000000000E+00 0. -1.
         -1    1    4    4    0  501  0.28820302437E+02 -0.40377681136E+02 -0.26050176046E+02  0.56031943019E+02  0.00000000000E+00 0.  1.
          5    1    3    3  502    0  0.75428499718E+02 -0.15743856422E+03 -0.22176176055E+03  0.28227066535E+03  0.47000000000E+01 0. -1.
         13    1    6    6    0    0  0.30004385975E+02  0.47162106232E+02 -0.10405207559E+03  0.11811588325E+03  0.00000000000E+00 0. -1.
        -14    1    6    6    0    0 -0.19164082359E+02  0.19997739812E+02  0.29449250846E+00  0.27699429166E+02  0.00000000000E+00 0.  1.
         -5    1    5    5    0  503 -0.76462736772E+02  0.12689217655E+03 -0.36504465360E+03  0.39398967462E+03  0.47000000000E+01 0.  1.
<mgrwt>
<rscale>  2 0.26876209E+03</rscale>
<asrwt>0</asrwt>
<pdfrwt beam="1">  1       21 0.13653869E-01 0.26914799E+03</pdfrwt>
<pdfrwt beam="2">  1       21 0.12990898E+00 0.26914799E+03</pdfrwt>
<totfact> 0.19287352E+04</totfact>
</mgrwt>
</event>
<event>
12    1  0.2769346E-001  0.1921613E+03  0.7546771E-02  0.1156953E+00
         21   -1    0    0  504  503  0.00000000000E+00  0.00000000000E+00  0.30121874894E+03  0.30121874894E+03  0.00000000000E+00 0.  1.
         21   -1    0    0  502  504 -0.00000000000E+00 -0.00000000000E+00 -0.18593719967E+03  0.18593719967E+03  0.00000000000E+00 0. -1.
          6    2    1    2  502    0 -0.11316371047E+02 -0.81289767639E+02 -0.85703242480E+02  0.21040676758E+03  0.17375233954E+03 0.  0.
         24    2    3    3    0    0 -0.89433795944E+01 -0.12290408172E+03 -0.83038665740E+02  0.16837615738E+03  0.79181519461E+02 0.  0.
         -6    2    1    2    0  503  0.11316371047E+02  0.81289767639E+02  0.20098479176E+03  0.27674918103E+03  0.17163663976E+03 0.  0.
        -24    2    5    5    0    0 -0.55743298289E+02  0.71075106885E+02  0.13987444774E+03  0.18532761524E+03  0.81378607246E+02 0.  0.
          4    1    4    4  501    0  0.15906969750E+02 -0.66664397443E+02 -0.82016248444E+02  0.10688235861E+03  0.00000000000E+00 0. -1.
         -3    1    4    4    0  501 -0.24850349345E+02 -0.56239684276E+02 -0.10224172965E+01  0.61493798770E+02  0.00000000000E+00 0.  1.
          5    1    3    3  502    0 -0.23729914525E+01  0.41614314080E+02 -0.26645767400E+01  0.42030610203E+02  0.47000000000E+01 0. -1.
         13    1    6    6    0    0  0.11297338111E+02 -0.96489243179E+01  0.82458542559E+01  0.16991930476E+02  0.00000000000E+00 0. -1.
        -14    1    6    6    0    0 -0.67040636399E+02  0.80724031202E+02  0.13162859349E+03  0.16833568477E+03  0.00000000000E+00 0.  1.
         -5    1    5    5    0  503  0.67059669335E+02  0.10214660754E+02  0.61110344014E+02  0.91421565788E+02  0.47000000000E+01 0.  1.
<mgrwt>
<rscale>  2 0.19168178E+03</rscale>
<asrwt>0</asrwt>
<pdfrwt beam="1">  1       21 0.46341346E-01 0.19216129E+03</pdfrwt>
<pdfrwt beam="2">  1       21 0.28605723E-01 0.19216129E+03</pdfrwt>
<totfact> 0.52155864E+04</totfact>
</mgrwt>
</event>
<event>
12    1  0.2769346E-001  0.1911549E+03  0.7546771E-02  0.1157508E+00
         21   -1    0    0  504  503  0.00000000000E+00  0.00000000000E+00  0.11147651237E+03  0.11147651237E+03  0.00000000000E+00 0. -1.
         21   -1    0    0  502  504 -0.00000000000E+00 -0.00000000000E+00 -0.42103075027E+03  0.42103075027E+03  0.00000000000E+00 0. -1.
          6    2    1    2  502    0 -0.27511279471E+02  0.76204159601E+02 -0.28039282466E+03  0.33914080101E+03  0.17272059039E+03 0.  0.
         24    2    3    3    0    0  0.33759919573E+02  0.80453391484E+02 -0.17740028531E+03  0.21913343054E+03  0.94531046650E+02 0.  0.
         -6    2    1    2    0  503  0.27511279471E+02 -0.76204159601E+02 -0.29161413232E+02  0.19336646164E+03  0.17313652424E+03 0.  0.
        -24    2    5    5    0    0  0.52719880886E+02 -0.15618271298E+02  0.20562116938E+02  0.11090045107E+03  0.94089282895E+02 0.  0.
          2    1    4    4  501    0 -0.18578389464E+02  0.73376901391E+02 -0.10938753327E+03  0.13302239904E+03  0.00000000000E+00 0. -1.
         -1    1    4    4    0  501  0.52338309037E+02  0.70764900931E+01 -0.68012752049E+02  0.86111031501E+02  0.00000000000E+00 0.  1.
          5    1    3    3  502    0 -0.61271199043E+02 -0.42492318834E+01 -0.10299253935E+03  0.12000737046E+03  0.47000000000E+01 0. -1.
         11    1    6    6    0    0  0.47561965517E+02 -0.25388512921E+02 -0.28240778852E+02  0.60862621883E+02  0.00000000000E+00 0. -1.
        -12    1    6    6    0    0  0.51579153691E+01  0.97702416238E+01  0.48802895790E+02  0.50037829188E+02  0.00000000000E+00 0.  1.
         -5    1    5    5    0  503 -0.25208601416E+02 -0.60585888303E+02 -0.49723530170E+02  0.82466010570E+02  0.47000000000E+01 0.  1.
<mgrwt>
<rscale>  2 0.19106068E+03</rscale>
<asrwt>0</asrwt>
<pdfrwt beam="1">  1       21 0.17150233E-01 0.19115491E+03</pdfrwt>
<pdfrwt beam="2">  1       21 0.64773962E-01 0.19115491E+03</pdfrwt>
<totfact> 0.67457036E+04</totfact>
</mgrwt>
</event>
<event>
12    1  0.2769346E-001  0.1880968E+03  0.7546771E-02  0.1160309E+00
         21   -1    0    0  504  503  0.00000000000E+00  0.00000000000E+00  0.22276235867E+03  0.22276235867E+03  0.00000000000E+00 0.  1.
         21   -1    0    0  502  504 -0.00000000000E+00 -0.00000000000E+00 -0.15974492504E+03  0.15974492504E+03  0.00000000000E+00 0. -1.
          6    2    1    2  502    0 -0.37326802376E+02  0.65142038910E+02  0.49213956813E+02  0.19442840535E+03  0.17246337540E+03 0.  0.
         24    2    3    3    0    0  0.98365121388E+01  0.95963401581E+02  0.84610220764E+01  0.12473460131E+03  0.78621882798E+02 0.  0.
         -6    2    1    2    0  503  0.37326802376E+02 -0.65142038910E+02  0.13803476808E+02  0.18807887836E+03  0.17189052651E+03 0.  0.
        -24    2    5    5    0    0  0.85568676861E+02 -0.67945478954E+02  0.25243318647E+02  0.13819804325E+03  0.80764394695E+02 0.  0.
          2    1    4    4  501    0  0.27408879736E+02  0.54674265560E+01 -0.11817066215E+02  0.30344398090E+02  0.00000000000E+00 0. -1.
         -1    1    4    4    0  501 -0.17572367597E+02  0.90495975025E+02  0.20278088291E+02  0.94390203218E+02  0.00000000000E+00 0.  1.
          5    1    3    3  502    0 -0.47163314514E+02 -0.30821362672E+02  0.40752934736E+02  0.69693804047E+02  0.47000000000E+01 0. -1.
         13    1    6    6    0    0  0.80945060574E+02 -0.17155620608E+02  0.36741623538E+01  0.82824619642E+02  0.00000000000E+00 0. -1.
        -14    1    6    6    0    0  0.46236162867E+01 -0.50789858346E+02  0.21569156293E+02  0.55373423603E+02  0.00000000000E+00 0.  1.
         -5    1    5    5    0  503 -0.48241874486E+02  0.28034400446E+01 -0.11439841839E+02  0.49880835110E+02  0.47000000000E+01 0.  1.
<mgrwt>
<rscale>  2 0.18796535E+03</rscale>
<asrwt>0</asrwt>
<pdfrwt beam="1">  1       21 0.34271132E-01 0.18809676E+03</pdfrwt>
<pdfrwt beam="2">  1       21 0.24576142E-01 0.18809676E+03</pdfrwt>
<totfact> 0.12859460E+05</totfact>
</mgrwt>
</event>
<event>
12    1  0.2769346E-001  0.2516814E+03  0.7546771E-02  0.1112323E+00
         21   -1    0    0  504  503  0.00000000000E+00  0.00000000000E+00  0.41854026799E+03  0.41854026799E+03  0.00000000000E+00 0. -1.
         21   -1    0    0  502  504 -0.00000000000E+00 -0.00000000000E+00 -0.15383281995E+03  0.15383281995E+03  0.00000000000E+00 0.  1.
          6    2    1    2  502    0  0.12189449305E+03  0.13686555787E+03  0.94007346954E+02  0.26866501309E+03  0.17249075225E+03 0.  0.
         24    2    3    3    0    0  0.25427869709E+02  0.96595519365E+02 -0.72786018140E+00  0.12751142691E+03  0.79255052167E+02 0.  0.
         -6    2    1    2    0  503 -0.12189449305E+03 -0.13686555787E+03  0.17070010109E+03  0.30370807484E+03  0.17178364837E+03 0.  0.
        -24    2    5    5    0    0 -0.83622315486E+02 -0.33922833575E+02  0.32732465825E+02  0.12730194558E+03  0.83611726121E+02 0.  0.
          2    1    4    4  501    0  0.49985493748E+02  0.46630162618E+02 -0.15111698274E+02  0.70009178510E+02  0.00000000000E+00 0. -1.
         -1    1    4    4    0  501 -0.24557624039E+02  0.49965356747E+02  0.14383838092E+02  0.57502248405E+02  0.00000000000E+00 0.  1.
          5    1    3    3  502    0  0.96466623339E+02  0.40270038507E+02  0.94735207135E+02  0.14115358618E+03  0.47000000000E+01 0. -1.
         11    1    6    6    0    0  0.45292778037E+01  0.12526769777E+02 -0.12140714426E+02  0.18023075909E+02  0.00000000000E+00 0. -1.
        -12    1    6    6    0    0 -0.88151593289E+02 -0.46449603352E+02  0.44873180250E+02  0.10927886967E+03  0.00000000000E+00 0.  1.
         -5    1    5    5    0  503 -0.38272177563E+02 -0.10294272430E+03  0.13796763527E+03  0.17640612926E+03  0.47000000000E+01 0.  1.
<mgrwt>
<rscale>  2 0.25156025E+03</rscale>
<asrwt>0</asrwt>
<pdfrwt beam="1">  1       21 0.64390810E-01 0.25168136E+03</pdfrwt>
<pdfrwt beam="2">  1       21 0.23666588E-01 0.25168136E+03</pdfrwt>
<totfact> 0.36354101E+04</totfact>
</mgrwt>
</event>
<event>
12    1  0.2769346E-001  0.2278298E+03  0.7546771E-02  0.1128594E+00
         21   -1    0    0  504  503  0.00000000000E+00  0.00000000000E+00  0.15843370848E+03  0.15843370848E+03  0.00000000000E+00 0. -1.
         21   -1    0    0  502  504 -0.00000000000E+00 -0.00000000000E+00 -0.41071668834E+03  0.41071668834E+03  0.00000000000E+00 0.  1.
          6    2    1    2  502    0 -0.13611395166E+03 -0.43679624786E+02 -0.25720458159E+03  0.34359949708E+03  0.17740208607E+03 0.  0.
         24    2    3    3    0    0 -0.71978816966E+02 -0.52463803225E+02 -0.58102767928E+02  0.13418579290E+03  0.81832112494E+02 0.  0.
         -6    2    1    2    0  503  0.13611395166E+03  0.43679624786E+02  0.49216017336E+01  0.22555089974E+03  0.17439629800E+03 0.  0.
        -24    2    5    5    0    0  0.14756590264E+03 -0.65420401682E+01  0.26132250923E+02  0.16964611953E+03  0.79236465212E+02 0.  0.
          4    1    4    4  501    0 -0.41549545872E+02  0.41410717315E+00  0.10015072922E+02  0.42741524687E+02  0.00000000000E+00 0. -1.
         -3    1    4    4    0  501 -0.30429271094E+02 -0.52877910398E+02 -0.68117840849E+02  0.91444268215E+02  0.00000000000E+00 0.  1.
          5    1    3    3  502    0 -0.64135134690E+02  0.87841784388E+01 -0.19910181366E+03  0.20941370418E+03  0.47000000000E+01 0. -1.
         13    1    6    6    0    0  0.11527911782E+03  0.27132263744E+02  0.31871194098E+02  0.12264260171E+03  0.00000000000E+00 0. -1.
        -14    1    6    6    0    0  0.32286784822E+02 -0.33674303912E+02 -0.57389431743E+01  0.47003517814E+02  0.00000000000E+00 0.  1.
         -5    1    5    5    0  503 -0.11451950989E+02  0.50221664954E+02 -0.21210649190E+02  0.55904780218E+02  0.47000000000E+01 0.  1.
<mgrwt>
<rscale>  2 0.22724440E+03</rscale>
<asrwt>0</asrwt>
<pdfrwt beam="1">  1       21 0.24374417E-01 0.22782980E+03</pdfrwt>
<pdfrwt beam="2">  1       21 0.63187182E-01 0.22782980E+03</pdfrwt>
<totfact> 0.36189709E+04</totfact>
</mgrwt>
</event>
<event>
12    1  0.2769346E-001  0.2303809E+03  0.7546771E-02  0.1126610E+00
         21   -1    0    0  504  503  0.00000000000E+00  0.00000000000E+00  0.48557571932E+03  0.48557571932E+03  0.00000000000E+00 0. -1.
         21   -1    0    0  502  504 -0.00000000000E+00 -0.00000000000E+00 -0.11856391858E+03  0.11856391858E+03  0.00000000000E+00 0. -1.
          6    2    1    2  502    0 -0.19628680289E+02  0.15183302928E+03  0.27029590784E+03  0.35428099250E+03  0.17034256655E+03 0.  0.
         24    2    3    3    0    0  0.98829393646E+01  0.94074285525E+01  0.11887423614E+03  0.14426527857E+03  0.80592892857E+02 0.  0.
         -6    2    1    2    0  503  0.19628680289E+02 -0.15183302928E+03  0.96715892900E+02  0.24985864540E+03  0.17215349219E+03 0.  0.
        -24    2    5    5    0    0 -0.54635682787E+02 -0.94551968891E+02  0.66687600217E+02  0.15126805831E+03  0.80682444106E+02 0.  0.
          2    1    4    4  501    0  0.44749365717E+02  0.92909974343E+01  0.79255119608E+02  0.91488809968E+02  0.00000000000E+00 0. -1.
         -1    1    4    4    0  501 -0.34866426352E+02  0.11643111824E+00  0.39619116537E+02  0.52776468601E+02  0.00000000000E+00 0.  1.
          5    1    3    3  502    0 -0.29511619653E+02  0.14242560073E+03  0.15142167170E+03  0.21001571393E+03  0.47000000000E+01 0. -1.
         11    1    6    6    0    0 -0.47631372053E+02 -0.38700481202E+02 -0.32914806752E+01  0.61459813651E+02  0.00000000000E+00 0. -1.
        -12    1    6    6    0    0 -0.70043107340E+01 -0.55851487688E+02  0.69979080893E+02  0.89808244657E+02  0.00000000000E+00 0.  1.
         -5    1    5    5    0  503  0.74264363076E+02 -0.57281060390E+02  0.30028292682E+02  0.98590587096E+02  0.47000000000E+01 0.  1.
<mgrwt>
<rscale>  2 0.23004268E+03</rscale>
<asrwt>0</asrwt>
<pdfrwt beam="1">  1       21 0.74703956E-01 0.23038094E+03</pdfrwt>
<pdfrwt beam="2">  1       21 0.18240603E-01 0.23038094E+03</pdfrwt>
<totfact> 0.43138071E+04</totfact>
</mgrwt>
</event>
<event>
12    1  0.2769346E-001  0.1795086E+03  0.7546771E-02  0.1168328E+00
         21   -1    0    0  504  503  0.00000000000E+00  0.00000000000E+00  0.12741201281E+03  0.12741201281E+03  0.00000000000E+00 0. -1.
         21   -1    0    0  502  504 -0.00000000000E+00 -0.00000000000E+00 -0.27659268740E+03  0.27659268740E+03  0.00000000000E+00 0. -1.
          6    2    1    2  502    0  0.16186792930E+02 -0.45190761715E+02 -0.13401347936E+03  0.22385651329E+03  0.17276547307E+03 0.  0.
         24    2    3    3    0    0  0.71987163731E+02 -0.57174110275E+02 -0.10262728119E+03  0.15855363848E+03  0.78459332153E+02 0.  0.
         -6    2    1    2    0  503 -0.16186792930E+02  0.45190761715E+02 -0.15167195227E+02  0.18014818691E+03  0.17297140870E+03 0.  0.
        -24    2    5    5    0    0 -0.30383621660E+02  0.53429620314E+02 -0.64354381484E+02  0.12808190196E+03  0.92117307826E+02 0.  0.
          2    1    4    4  501    0  0.43043112578E+02 -0.70633390566E+02 -0.94555460500E+02  0.12562850200E+03  0.00000000000E+00 0. -1.
         -1    1    4    4    0  501  0.28944051153E+02  0.13459280292E+02 -0.80718206939E+01  0.32925136483E+02  0.00000000000E+00 0.  1.
          5    1    3    3  502    0 -0.55800370801E+02  0.11983348559E+02 -0.31386198162E+02  0.65302874816E+02  0.47000000000E+01 0. -1.
         13    1    6    6    0    0  0.10392493790E+02  0.66925044164E+02 -0.37281297179E+02  0.77310158342E+02  0.00000000000E+00 0. -1.
        -14    1    6    6    0    0 -0.40776115450E+02 -0.13495423850E+02 -0.27073084305E+02  0.50771743616E+02  0.00000000000E+00 0.  1.
         -5    1    5    5    0  503  0.14196828731E+02 -0.82388585988E+01  0.49187186257E+02  0.52066284954E+02  0.47000000000E+01 0.  1.
<mgrwt>
<rscale>  2 0.17945894E+03</rscale>
<asrwt>0</asrwt>
<pdfrwt beam="1">  1       21 0.19601848E-01 0.17950857E+03</pdfrwt>
<pdfrwt beam="2">  1       21 0.42552721E-01 0.17950857E+03</pdfrwt>
<totfact> 0.12790542E+05</totfact>
</mgrwt>
</event>
<event>
12    1  0.2769346E-001  0.2643274E+03  0.7546771E-02  0.1104617E+00
         21   -1    0    0  504  503  0.00000000000E+00  0.00000000000E+00  0.13043292531E+04  0.13043292531E+04  0.00000000000E+00 0. -1.
         21   -1    0    0  502  504 -0.00000000000E+00 -0.00000000000E+00 -0.62481126009E+02  0.62481126009E+02  0.00000000000E+00 0.  1.
          6    2    1    2  502    0  0.11550197420E+03 -0.16256302654E+03  0.36156571021E+03  0.44769878379E+03  0.17302310414E+03 0.  0.
         24    2    3    3    0    0  0.10752259199E+03 -0.11764762093E+03  0.15657162786E+03  0.23763753558E+03  0.80962047699E+02 0.  0.
         -6    2    1    2    0  503 -0.11550197420E+03  0.16256302654E+03  0.88028241693E+03  0.91911159536E+03  0.17349797559E+03 0.  0.
        -24    2    5    5    0    0 -0.10762843042E+03  0.15469972169E+03  0.88321169167E+03  0.90668199741E+03  0.80582064999E+02 0.  0.
          4    1    4    4  501    0  0.97967854049E+02 -0.88501961060E+02  0.15923767918E+03  0.20685003266E+03  0.00000000000E+00 0. -1.
         -3    1    4    4    0  501  0.95547379369E+01 -0.29145659873E+02 -0.26660513267E+01  0.30787502922E+02  0.00000000000E+00 0.  1.
          5    1    3    3  502    0  0.79793822171E+01 -0.44915405607E+02  0.20499408235E+03  0.21006124821E+03  0.47000000000E+01 0. -1.
         13    1    6    6    0    0 -0.70936270347E+01 -0.64582773954E+01  0.11252627325E+03  0.11293445472E+03  0.00000000000E+00 0. -1.
        -14    1    6    6    0    0 -0.10053480339E+03  0.16115799909E+03  0.77068541842E+03  0.79374754269E+03  0.00000000000E+00 0.  1.
         -5    1    5    5    0  503 -0.78735437794E+01  0.78633048453E+01 -0.29292747415E+01  0.12429597952E+02  0.47000000000E+01 0.  1.
<mgrwt>
<rscale>  2 0.26424953E+03</rscale>
<asrwt>0</asrwt>
<pdfrwt beam="1">  1       21 0.20066602E+00 0.26432743E+03</pdfrwt>
<pdfrwt beam="2">  1       21 0.96124819E-02 0.26432743E+03</pdfrwt>
<totfact> 0.10981607E+04</totfact>
</mgrwt>
</event>
<event>
12    1  0.2769346E-001  0.2421708E+03  0.7546771E-02  0.1118593E+00
         21   -1    0    0  504  503  0.00000000000E+00  0.00000000000E+00  0.62148676413E+02  0.62148676413E+02  0.00000000000E+00 0.  1.
         21   -1    0    0  502  504 -0.00000000000E+00 -0.00000000000E+00 -0.96348050136E+03  0.96348050136E+03  0.00000000000E+00 0. -1.
          6    2    1    2  502    0 -0.10198828403E+03 -0.13246610510E+03 -0.53267897442E+03  0.58454910353E+03  0.17321052382E+03 0.  0.
         24    2    3    3    0    0 -0.12253950810E+03 -0.81427593268E+02 -0.31098836085E+03  0.35608444402E+03  0.91847627584E+02 0.  0.
         -6    2    1    2    0  503  0.10198828403E+03  0.13246610510E+03 -0.36865285052E+03  0.44108007424E+03  0.17520795820E+03 0.  0.
        -24    2    5    5    0    0 -0.70660433250E+01  0.32052114630E+02 -0.86219413788E+02  0.12207137220E+03  0.79939762166E+02 0.  0.
          4    1    4    4  501    0 -0.26074062291E+02  0.12869105164E+02 -0.19833216780E+02  0.35196975437E+02  0.00000000000E+00 0. -1.
         -3    1    4    4    0  501 -0.96465445812E+02 -0.94296698432E+02 -0.29115514407E+03  0.32088746858E+03  0.00000000000E+00 0.  1.
          5    1    3    3  502    0  0.20551224073E+02 -0.51038511830E+02 -0.22169061357E+03  0.22846465951E+03  0.47000000000E+01 0. -1.
         13    1    6    6    0    0 -0.34485370786E+02 -0.10267563766E+02 -0.35080744228E+02  0.50252584804E+02  0.00000000000E+00 0. -1.
        -14    1    6    6    0    0  0.27419327461E+02  0.42319678396E+02 -0.51138669560E+02  0.71818787391E+02  0.00000000000E+00 0.  1.
         -5    1    5    5    0  503  0.10905432735E+03  0.10041399047E+03 -0.28243343674E+03  0.31900870205E+03  0.47000000000E+01 0.  1.
<mgrwt>
<rscale>  2 0.24180972E+03</rscale>
<asrwt>0</asrwt>
<pdfrwt beam="1">  1       21 0.95613344E-02 0.24217082E+03</pdfrwt>
<pdfrwt beam="2">  1       21 0.14822778E+00 0.24217082E+03</pdfrwt>
<totfact> 0.26302977E+04</totfact>
</mgrwt>
</event>
<event>
12    1  0.2769346E-001  0.1952298E+03  0.7546771E-02  0.1155796E+00
         21   -1    0    0  504  503  0.00000000000E+00  0.00000000000E+00  0.90409678146E+02  0.90409678146E+02  0.00000000000E+00 0.  1.
         21   -1    0    0  502  504 -0.00000000000E+00 -0.00000000000E+00 -0.47335660021E+03  0.47335660021E+03  0.00000000000E+00 0.  1.
          6    2    1    2  502    0 -0.87453886496E+02  0.16725074617E+02 -0.29655947384E+03  0.35027750202E+03  0.16376475967E+03 0.  0.
         24    2    3    3    0    0 -0.98659070481E+02 -0.76298612646E+01 -0.28760305094E+03  0.32162394096E+03  0.10456872151E+03 0.  0.
         -6    2    1    2    0  503  0.87453886496E+02 -0.16725074617E+02 -0.86387448228E+02  0.21348877634E+03  0.17374336255E+03 0.  0.
        -24    2    5    5    0    0  0.98765221057E+02  0.25571484219E+02 -0.17243804653E+02  0.13151391053E+03  0.81179370331E+02 0.  0.
          2    1    4    4  501    0 -0.75485972501E+02 -0.41424028964E+00 -0.70887498496E+02  0.10355356625E+03  0.00000000000E+00 0. -1.
         -1    1    4    4    0  501 -0.23173097980E+02 -0.72156209750E+01 -0.21671555245E+03  0.21807037472E+03  0.00000000000E+00 0.  1.
          5    1    3    3  502    0  0.11205183985E+02  0.24354935882E+02 -0.89564228946E+01  0.28653561053E+02  0.47000000000E+01 0. -1.
         13    1    6    6    0    0 -0.76935715232E+00  0.24147628836E+02 -0.20837116616E+02  0.31904315033E+02  0.00000000000E+00 0. -1.
        -14    1    6    6    0    0  0.99534578209E+02  0.14238553828E+01  0.35933119628E+01  0.99609595493E+02  0.00000000000E+00 0.  1.
         -5    1    5    5    0  503 -0.11311334561E+02 -0.42296558836E+02 -0.69143643575E+02  0.81974865817E+02  0.47000000000E+01 0.  1.
<mgrwt>
<rscale>  2 0.19298516E+03</rscale>
<asrwt>0</asrwt>
<pdfrwt beam="1">  1       21 0.13909181E-01 0.19522978E+03</pdfrwt>
<pdfrwt beam="2">  1       21 0.72824093E-01 0.19522978E+03</pdfrwt>
<totfact> 0.76294318E+04</totfact>
</mgrwt>
</event>
<event>
12    1  0.2769346E-001  0.1994485E+03  0.7546771E-02  0.1152084E+00
         21   -1    0    0  504  503  0.00000000000E+00  0.00000000000E+00  0.10528961676E+03  0.10528961676E+03  0.00000000000E+00 0. -1.
         21   -1    0    0  502  504 -0.00000000000E+00 -0.00000000000E+00 -0.49543821202E+03  0.49543821202E+03  0.00000000000E+00 0.  1.
          6    2    1    2  502    0 -0.52079228636E+01  0.96127928867E+02 -0.34801528731E+03  0.39687758014E+03  0.16471026759E+03 0.  0.
         24    2    3    3    0    0 -0.23896147827E+02  0.12803450533E+03 -0.29069121265E+03  0.32850054519E+03  0.80295495755E+02 0.  0.
         -6    2    1    2    0  503  0.52079228636E+01 -0.96127928867E+02 -0.42133307952E+02  0.20385024865E+03  0.17467686471E+03 0.  0.
        -24    2    5    5    0    0 -0.24097988608E+02 -0.18946128706E+02  0.30534745071E+02  0.93765723605E+02  0.83186365582E+02 0.  0.
          4    1    4    4  501    0 -0.11862871795E+02  0.26031429750E+02 -0.11177585423E+02  0.30713213410E+02  0.00000000000E+00 0. -1.
         -3    1    4    4    0  501 -0.12033276032E+02  0.10200307558E+03 -0.27951362723E+03  0.29778733178E+03  0.00000000000E+00 0.  1.
          5    1    3    3  502    0  0.18688224963E+02 -0.31906576464E+02 -0.57324074653E+02  0.68377034952E+02  0.47000000000E+01 0. -1.
         13    1    6    6    0    0 -0.49603681992E+02  0.20000884236E+01  0.12773803045E+01  0.49660420068E+02  0.00000000000E+00 0. -1.
        -14    1    6    6    0    0  0.25505693383E+02 -0.20946217130E+02  0.29257364767E+02  0.44105303537E+02  0.00000000000E+00 0.  1.
         -5    1    5    5    0  503  0.29305911472E+02 -0.77181800160E+02 -0.72668053023E+02  0.11008452504E+03  0.47000000000E+01 0.  1.
<mgrwt>
<rscale>  2 0.19724525E+03</rscale>
<asrwt>0</asrwt>
<pdfrwt beam="1">  1       21 0.16198403E-01 0.19944851E+03</pdfrwt>
<pdfrwt beam="2">  1       21 0.76221263E-01 0.19944851E+03</pdfrwt>
<totfact> 0.52102905E+04</totfact>
</mgrwt>
</event>
<event>
12    1  0.2769346E-001  0.4708309E+03  0.7546771E-02  0.1021719E+00
         21   -1    0    0  504  503  0.00000000000E+00  0.00000000000E+00  0.76976686485E+03  0.76976686485E+03  0.00000000000E+00 0. -1.
         21   -1    0    0  502  504 -0.00000000000E+00 -0.00000000000E+00 -0.28968241403E+03  0.28968241403E+03  0.00000000000E+00 0.  1.
          6    2    1    2  502    0  0.40353405181E+03  0.17003538011E+03  0.19612317801E+03  0.50961683001E+03  0.17173599221E+03 0.  0.
         24    2    3    3    0    0  0.13619567194E+03  0.10506761318E+02  0.74073441263E+02  0.17519581123E+03  0.80913808971E+02 0.  0.
         -6    2    1    2    0  503 -0.40353405181E+03 -0.17003538011E+03  0.28396127281E+03  0.54983244887E+03  0.17300276274E+03 0.  0.
        -24    2    5    5    0    0 -0.23508828939E+03 -0.80827284756E+02  0.23876983948E+03  0.35388241748E+03  0.80138476325E+02 0.  0.
          2    1    4    4  501    0  0.81980306652E+02 -0.14264098642E+02  0.79829197000E+02  0.11531234055E+03  0.00000000000E+00 0. -1.
         -1    1    4    4    0  501  0.54215365287E+02  0.24770859960E+02 -0.57557557374E+01  0.59883470679E+02  0.00000000000E+00 0.  1.
          5    1    3    3  502    0  0.26733837987E+03  0.15952861880E+03  0.12204973674E+03  0.33442101878E+03  0.47000000000E+01 0. -1.
         11    1    6    6    0    0 -0.58422811786E+02 -0.92983577804E+01  0.10669181986E+03  0.12199519998E+03  0.00000000000E+00 0. -1.
        -12    1    6    6    0    0 -0.17666547761E+03 -0.71528926976E+02  0.13207801962E+03  0.23188721750E+03  0.00000000000E+00 0.  1.
         -5    1    5    5    0  503 -0.16844576242E+03 -0.89208095357E+02  0.45191433326E+02  0.19595003138E+03  0.47000000000E+01 0.  1.
<mgrwt>
<rscale>  2 0.47071484E+03</rscale>
<asrwt>0</asrwt>
<pdfrwt beam="1">  1       21 0.11842567E+00 0.47083088E+03</pdfrwt>
<pdfrwt beam="2">  1       21 0.44566525E-01 0.47083088E+03</pdfrwt>
<totfact> 0.22586787E+03</totfact>
</mgrwt>
</event>
<event>
12    1  0.2769346E-001  0.2382262E+03  0.7546771E-02  0.1121307E+00
         21   -1    0    0  504  503  0.00000000000E+00  0.00000000000E+00  0.43651815174E+03  0.43651815174E+03  0.00000000000E+00 0.  1.
         21   -1    0    0  502  504 -0.00000000000E+00 -0.00000000000E+00 -0.17900414148E+03  0.17900414148E+03  0.00000000000E+00 0. -1.
          6    2    1    2  502    0  0.14851688751E+03  0.63406284213E+02  0.29186736806E+03  0.37674695637E+03  0.17514018913E+03 0.  0.
         24    2    3    3    0    0  0.16747489011E+03  0.67704686899E+02  0.29550259257E+03  0.35641995499E+03  0.84152472670E+02 0.  0.
         -6    2    1    2    0  503 -0.14851688751E+03 -0.63406284213E+02 -0.34353357799E+02  0.23877533685E+03  0.17249894360E+03 0.  0.
        -24    2    5    5    0    0 -0.80514770641E+01 -0.18417124595E+02 -0.38110764249E+02  0.91158386204E+02  0.80333083237E+02 0.  0.
          2    1    4    4  501    0  0.15562208107E+03  0.46902517300E+02  0.19874555439E+03  0.25674476360E+03  0.00000000000E+00 0. -1.
         -1    1    4    4    0  501  0.11852809037E+02  0.20802169599E+02  0.96757038176E+02  0.99675191390E+02  0.00000000000E+00 0.  1.
          5    1    3    3  502    0 -0.18958002594E+02 -0.42984026861E+01 -0.36352245133E+01  0.20327001384E+02  0.47000000000E+01 0. -1.
         11    1    6    6    0    0 -0.36250287778E+02 -0.27051884803E+02 -0.41610899073E+02  0.61460188391E+02  0.00000000000E+00 0. -1.
        -12    1    6    6    0    0  0.28198810714E+02  0.86347602086E+01  0.35001348234E+01  0.29698197813E+02  0.00000000000E+00 0.  1.
         -5    1    5    5    0  503 -0.14046541045E+03 -0.44989159619E+02  0.37574064500E+01  0.14761695065E+03  0.47000000000E+01 0.  1.
<mgrwt>
<rscale>  2 0.23774094E+03</rscale>
<asrwt>0</asrwt>
<pdfrwt beam="1">  1       21 0.67156639E-01 0.23822617E+03</pdfrwt>
<pdfrwt beam="2">  1       21 0.27539099E-01 0.23822617E+03</pdfrwt>
<totfact> 0.24915174E+04</totfact>
</mgrwt>
</event>
<event>
12    1  0.2769346E-001  0.1910787E+03  0.7546771E-02  0.1158089E+00
         21   -1    0    0  504  503  0.00000000000E+00  0.00000000000E+00  0.25243467217E+03  0.25243467217E+03  0.00000000000E+00 0. -1.
         21   -1    0    0  502  504 -0.00000000000E+00 -0.00000000000E+00 -0.22777571545E+03  0.22777571545E+03  0.00000000000E+00 0. -1.
          6    2    1    2  502    0  0.80095020595E+02  0.68482467579E+01 -0.13451693685E+03  0.23151775885E+03  0.17042169920E+03 0.  0.
         24    2    3    3    0    0 -0.24663967405E+02  0.50749561640E+01 -0.68509938815E+02  0.10759599355E+03  0.79052005939E+02 0.  0.
         -6    2    1    2    0  503 -0.80095020595E+02 -0.68482467579E+01  0.15917589357E+03  0.24869262877E+03  0.17334632302E+03 0.  0.
        -24    2    5    5    0    0 -0.30597391811E+02 -0.35825406037E+02  0.16624562534E+03  0.19071192403E+03  0.80707929719E+02 0.  0.
          4    1    4    4  501    0  0.16315585766E+02  0.17203242794E+02 -0.59319507767E+02  0.63882344221E+02  0.00000000000E+00 0. -1.
         -3    1    4    4    0  501 -0.40979553171E+02 -0.12128286630E+02 -0.91904310478E+01  0.43713649327E+02  0.00000000000E+00 0.  1.
          5    1    3    3  502    0  0.10475898800E+03  0.17732905939E+01 -0.66006998033E+02  0.12392176530E+03  0.47000000000E+01 0. -1.
         11    1    6    6    0    0 -0.31879659296E+02  0.11599151300E+02  0.26244339187E+02  0.42890772050E+02  0.00000000000E+00 0. -1.
        -12    1    6    6    0    0  0.12822674842E+01 -0.47424557337E+02  0.14000128615E+03  0.14782115198E+03  0.00000000000E+00 0.  1.
         -5    1    5    5    0  503 -0.49497628784E+02  0.28977159279E+02 -0.70697317711E+01  0.57980704742E+02  0.47000000000E+01 0.  1.
<mgrwt>
<rscale>  2 0.19041290E+03</rscale>
<asrwt>0</asrwt>
<pdfrwt beam="1">  1       21 0.38836103E-01 0.19107867E+03</pdfrwt>
<pdfrwt beam="2">  1       21 0.35042418E-01 0.19107867E+03</pdfrwt>
<totfact> 0.50226817E+04</totfact>
</mgrwt>
</event>
<event>
12    1  0.2769346E-001  0.2160026E+03  0.7546771E-02  0.1136973E+00
         21   -1    0    0  504  503  0.00000000000E+00  0.00000000000E+00  0.49982710775E+03  0.49982710775E+03  0.00000000000E+00 0.  1.
         21   -1    0    0  502  504 -0.00000000000E+00 -0.00000000000E+00 -0.11814315617E+03  0.11814315617E+03  0.00000000000E+00 0. -1.
          6    2    1    2  502    0 -0.22319239478E+02 -0.12703379644E+03  0.48673527631E+02  0.22104073548E+03  0.17278356566E+03 0.  0.
         24    2    3    3    0    0 -0.22979966656E+02 -0.47777653299E+01 -0.91515708033E+01  0.85715919904E+02  0.81930224995E+02 0.  0.
         -6    2    1    2    0  503  0.22319239478E+02  0.12703379644E+03  0.33301042395E+03  0.39692952844E+03  0.17326677179E+03 0.  0.
        -24    2    5    5    0    0  0.98523125454E+00  0.70813633622E+02  0.31674797891E+03  0.33446030616E+03  0.80739537207E+02 0.  0.
          4    1    4    4  501    0 -0.94101786156E+01  0.37038968737E+02 -0.15609688957E+02  0.41280734683E+02  0.00000000000E+00 0. -1.
         -3    1    4    4    0  501 -0.13569788040E+02 -0.41816734067E+02  0.64581181534E+01  0.44435185220E+02  0.00000000000E+00 0.  1.
          5    1    3    3  502    0  0.66072717793E+00 -0.12225603111E+03  0.57825098434E+02  0.13532481558E+03  0.47000000000E+01 0. -1.
         13    1    6    6    0    0 -0.13055425268E+02  0.37379435866E+02  0.43517627739E+02  0.58834091126E+02  0.00000000000E+00 0. -1.
        -14    1    6    6    0    0  0.14040656523E+02  0.33434197755E+02  0.27323035117E+03  0.27562621504E+03  0.00000000000E+00 0.  1.
         -5    1    5    5    0  503  0.21334008223E+02  0.56220162815E+02  0.16262445039E+02  0.62469222281E+02  0.47000000000E+01 0.  1.
<mgrwt>
<rscale>  2 0.21590565E+03</rscale>
<asrwt>0</asrwt>
<pdfrwt beam="1">  1       21 0.76896477E-01 0.21600257E+03</pdfrwt>
<pdfrwt beam="2">  1       21 0.18175870E-01 0.21600257E+03</pdfrwt>
<totfact> 0.40968330E+04</totfact>
</mgrwt>
</event>
<event>
12    1  0.2769346E-001  0.2589425E+03  0.7546771E-02  0.1107967E+00
         21   -1    0    0  504  503  0.00000000000E+00  0.00000000000E+00  0.11043890188E+03  0.11043890188E+03  0.00000000000E+00 0.  1.
         21   -1    0    0  502  504 -0.00000000000E+00 -0.00000000000E+00 -0.91000312311E+03  0.91000312311E+03  0.00000000000E+00 0.  1.
          6    2    1    2  502    0 -0.58658345338E+02  0.18196359908E+03 -0.69489918378E+03  0.74114651038E+03  0.17280544369E+03 0.  0.
         24    2    3    3    0    0 -0.68601434507E+02  0.17270512573E+03 -0.42613028990E+03  0.47199340773E+03  0.81593723410E+02 0.  0.
         -6    2    1    2    0  503  0.58658345338E+02 -0.18196359908E+03 -0.10466503745E+03  0.27929551462E+03  0.17464152299E+03 0.  0.
        -24    2    5    5    0    0 -0.28594755940E+02 -0.12202046141E+03 -0.87656433669E+02  0.17197512495E+03  0.78645662101E+02 0.  0.
          4    1    4    4  501    0 -0.12985492604E+02  0.49842586449E+02 -0.47514547419E+02  0.70075235701E+02  0.00000000000E+00 0. -1.
         -3    1    4    4    0  501 -0.55615941903E+02  0.12286253928E+03 -0.37861574248E+03  0.40191817203E+03  0.00000000000E+00 0.  1.
          5    1    3    3  502    0  0.99430891684E+01  0.92584733482E+01 -0.26876889388E+03  0.26915310265E+03  0.47000000000E+01 0. -1.
         11    1    6    6    0    0 -0.36530795138E+02 -0.12336487248E+03 -0.57789535951E+02  0.14104262200E+03  0.00000000000E+00 0. -1.
        -12    1    6    6    0    0  0.79360391975E+01  0.13444110697E+01 -0.29866897718E+02  0.30932502947E+02  0.00000000000E+00 0.  1.
         -5    1    5    5    0  503  0.87253101278E+02 -0.59943137665E+02 -0.17008603786E+02  0.10732038967E+03  0.47000000000E+01 0.  1.
<mgrwt>
<rscale>  2 0.25863325E+03</rscale>
<asrwt>0</asrwt>
<pdfrwt beam="1">  1       21 0.16990601E-01 0.25894249E+03</pdfrwt>
<pdfrwt beam="2">  1       21 0.14000047E+00 0.25894249E+03</pdfrwt>
<totfact> 0.10701855E+04</totfact>
</mgrwt>
</event>
<event>
12    1  0.2769346E-001  0.1822435E+03  0.7546771E-02  0.1166227E+00
         21   -1    0    0  504  503  0.00000000000E+00  0.00000000000E+00  0.12398769341E+03  0.12398769341E+03  0.00000000000E+00 0. -1.
         21   -1    0    0  502  504 -0.00000000000E+00 -0.00000000000E+00 -0.38531829718E+03  0.38531829718E+03  0.00000000000E+00 0.  1.
          6    2    1    2  502    0  0.41573542927E+02 -0.33968938560E+02  0.11425157193E+02  0.18260125907E+03  0.17415635888E+03 0.  0.
         24    2    3    3    0    0  0.55635421664E+02 -0.20482099409E+02  0.67780702179E+02  0.12278764261E+03  0.83473139691E+02 0.  0.
         -6    2    1    2    0  503 -0.41573542927E+02  0.33968938560E+02 -0.27275576096E+03  0.32670473152E+03  0.17163341225E+03 0.  0.
        -24    2    5    5    0    0  0.33834781596E+02  0.46565034231E+02 -0.11830049127E+03  0.15429940281E+03  0.80623846429E+02 0.  0.
          2    1    4    4  501    0  0.53004048465E+02 -0.93082751003E+01  0.85883981282E+02  0.10135152382E+03  0.00000000000E+00 0. -1.
         -1    1    4    4    0  501  0.26313731991E+01 -0.11173824309E+02 -0.18103279104E+02  0.21436118793E+02  0.00000000000E+00 0.  1.
          5    1    3    3  502    0 -0.14061878737E+02 -0.13486839151E+02 -0.56355544986E+02  0.59813616464E+02  0.47000000000E+01 0. -1.
         11    1    6    6    0    0  0.17774898089E+02  0.13204415240E+02  0.73316578322E+01  0.23325024984E+02  0.00000000000E+00 0. -1.
        -12    1    6    6    0    0  0.16059883507E+02  0.33360618991E+02 -0.12563214911E+03  0.13097437783E+03  0.00000000000E+00 0.  1.
         -5    1    5    5    0  503 -0.75408324523E+02 -0.12596095671E+02 -0.15445526968E+03  0.17240532871E+03  0.47000000000E+01 0.  1.
<mgrwt>
<rscale>  2 0.18163811E+03</rscale>
<asrwt>0</asrwt>
<pdfrwt beam="1">  1       21 0.19075030E-01 0.18224348E+03</pdfrwt>
<pdfrwt beam="2">  1       21 0.59279737E-01 0.18224348E+03</pdfrwt>
<totfact> 0.67349053E+04</totfact>
</mgrwt>
</event>
<event>
12    1  0.2769346E-001  0.2015331E+03  0.7546771E-02  0.1148586E+00
         21   -1    0    0  504  503  0.00000000000E+00  0.00000000000E+00  0.39690636016E+03  0.39690636016E+03  0.00000000000E+00 0. -1.
         21   -1    0    0  502  504 -0.00000000000E+00 -0.00000000000E+00 -0.11802731421E+03  0.11802731421E+03  0.00000000000E+00 0. -1.
          6    2    1    2  502    0  0.84567677601E+02 -0.57351340668E+02  0.44386487109E+02  0.20573740715E+03  0.17296488687E+03 0.  0.
         24    2    3    3    0    0  0.56454124185E+02 -0.10533669475E+03  0.36949745575E+02  0.14943144639E+03  0.81740969384E+02 0.  0.
         -6    2    1    2    0  503 -0.84567677601E+02  0.57351340668E+02  0.23449255884E+03  0.30919626723E+03  0.17370867319E+03 0.  0.
        -24    2    5    5    0    0 -0.92084117303E+02  0.51836276999E+02  0.25479615094E+03  0.28636561579E+03  0.76926608513E+02 0.  0.
          4    1    4    4  501    0  0.60241596219E+02 -0.11749985516E+03  0.34175501734E+02  0.13639366113E+03  0.00000000000E+00 0. -1.
         -3    1    4    4    0  501 -0.37874720341E+01  0.12163160415E+02  0.27742438415E+01  0.13037785264E+02  0.00000000000E+00 0.  1.
          5    1    3    3  502    0  0.28113553416E+02  0.47985354079E+02  0.74367415343E+01  0.56305960754E+02  0.47000000000E+01 0. -1.
         11    1    6    6    0    0 -0.69554619688E+02  0.67746913789E+02  0.15562244000E+03  0.18342800571E+03  0.00000000000E+00 0. -1.
        -12    1    6    6    0    0 -0.22529497615E+02 -0.15910636790E+02  0.99173710943E+02  0.10293761008E+03  0.00000000000E+00 0.  1.
         -5    1    5    5    0  503  0.75164397020E+01  0.55150636687E+01 -0.20303592098E+02  0.22830651440E+02  0.47000000000E+01 0.  1.
<mgrwt>
<rscale>  2 0.20137268E+03</rscale>
<asrwt>0</asrwt>
<pdfrwt beam="1">  1       21 0.61062516E-01 0.20153305E+03</pdfrwt>
<pdfrwt beam="2">  1       21 0.18158049E-01 0.20153305E+03</pdfrwt>
<totfact> 0.68653859E+04</totfact>
</mgrwt>
</event>
<event>
12    1  0.2769346E-001  0.2077087E+03  0.7546771E-02  0.1145244E+00
         21   -1    0    0  504  503  0.00000000000E+00  0.00000000000E+00  0.41363771694E+03  0.41363771694E+03  0.00000000000E+00 0. -1.
         21   -1    0    0  502  504 -0.00000000000E+00 -0.00000000000E+00 -0.12841015498E+03  0.12841015498E+03  0.00000000000E+00 0.  1.
          6    2    1    2  502    0  0.77148597273E+02  0.57927436525E+02  0.12323306430E+02  0.19909064966E+03  0.17371738237E+03 0.  0.
         24    2    3    3    0    0  0.18715806327E+02  0.97208277832E+02  0.11126019362E+01  0.12764034913E+03  0.80567302028E+02 0.  0.
         -6    2    1    2    0  503 -0.77148597273E+02 -0.57927436525E+02  0.27290425553E+03  0.34295722226E+03  0.18394409382E+03 0.  0.
        -24    2    5    5    0    0 -0.43196299157E+02  0.12973276379E+02  0.46320400782E+02  0.10307808005E+03  0.80282531702E+02 0.  0.
          2    1    4    4  501    0  0.19551395292E+02  0.38134438296E+02 -0.37596627839E+02  0.57008761317E+02  0.00000000000E+00 0. -1.
         -1    1    4    4    0  501 -0.83558896457E+00  0.59073839536E+02  0.38709229776E+02  0.70631587808E+02  0.00000000000E+00 0.  1.
          5    1    3    3  502    0  0.58432790945E+02 -0.39280841307E+02  0.11210704493E+02  0.71450300536E+02  0.47000000000E+01 0. -1.
         13    1    6    6    0    0 -0.36229859436E+02  0.20487144207E+02  0.67642437516E+02  0.79421817818E+02  0.00000000000E+00 0. -1.
        -14    1    6    6    0    0 -0.69664397205E+01 -0.75138678276E+01 -0.21322036734E+02  0.23656262228E+02  0.00000000000E+00 0.  1.
         -5    1    5    5    0  503 -0.33952298116E+02 -0.70900712904E+02  0.22658385475E+03  0.23987914222E+03  0.47000000000E+01 0.  1.
<mgrwt>
<rscale>  2 0.20542127E+03</rscale>
<asrwt>0</asrwt>
<pdfrwt beam="1">  1       21 0.63636571E-01 0.20770875E+03</pdfrwt>
<pdfrwt beam="2">  1       21 0.19755409E-01 0.20770875E+03</pdfrwt>
<totfact> 0.53515284E+04</totfact>
</mgrwt>
</event>
<event>
12    1  0.2769346E-001  0.2076412E+03  0.7546771E-02  0.1144072E+00
         21   -1    0    0  504  503  0.00000000000E+00  0.00000000000E+00  0.16283172749E+03  0.16283172749E+03  0.00000000000E+00 0.  1.
         21   -1    0    0  502  504 -0.00000000000E+00 -0.00000000000E+00 -0.26163954755E+03  0.26163954755E+03  0.00000000000E+00 0.  1.
          6    2    1    2  502    0  0.92100690007E+02  0.71418010632E+02 -0.38217604818E+02  0.21112898339E+03  0.17184816835E+03 0.  0.
         24    2    3    3    0    0  0.11629234970E+03  0.16367371882E+02 -0.47026454612E+02  0.15017412254E+03  0.80925757254E+02 0.  0.
         -6    2    1    2    0  503 -0.92100690007E+02 -0.71418010632E+02 -0.60590215239E+02  0.21334229165E+03  0.16810916061E+03 0.  0.
        -24    2    5    5    0    0 -0.10186365085E+03  0.25225586936E+01 -0.28093558243E+02  0.13185213327E+03  0.78823666284E+02 0.  0.
          4    1    4    4  501    0  0.69795014466E+01 -0.95184940311E+01 -0.35307936399E+02  0.37228558148E+02  0.00000000000E+00 0. -1.
         -3    1    4    4    0  501  0.10931284826E+03  0.25885865913E+02 -0.11718518214E+02  0.11294556440E+03  0.00000000000E+00 0.  1.
          5    1    3    3  502    0 -0.24191659694E+02  0.55050638750E+02  0.88088497943E+01  0.60954860842E+02  0.47000000000E+01 0. -1.
         11    1    6    6    0    0 -0.10100992242E+03  0.19559356072E+02 -0.40697239606E+02  0.11064284047E+03  0.00000000000E+00 0. -1.
        -12    1    6    6    0    0 -0.85372843708E+00 -0.17036797379E+02  0.12603681363E+02  0.21209292800E+02  0.00000000000E+00 0.  1.
         -5    1    5    5    0  503  0.97629608455E+01 -0.73940569326E+02 -0.32496656995E+02  0.81490158378E+02  0.47000000000E+01 0.  1.
<mgrwt>
<rscale>  2 0.20686593E+03</rscale>
<asrwt>0</asrwt>
<pdfrwt beam="1">  1       21 0.25051035E-01 0.20764119E+03</pdfrwt>
<pdfrwt beam="2">  1       21 0.40252238E-01 0.20764119E+03</pdfrwt>
<totfact> 0.89178327E+04</totfact>
</mgrwt>
</event>
<event>
12    1  0.2769346E-001  0.2240064E+03  0.7546771E-02  0.1131219E+00
         21   -1    0    0  504  503  0.00000000000E+00  0.00000000000E+00  0.44423380143E+03  0.44423380143E+03  0.00000000000E+00 0. -1.
         21   -1    0    0  502  504 -0.00000000000E+00 -0.00000000000E+00 -0.12194214136E+03  0.12194214136E+03  0.00000000000E+00 0.  1.
          6    2    1    2  502    0  0.70979890920E+02 -0.12018540007E+03  0.80453888021E+02  0.23653313180E+03  0.17318319501E+03 0.  0.
         24    2    3    3    0    0  0.53988949587E+02 -0.23625419468E+02  0.94514976881E+02  0.13737504508E+03  0.80410540560E+02 0.  0.
         -6    2    1    2    0  503 -0.70979890920E+02  0.12018540007E+03  0.24183777206E+03  0.32964281100E+03  0.17520330917E+03 0.  0.
        -24    2    5    5    0    0 -0.11327568771E+02  0.10058988890E+03  0.23377952600E+03  0.26616518560E+03  0.77099933118E+02 0.  0.
          4    1    4    4  501    0  0.57369248718E+02 -0.37801414283E+02  0.10040131425E+03  0.12165772283E+03  0.00000000000E+00 0. -1.
         -3    1    4    4    0  501 -0.33802991313E+01  0.14175994815E+02 -0.58863373672E+01  0.15717322254E+02  0.00000000000E+00 0.  1.
          5    1    3    3  502    0  0.16990941334E+02 -0.96559980604E+02 -0.14061088860E+02  0.99158086718E+02  0.47000000000E+01 0. -1.
         11    1    6    6    0    0  0.31732456590E+02  0.44470886567E+02  0.79723693610E+02  0.96646137410E+02  0.00000000000E+00 0. -1.
        -12    1    6    6    0    0 -0.43060025361E+02  0.56119002332E+02  0.15405583239E+03  0.16951904819E+03  0.00000000000E+00 0.  1.
         -5    1    5    5    0  503 -0.59652322150E+02  0.19595511172E+02  0.80582460555E+01  0.63477625392E+02  0.47000000000E+01 0.  1.
<mgrwt>
<rscale>  2 0.22361126E+03</rscale>
<asrwt>0</asrwt>
<pdfrwt beam="1">  1       21 0.68343661E-01 0.22400642E+03</pdfrwt>
<pdfrwt beam="2">  1       21 0.18760330E-01 0.22400642E+03</pdfrwt>
<totfact> 0.50038464E+04</totfact>
</mgrwt>
</event>
<event>
12    1  0.2769346E-001  0.2026811E+03  0.7546771E-02  0.1147574E+00
         21   -1    0    0  504  503  0.00000000000E+00  0.00000000000E+00  0.39599279749E+03  0.39599279749E+03  0.00000000000E+00 0.  1.
         21   -1    0    0  502  504 -0.00000000000E+00 -0.00000000000E+00 -0.10664494028E+03  0.10664494028E+03  0.00000000000E+00 0.  1.
          6    2    1    2  502    0  0.46861345477E+02 -0.92352037228E+02  0.10196953332E+03  0.22688638539E+03  0.17422617964E+03 0.  0.
         24    2    3    3    0    0  0.30036742769E+02 -0.50307643140E+01 -0.12366315682E+02  0.81962790606E+02  0.75083012558E+02 0.  0.
         -6    2    1    2    0  503 -0.46861345477E+02  0.92352037228E+02  0.18737832389E+03  0.27575135238E+03  0.17379093071E+03 0.  0.
        -24    2    5    5    0    0  0.25101508055E+02  0.47808965369E+01  0.11887042612E+03  0.14322671684E+03  0.75701859490E+02 0.  0.
          2    1    4    4  501    0 -0.77004379157E+01  0.26929968735E+02 -0.16208330657E+02  0.32360932354E+02  0.00000000000E+00 0. -1.
         -1    1    4    4    0  501  0.37737180684E+02 -0.31960733049E+02  0.38420149756E+01  0.49601858252E+02  0.00000000000E+00 0.  1.
          5    1    3    3  502    0  0.16824602708E+02 -0.87321272914E+02  0.11433584900E+03  0.14492359479E+03  0.47000000000E+01 0. -1.
         11    1    6    6    0    0  0.45189251842E+02  0.24524462138E+02  0.82758074825E+02  0.97429034040E+02  0.00000000000E+00 0. -1.
        -12    1    6    6    0    0 -0.20087743787E+02 -0.19743565602E+02  0.36112351299E+02  0.45797682796E+02  0.00000000000E+00 0.  1.
         -5    1    5    5    0  503 -0.71962853532E+02  0.87571140691E+02  0.68507897764E+02  0.13252463555E+03  0.47000000000E+01 0.  1.
<mgrwt>
<rscale>  2 0.20258757E+03</rscale>
<asrwt>0</asrwt>
<pdfrwt beam="1">  1       21 0.60921968E-01 0.20268114E+03</pdfrwt>
<pdfrwt beam="2">  1       21 0.16406914E-01 0.20268114E+03</pdfrwt>
<totfact> 0.83143511E+04</totfact>
</mgrwt>
</event>
<event>
12    1  0.2769346E-001  0.2384156E+03  0.7546771E-02  0.1121025E+00
         21   -1    0    0  504  503  0.00000000000E+00  0.00000000000E+00  0.37278856519E+03  0.37278856519E+03  0.00000000000E+00 0. -1.
         21   -1    0    0  502  504 -0.00000000000E+00 -0.00000000000E+00 -0.18988721113E+03  0.18988721113E+03  0.00000000000E+00 0.  1.
          6    2    1    2  502    0 -0.14890976563E+02  0.16356562408E+03 -0.34668361251E+02  0.23990874282E+03  0.17140261097E+03 0.  0.
         24    2    3    3    0    0  0.23040196921E+02  0.36707418881E+02 -0.26412576095E+02  0.10716076304E+03  0.94379657154E+02 0.  0.
         -6    2    1    2    0  503  0.14890976563E+02 -0.16356562408E+03  0.21756971531E+03  0.32276703350E+03  0.17281933437E+03 0.  0.
        -24    2    5    5    0    0  0.18057830836E+02 -0.14947201644E+03  0.24198123787E+03  0.29401514354E+03  0.72263519125E+02 0.  0.
          4    1    4    4  501    0  0.32866769285E+02  0.55106220577E+02  0.10253071385E+02  0.64977269428E+02  0.00000000000E+00 0. -1.
         -3    1    4    4    0  501 -0.98265723640E+01 -0.18398801696E+02 -0.36665647480E+02  0.42183493613E+02  0.00000000000E+00 0.  1.
          5    1    3    3  502    0 -0.37931173484E+02  0.12685820520E+03 -0.82557851561E+01  0.13274797978E+03  0.47000000000E+01 0. -1.
         11    1    6    6    0    0  0.13346683144E+02 -0.11682729169E+03  0.12142706339E+03  0.16903041667E+03  0.00000000000E+00 0. -1.
        -12    1    6    6    0    0  0.47111476914E+01 -0.32644724747E+02  0.12055417448E+03  0.12498472688E+03  0.00000000000E+00 0.  1.
         -5    1    5    5    0  503 -0.31668542730E+01 -0.14093607637E+02 -0.24411522563E+02  0.28751889957E+02  0.47000000000E+01 0.  1.
<mgrwt>
<rscale>  2 0.23815891E+03</rscale>
<asrwt>0</asrwt>
<pdfrwt beam="1">  1       21 0.57352087E-01 0.23841556E+03</pdfrwt>
<pdfrwt beam="2">  1       21 0.29213417E-01 0.23841556E+03</pdfrwt>
<totfact> 0.31286697E+04</totfact>
</mgrwt>
</event>
<event>
12    1  0.2769346E-001  0.2106690E+03  0.7546771E-02  0.1141236E+00
         21   -1    0    0  504  503  0.00000000000E+00  0.00000000000E+00  0.73328900405E+02  0.73328900405E+02  0.00000000000E+00 0.  1.
         21   -1    0    0  502  504 -0.00000000000E+00 -0.00000000000E+00 -0.10240887587E+04  0.10240887587E+04  0.00000000000E+00 0.  1.
          6    2    1    2  502    0  0.11681791597E+03  0.25633525844E+02 -0.82683168507E+03  0.85300073034E+03  0.17220948690E+03 0.  0.
         24    2    3    3    0    0 -0.21611480990E+01  0.32715164164E+02 -0.41020554395E+03  0.41963529707E+03  0.82159854731E+02 0.  0.
         -6    2    1    2    0  503 -0.11681791597E+03 -0.25633525844E+02 -0.12392817324E+03  0.24441692879E+03  0.17342992768E+03 0.  0.
        -24    2    5    5    0    0 -0.12577307955E+03 -0.66907797048E+02 -0.11673569978E+03  0.20131725254E+03  0.81276637009E+02 0.  0.
          4    1    4    4  501    0 -0.16536291202E+01  0.24491637948E+02 -0.27583583892E+02  0.36924638373E+02  0.00000000000E+00 0. -1.
         -3    1    4    4    0  501 -0.50751897877E+00  0.82235262155E+01 -0.38262196006E+03  0.38271065870E+03  0.00000000000E+00 0.  1.
          5    1    3    3  502    0  0.11897906407E+03 -0.70816383192E+01 -0.41662614112E+03  0.43336543327E+03  0.47000000000E+01 0. -1.
         13    1    6    6    0    0 -0.51900888616E+02 -0.44798537038E+01 -0.84689068455E+02  0.99428414672E+02  0.00000000000E+00 0. -1.
        -14    1    6    6    0    0 -0.73872190929E+02 -0.62427943344E+02 -0.32046631320E+02  0.10188883787E+03  0.00000000000E+00 0.  1.
         -5    1    5    5    0  503  0.89551635791E+01  0.41274271203E+02 -0.71924734641E+01  0.43099676247E+02  0.47000000000E+01 0.  1.
<mgrwt>
<rscale>  2 0.21041770E+03</rscale>
<asrwt>0</asrwt>
<pdfrwt beam="1">  1       21 0.11281370E-01 0.21066904E+03</pdfrwt>
<pdfrwt beam="2">  1       21 0.15755211E+00 0.21066904E+03</pdfrwt>
<totfact> 0.16976129E+04</totfact>
</mgrwt>
</event>
<event>
12    1  0.2769346E-001  0.1855988E+03  0.7546771E-02  0.1162501E+00
         21   -1    0    0  504  503  0.00000000000E+00  0.00000000000E+00  0.24404460111E+03  0.24404460111E+03  0.00000000000E+00 0. -1.
         21   -1    0    0  502  504 -0.00000000000E+00 -0.00000000000E+00 -0.15984266339E+03  0.15984266339E+03  0.00000000000E+00 0.  1.
          6    2    1    2  502    0  0.23803803022E+02 -0.61874661952E+02 -0.27015837525E+02  0.18751652880E+03  0.17331329512E+03 0.  0.
         24    2    3    3    0    0  0.77423830287E+02 -0.16635339767E+02 -0.32390570781E+02  0.11699928726E+03  0.79802882902E+02 0.  0.
         -6    2    1    2    0  503 -0.23803803022E+02  0.61874661952E+02  0.11121777524E+03  0.21637073570E+03  0.17335456991E+03 0.  0.
        -24    2    5    5    0    0 -0.62958967125E+02  0.44081796699E+02  0.12816199822E+03  0.16990666763E+03  0.80843933447E+02 0.  0.
          2    1    4    4  501    0  0.66987877048E+02 -0.90663635916E+01  0.13843434915E+02  0.69001560203E+02  0.00000000000E+00 0. -1.
         -1    1    4    4    0  501  0.10435953239E+02 -0.75689761755E+01 -0.46234005696E+02  0.47997727061E+02  0.00000000000E+00 0.  1.
          5    1    3    3  502    0 -0.53620027265E+02 -0.45239322185E+02  0.53747332557E+01  0.70517241532E+02  0.47000000000E+01 0. -1.
         11    1    6    6    0    0 -0.16121553800E+01 -0.10284263253E+02  0.66560530365E+02  0.67369646861E+02  0.00000000000E+00 0. -1.
        -12    1    6    6    0    0 -0.61346811745E+02  0.54366059952E+02  0.61601467851E+02  0.10253702076E+03  0.00000000000E+00 0.  1.
         -5    1    5    5    0  503  0.39155164103E+02  0.17792865253E+02 -0.16944222974E+02  0.46464068075E+02  0.47000000000E+01 0.  1.
<mgrwt>
<rscale>  2 0.18558913E+03</rscale>
<asrwt>0</asrwt>
<pdfrwt beam="1">  1       21 0.37545323E-01 0.18559877E+03</pdfrwt>
<pdfrwt beam="2">  1       21 0.24591179E-01 0.18559877E+03</pdfrwt>
<totfact> 0.10721564E+05</totfact>
</mgrwt>
</event>
<event>
12    1  0.2769346E-001  0.1867671E+03  0.7546771E-02  0.1161418E+00
         21   -1    0    0  504  503  0.00000000000E+00  0.00000000000E+00  0.26332066951E+03  0.26332066951E+03  0.00000000000E+00 0.  1.
         21   -1    0    0  502  504 -0.00000000000E+00 -0.00000000000E+00 -0.15824548006E+03  0.15824548006E+03  0.00000000000E+00 0. -1.
          6    2    1    2  502    0  0.53144998708E+02  0.44931318668E+02  0.13764377250E+03  0.23198068215E+03  0.17328016187E+03 0.  0.
         24    2    3    3    0    0  0.20444250519E+02  0.99708703047E+02  0.10423817852E+03  0.15981473117E+03  0.65691381433E+02 0.  0.
         -6    2    1    2    0  503 -0.53144998708E+02 -0.44931318668E+02 -0.32568583056E+02  0.18958546743E+03  0.17331682715E+03 0.  0.
        -24    2    5    5    0    0 -0.29238933626E+02  0.47868043084E+02 -0.18730902926E+02  0.92648411145E+02  0.71320520013E+02 0.  0.
          4    1    4    4  501    0 -0.24073638258E+02  0.34707915328E+02  0.33059430773E+02  0.53638655916E+02  0.00000000000E+00 0. -1.
         -3    1    4    4    0  501  0.44517888777E+02  0.65000787719E+02  0.71178747751E+02  0.10617607526E+03  0.00000000000E+00 0.  1.
          5    1    3    3  502    0  0.32700748188E+02 -0.54777384379E+02  0.33405593979E+02  0.72165950978E+02  0.47000000000E+01 0. -1.
         13    1    6    6    0    0 -0.21599637178E+02 -0.97247989399E+01 -0.24727176687E+02  0.34242507320E+02  0.00000000000E+00 0. -1.
        -14    1    6    6    0    0 -0.76392964483E+01  0.57592842024E+02  0.59962737608E+01  0.58405903825E+02  0.00000000000E+00 0.  1.
         -5    1    5    5    0  503 -0.23906065081E+02 -0.92799361752E+02 -0.13837680131E+02  0.96937056283E+02  0.47000000000E+01 0.  1.
<mgrwt>
<rscale>  2 0.18675856E+03</rscale>
<asrwt>0</asrwt>
<pdfrwt beam="1">  1       21 0.40510872E-01 0.18676707E+03</pdfrwt>
<pdfrwt beam="2">  1       21 0.24345459E-01 0.18676707E+03</pdfrwt>
<totfact> 0.93750099E+04</totfact>
</mgrwt>
</event>
<event>
12    1  0.2769346E-001  0.2074187E+03  0.7546771E-02  0.1143752E+00
         21   -1    0    0  504  503  0.00000000000E+00  0.00000000000E+00  0.36690532409E+03  0.36690532409E+03  0.00000000000E+00 0. -1.
         21   -1    0    0  502  504 -0.00000000000E+00 -0.00000000000E+00 -0.13562310089E+03  0.13562310089E+03  0.00000000000E+00 0. -1.
          6    2    1    2  502    0 -0.11030129674E+03 -0.29052542482E+02  0.22446476162E+02  0.20862970833E+03  0.17323996253E+03 0.  0.
         24    2    3    3    0    0 -0.90663201950E+02 -0.55490443998E+02  0.70254870460E+02  0.15038582479E+03  0.79882062522E+02 0.  0.
         -6    2    1    2    0  503  0.11030129674E+03  0.29052542482E+02  0.20883574703E+03  0.29389871665E+03  0.17249249295E+03 0.  0.
        -24    2    5    5    0    0  0.14101598894E+03 -0.28013582095E+01  0.11841069593E+03  0.19311755188E+03  0.58137244411E+02 0.  0.
          4    1    4    4  501    0 -0.71685989167E+02 -0.74340565765E+02  0.42025693230E+02  0.11149690423E+03  0.00000000000E+00 0. -1.
         -3    1    4    4    0  501 -0.18977212783E+02  0.18850121767E+02  0.28229177230E+02  0.38888920565E+02  0.00000000000E+00 0.  1.
          5    1    3    3  502    0 -0.19638094788E+02  0.26437901516E+02 -0.47808394298E+02  0.58243883531E+02  0.47000000000E+01 0. -1.
         13    1    6    6    0    0  0.14242178890E+03 -0.88427848294E+01  0.12029359945E+03  0.18663523479E+03  0.00000000000E+00 0. -1.
        -14    1    6    6    0    0 -0.14057999560E+01  0.60414266200E+01 -0.18829035240E+01  0.64823170858E+01  0.00000000000E+00 0.  1.
         -5    1    5    5    0  503 -0.30714692203E+02  0.31853900691E+02  0.90425051105E+02  0.10078116478E+03  0.47000000000E+01 0.  1.
<mgrwt>
<rscale>  2 0.20726254E+03</rscale>
<asrwt>0</asrwt>
<pdfrwt beam="1">  1       21 0.56446973E-01 0.20741869E+03</pdfrwt>
<pdfrwt beam="2">  1       21 0.20865093E-01 0.20741869E+03</pdfrwt>
<totfact> 0.62524444E+04</totfact>
</mgrwt>
</event>
<event>
12    1  0.2769346E-001  0.2072368E+03  0.7546771E-02  0.1144489E+00
         21   -1    0    0  504  503  0.00000000000E+00  0.00000000000E+00  0.18306853193E+03  0.18306853193E+03  0.00000000000E+00 0. -1.
         21   -1    0    0  502  504 -0.00000000000E+00 -0.00000000000E+00 -0.23270376988E+03  0.23270376988E+03  0.00000000000E+00 0.  1.
          6    2    1    2  502    0  0.44248767717E+02 -0.10367694070E+03 -0.53883512852E+01  0.20730688525E+03  0.17389723651E+03 0.  0.
         24    2    3    3    0    0 -0.29503638513E+02 -0.10115570769E+03 -0.12024138086E+02  0.13306472939E+03  0.80366040257E+02 0.  0.
         -6    2    1    2    0  503 -0.44248767717E+02  0.10367694070E+03 -0.44246886669E+02  0.20846541656E+03  0.16968553693E+03 0.  0.
        -24    2    5    5    0    0 -0.73682485564E+02  0.16122118020E+02 -0.33927676174E+02  0.11540217556E+03  0.80483187960E+02 0.  0.
          2    1    4    4  501    0 -0.40600520743E+02 -0.81854719178E+02  0.20507936449E+02  0.93643861484E+02  0.00000000000E+00 0. -1.
         -1    1    4    4    0  501  0.11096882230E+02 -0.19300988513E+02 -0.32532074535E+02  0.39420867904E+02  0.00000000000E+00 0.  1.
          5    1    3    3  502    0  0.73752406230E+02 -0.25212330134E+01  0.66357868003E+01  0.74242155863E+02  0.47000000000E+01 0. -1.
         13    1    6    6    0    0 -0.11320619723E+02 -0.56043769940E+01  0.24282177850E+02  0.27371328677E+02  0.00000000000E+00 0. -1.
        -14    1    6    6    0    0 -0.62361865841E+02  0.21726495014E+02 -0.58209854024E+02  0.88030846879E+02  0.00000000000E+00 0.  1.
         -5    1    5    5    0  503  0.29433717847E+02  0.87554822684E+02 -0.10319210495E+02  0.93063241007E+02  0.47000000000E+01 0.  1.
<mgrwt>
<rscale>  2 0.20635087E+03</rscale>
<asrwt>0</asrwt>
<pdfrwt beam="1">  1       21 0.28164390E-01 0.20723685E+03</pdfrwt>
<pdfrwt beam="2">  1       21 0.35800580E-01 0.20723685E+03</pdfrwt>
<totfact> 0.90085287E+04</totfact>
</mgrwt>
</event>
<event>
12    1  0.2769346E-001  0.1859659E+03  0.7546771E-02  0.1162974E+00
         21   -1    0    0  504  503  0.00000000000E+00  0.00000000000E+00  0.14375603372E+03  0.14375603372E+03  0.00000000000E+00 0.  1.
         21   -1    0    0  502  504 -0.00000000000E+00 -0.00000000000E+00 -0.11042936310E+04  0.11042936310E+04  0.00000000000E+00 0.  1.
          6    2    1    2  502    0 -0.65882986517E+02  0.17137207462E+02 -0.10345694403E+04  0.10511504339E+04  0.17305795572E+03 0.  0.
         24    2    3    3    0    0 -0.10276616022E+03 -0.20677261916E+02 -0.70586718593E+03  0.71819763748E+03  0.81061269827E+02 0.  0.
         -6    2    1    2    0  503  0.65882986517E+02 -0.17137207462E+02  0.74031843021E+02  0.19689923085E+03  0.16927593313E+03 0.  0.
        -24    2    5    5    0    0  0.72704901604E+02 -0.48439435333E+02  0.17266659923E+02  0.13154830119E+03  0.96821673138E+02 0.  0.
          2    1    4    4  501    0 -0.37216810672E+02 -0.52633429900E+01 -0.50391886021E+03  0.50531872264E+03  0.00000000000E+00 0. -1.
         -1    1    4    4    0  501 -0.65549349550E+02 -0.15413918926E+02 -0.20194832572E+03  0.21287891484E+03  0.00000000000E+00 0.  1.
          5    1    3    3  502    0  0.36883173705E+02  0.37814469378E+02 -0.32870225437E+03  0.33295279640E+03  0.47000000000E+01 0. -1.
         13    1    6    6    0    0  0.12668931113E+02 -0.29841064390E+02 -0.36513654026E+02  0.48828658284E+02  0.00000000000E+00 0. -1.
        -14    1    6    6    0    0  0.60035970491E+02 -0.18598370943E+02  0.53780313949E+02  0.82719642909E+02  0.00000000000E+00 0.  1.
         -5    1    5    5    0  503 -0.68219150873E+01  0.31302227872E+02  0.56765183098E+02  0.65350929659E+02  0.47000000000E+01 0.  1.
<mgrwt>
<rscale>  2 0.18508102E+03</rscale>
<asrwt>0</asrwt>
<pdfrwt beam="1">  1       21 0.22116313E-01 0.18596588E+03</pdfrwt>
<pdfrwt beam="2">  1       21 0.16989133E+00 0.18596588E+03</pdfrwt>
<totfact> 0.41102160E+03</totfact>
</mgrwt>
</event>
<event>
12    1  0.2769346E-001  0.2086867E+03  0.7546771E-02  0.1145431E+00
         21   -1    0    0  504  503  0.00000000000E+00  0.00000000000E+00  0.13556494765E+03  0.13556494765E+03  0.00000000000E+00 0.  1.
         21   -1    0    0  502  504 -0.00000000000E+00 -0.00000000000E+00 -0.47652310835E+03  0.47652310835E+03  0.00000000000E+00 0.  1.
          6    2    1    2  502    0  0.80001874771E+02 -0.43942044199E+02 -0.35999063448E+03  0.41610501066E+03  0.18766704496E+03 0.  0.
         24    2    3    3    0    0  0.14603541538E+02  0.43986578438E+02 -0.11263622037E+03  0.14552289586E+03  0.79636126048E+02 0.  0.
         -6    2    1    2    0  503 -0.80001874771E+02  0.43942044199E+02  0.19032473780E+02  0.19598304534E+03  0.17238304960E+03 0.  0.
        -24    2    5    5    0    0 -0.36495272680E+01  0.72857536447E+02 -0.11970794128E+02  0.10852403047E+03  0.79452033399E+02 0.  0.
          4    1    4    4  501    0 -0.25521412633E+02  0.94459981690E+01 -0.81813641314E+01  0.28416616675E+02  0.00000000000E+00 0. -1.
         -3    1    4    4    0  501  0.40124954171E+02  0.34540580269E+02 -0.10445485624E+03  0.11710627918E+03  0.00000000000E+00 0.  1.
          5    1    3    3  502    0  0.65398333233E+02 -0.87928622637E+02 -0.24735441411E+03  0.27058211480E+03  0.47000000000E+01 0. -1.
         11    1    6    6    0    0  0.12077721553E+02  0.70721966751E+02 -0.35573776292E+02  0.80080968392E+02  0.00000000000E+00 0. -1.
        -12    1    6    6    0    0 -0.15727248821E+02  0.21355696966E+01  0.23602982164E+02  0.28443062079E+02  0.00000000000E+00 0.  1.
         -5    1    5    5    0  503 -0.76352347503E+02 -0.28915492249E+02  0.31003267908E+02  0.87459014871E+02  0.47000000000E+01 0.  1.
<mgrwt>
<rscale>  2 0.20519239E+03</rscale>
<asrwt>0</asrwt>
<pdfrwt beam="1">  1       21 0.20856146E-01 0.20868666E+03</pdfrwt>
<pdfrwt beam="2">  1       21 0.73311248E-01 0.20868666E+03</pdfrwt>
<totfact> 0.35393401E+04</totfact>
</mgrwt>
</event>
<event>
12    1  0.2769346E-001  0.2851773E+03  0.7546771E-02  0.1092916E+00
         21   -1    0    0  504  503  0.00000000000E+00  0.00000000000E+00  0.25908850619E+03  0.25908850619E+03  0.00000000000E+00 0.  1.
         21   -1    0    0  502  504 -0.00000000000E+00 -0.00000000000E+00 -0.39265436537E+03  0.39265436537E+03  0.00000000000E+00 0. -1.
          6    2    1    2  502    0 -0.67820561210E+02 -0.21468693058E+03 -0.21288019698E+03  0.35574143079E+03  0.17476807668E+03 0.  0.
         24    2    3    3    0    0 -0.99021035220E+02 -0.10077977326E+03 -0.96236030014E+02  0.18968041262E+03  0.82192197593E+02 0.  0.
         -6    2    1    2    0  503  0.67820561210E+02  0.21468693058E+03  0.79314337808E+02  0.29600144078E+03  0.17503137455E+03 0.  0.
        -24    2    5    5    0    0 -0.13403240270E+02  0.33860626436E+02  0.12449767661E+02  0.86744615469E+02  0.77739582748E+02 0.  0.
          2    1    4    4  501    0 -0.68501408898E+02 -0.71492776805E+02 -0.10725488948E+03  0.14597010473E+03  0.00000000000E+00 0. -1.
         -1    1    4    4    0  501 -0.30519626322E+02 -0.29286996459E+02  0.11018859468E+02  0.43710307897E+02  0.00000000000E+00 0.  1.
          5    1    3    3  502    0  0.31200474010E+02 -0.11390715731E+03 -0.11664416697E+03  0.16606101816E+03  0.47000000000E+01 0. -1.
         11    1    6    6    0    0 -0.28713647741E+02  0.44584900390E+02  0.30148977683E+02  0.61002030825E+02  0.00000000000E+00 0. -1.
        -12    1    6    6    0    0  0.15310407471E+02 -0.10724273955E+02 -0.17699210022E+02  0.25742584645E+02  0.00000000000E+00 0.  1.
         -5    1    5    5    0  503  0.81223801480E+02  0.18082630414E+03  0.66864570147E+02  0.20925682531E+03  0.47000000000E+01 0.  1.
<mgrwt>
<rscale>  2 0.28513690E+03</rscale>
<asrwt>0</asrwt>
<pdfrwt beam="1">  1       21 0.39859770E-01 0.28517729E+03</pdfrwt>
<pdfrwt beam="2">  1       21 0.60408363E-01 0.28517729E+03</pdfrwt>
<totfact> 0.14737800E+04</totfact>
</mgrwt>
</event>
<event>
12    1  0.2769346E-001  0.1823608E+03  0.7546771E-02  0.1166326E+00
         21   -1    0    0  504  503  0.00000000000E+00  0.00000000000E+00  0.12456196121E+03  0.12456196121E+03  0.00000000000E+00 0.  1.
         21   -1    0    0  502  504 -0.00000000000E+00 -0.00000000000E+00 -0.33945989329E+03  0.33945989329E+03  0.00000000000E+00 0.  1.
          6    2    1    2  502    0 -0.44950993944E+02 -0.27837909676E+02 -0.21737988611E+03  0.28164420253E+03  0.17109617430E+03 0.  0.
         24    2    3    3    0    0  0.15232864382E+02  0.27215923525E+02 -0.16183593695E+03  0.18285026728E+03  0.79187139774E+02 0.  0.
         -6    2    1    2    0  503  0.44950993944E+02  0.27837909676E+02  0.24819540307E+01  0.18237765198E+03  0.17452766765E+03 0.  0.
        -24    2    5    5    0    0  0.46852882754E+02 -0.33500488725E+02  0.44034655080E+02  0.10811640190E+03  0.80203679116E+02 0.  0.
          4    1    4    4  501    0  0.44853347956E+02  0.29954424209E+02 -0.11950469706E+03  0.13111240587E+03  0.00000000000E+00 0. -1.
         -3    1    4    4    0  501 -0.29620483573E+02 -0.27385006839E+01 -0.42331239882E+02  0.51737861408E+02  0.00000000000E+00 0.  1.
          5    1    3    3  502    0 -0.60183858326E+02 -0.55053833201E+02 -0.55543949167E+02  0.98793935251E+02  0.47000000000E+01 0. -1.
         11    1    6    6    0    0 -0.22011708037E+02 -0.17111338967E+02  0.10568469027E+02  0.29816199448E+02  0.00000000000E+00 0. -1.
        -12    1    6    6    0    0  0.68864590790E+02 -0.16389149758E+02  0.33466186053E+02  0.78300202448E+02  0.00000000000E+00 0.  1.
         -5    1    5    5    0  503 -0.19018888099E+01  0.61338398401E+02 -0.41552701049E+02  0.74261250083E+02  0.47000000000E+01 0.  1.
<mgrwt>
<rscale>  2 0.18153484E+03</rscale>
<asrwt>0</asrwt>
<pdfrwt beam="1">  1       21 0.19163379E-01 0.18236076E+03</pdfrwt>
<pdfrwt beam="2">  1       21 0.52224598E-01 0.18236076E+03</pdfrwt>
<totfact> 0.87314279E+04</totfact>
</mgrwt>
</event>
<event>
12    1  0.2769346E-001  0.1802376E+03  0.7546771E-02  0.1167751E+00
         21   -1    0    0  504  503  0.00000000000E+00  0.00000000000E+00  0.15773188752E+03  0.15773188752E+03  0.00000000000E+00 0.  1.
         21   -1    0    0  502  504 -0.00000000000E+00 -0.00000000000E+00 -0.42772460078E+03  0.42772460078E+03  0.00000000000E+00 0. -1.
          6    2    1    2  502    0  0.33898993087E+02  0.32023389492E+02 -0.34630750066E+03  0.39040296659E+03  0.17410040809E+03 0.  0.
         24    2    3    3    0    0  0.43429445873E+02  0.77871653694E+02 -0.17241047031E+03  0.21024980945E+03  0.80805327073E+02 0.  0.
         -6    2    1    2    0  503 -0.33898993087E+02 -0.32023389492E+02  0.76314787406E+02  0.19505352171E+03  0.17334154248E+03 0.  0.
        -24    2    5    5    0    0 -0.39970696550E+02  0.40139919745E+02  0.15852757247E+02  0.10059635748E+03  0.81605437851E+02 0.  0.
          2    1    4    4  501    0  0.48397322021E+02  0.92272692888E+02 -0.15811304215E+03  0.18935755789E+03  0.00000000000E+00 0. -1.
         -1    1    4    4    0  501 -0.49678761485E+01 -0.14401039194E+02 -0.14297428156E+02  0.20892251558E+02  0.00000000000E+00 0.  1.
          5    1    3    3  502    0 -0.95304527851E+01 -0.45848264202E+02 -0.17389703035E+03  0.18015315714E+03  0.47000000000E+01 0. -1.
         13    1    6    6    0    0  0.12656930838E+01 -0.13396933997E+02 -0.19993866079E+02  0.24100508299E+02  0.00000000000E+00 0. -1.
        -14    1    6    6    0    0 -0.41236389634E+02  0.53536853742E+02  0.35846623325E+02  0.76495849184E+02  0.00000000000E+00 0.  1.
         -5    1    5    5    0  503  0.60717034623E+01 -0.72163309237E+02  0.60462030160E+02  0.94457164228E+02  0.47000000000E+01 0.  1.
<mgrwt>
<rscale>  2 0.18005409E+03</rscale>
<asrwt>0</asrwt>
<pdfrwt beam="1">  1       21 0.24266444E-01 0.18023760E+03</pdfrwt>
<pdfrwt beam="2">  1       21 0.65803786E-01 0.18023760E+03</pdfrwt>
<totfact> 0.34240605E+04</totfact>
</mgrwt>
</event>
<event>
12    1  0.2769346E-001  0.2489774E+03  0.7546771E-02  0.1114074E+00
         21   -1    0    0  504  503  0.00000000000E+00  0.00000000000E+00  0.59618860783E+03  0.59618860783E+03  0.00000000000E+00 0.  1.
         21   -1    0    0  502  504 -0.00000000000E+00 -0.00000000000E+00 -0.10365976506E+03  0.10365976506E+03  0.00000000000E+00 0. -1.
          6    2    1    2  502    0 -0.11757335895E+03  0.13473723583E+03  0.24574144532E+03  0.34928628653E+03  0.17214654965E+03 0.  0.
         24    2    3    3    0    0 -0.95832443821E+01  0.39025587151E+02  0.26962576940E+02  0.87162522278E+02  0.72494756425E+02 0.  0.
         -6    2    1    2    0  503  0.11757335895E+03 -0.13473723583E+03  0.24678739746E+03  0.35056208636E+03  0.17324012062E+03 0.  0.
        -24    2    5    5    0    0 -0.79536041550E+01 -0.28976651292E+02  0.83917100602E+02  0.11928056244E+03  0.79264535968E+02 0.  0.
          4    1    4    4  501    0 -0.11429084669E+02  0.24302005133E+02 -0.22803786382E+02  0.35231010533E+02  0.00000000000E+00 0. -1.
         -3    1    4    4    0  501  0.18458402868E+01  0.14723582018E+02  0.49766363321E+02  0.51931511744E+02  0.00000000000E+00 0.  1.
          5    1    3    3  502    0 -0.10799011457E+03  0.95711648680E+02  0.21877886838E+03  0.26212376425E+03  0.47000000000E+01 0. -1.
         11    1    6    6    0    0 -0.18166521431E+02 -0.48093601464E+02  0.82944374171E+02  0.97584764227E+02  0.00000000000E+00 0. -1.
        -12    1    6    6    0    0  0.10212917276E+02  0.19116950172E+02  0.97272643082E+00  0.21695798208E+02  0.00000000000E+00 0.  1.
         -5    1    5    5    0  503  0.12552696311E+03 -0.10576058454E+03  0.16287029686E+03  0.23128152392E+03  0.47000000000E+01 0.  1.
<mgrwt>
<rscale>  2 0.24878729E+03</rscale>
<asrwt>0</asrwt>
<pdfrwt beam="1">  1       21 0.91721322E-01 0.24897742E+03</pdfrwt>
<pdfrwt beam="2">  1       21 0.15947656E-01 0.24897742E+03</pdfrwt>
<totfact> 0.34283677E+04</totfact>
</mgrwt>
</event>
<event>
12    1  0.2769346E-001  0.1768197E+03  0.7546771E-02  0.1172500E+00
         21   -1    0    0  504  503  0.00000000000E+00  0.00000000000E+00  0.84601397419E+02  0.84601397419E+02  0.00000000000E+00 0.  1.
         21   -1    0    0  502  504 -0.00000000000E+00 -0.00000000000E+00 -0.37873072247E+03  0.37873072247E+03  0.00000000000E+00 0.  1.
          6    2    1    2  502    0 -0.36818599604E+02  0.12085041583E+01 -0.20558900916E+03  0.27116794942E+03  0.17293971883E+03 0.  0.
         24    2    3    3    0    0 -0.32600696228E+02  0.38986188739E+02 -0.47643117602E+02  0.10864429323E+03  0.83372582366E+02 0.  0.
         -6    2    1    2    0  503  0.36818599604E+02 -0.12085041583E+01 -0.88540315888E+02  0.19216417046E+03  0.16652510655E+03 0.  0.
        -24    2    5    5    0    0  0.40269449069E+02 -0.58658205182E+02 -0.29470240699E+02  0.10955823670E+03  0.77923671493E+02 0.  0.
          4    1    4    4  501    0  0.25021876261E+02  0.25974296977E+02 -0.64793585074E+01  0.36643423444E+02  0.00000000000E+00 0. -1.
         -3    1    4    4    0  501 -0.57622572489E+02  0.13011891763E+02 -0.41163759095E+02  0.72000869789E+02  0.00000000000E+00 0.  1.
          5    1    3    3  502    0 -0.42179033760E+01 -0.37777684581E+02 -0.15794589156E+03  0.16252365619E+03  0.47000000000E+01 0. -1.
         13    1    6    6    0    0 -0.19740102522E+02  0.20530530656E+01 -0.89003419857E+01  0.21750925542E+02  0.00000000000E+00 0. -1.
        -14    1    6    6    0    0  0.60009551591E+02 -0.60711258247E+02 -0.20569898714E+02  0.87807311160E+02  0.00000000000E+00 0.  1.
         -5    1    5    5    0  503 -0.34508494644E+01  0.57449701023E+02 -0.59070075189E+02  0.82605933761E+02  0.47000000000E+01 0.  1.
<mgrwt>
<rscale>  2 0.17523130E+03</rscale>
<asrwt>0</asrwt>
<pdfrwt beam="1">  1       21 0.13015599E-01 0.17681973E+03</pdfrwt>
<pdfrwt beam="2">  1       21 0.58266266E-01 0.17681973E+03</pdfrwt>
<totfact> 0.14070265E+05</totfact>
</mgrwt>
</event>
<event>
12    1  0.2769346E-001  0.1891396E+03  0.7546771E-02  0.1159265E+00
         21   -1    0    0  504  503  0.00000000000E+00  0.00000000000E+00  0.53623902311E+02  0.53623902311E+02  0.00000000000E+00 0. -1.
         21   -1    0    0  502  504 -0.00000000000E+00 -0.00000000000E+00 -0.79354552972E+03  0.79354552972E+03  0.00000000000E+00 0. -1.
          6    2    1    2  502    0  0.44549683877E+00  0.76568187289E+02 -0.53938751455E+03  0.57158784759E+03  0.17294765360E+03 0.  0.
         24    2    3    3    0    0  0.63837213680E+02  0.42714774468E+02 -0.25259731733E+03  0.27589329143E+03  0.80074725864E+02 0.  0.
         -6    2    1    2    0  503 -0.44549683877E+00 -0.76568187289E+02 -0.20053411286E+03  0.27558158444E+03  0.17282474791E+03 0.  0.
        -24    2    5    5    0    0  0.17521967032E+02 -0.11487680660E+03 -0.12387286141E+03  0.18789226044E+03  0.80344979402E+02 0.  0.
          2    1    4    4  501    0  0.31239306336E+02 -0.33951306568E+01 -0.21691844603E+02  0.38183206974E+02  0.00000000000E+00 0. -1.
         -1    1    4    4    0  501  0.32597907344E+02  0.46109905124E+02 -0.23090547273E+03  0.23771008445E+03  0.00000000000E+00 0.  1.
          5    1    3    3  502    0 -0.63391716842E+02  0.33853412821E+02 -0.28679019722E+03  0.29569455616E+03  0.47000000000E+01 0. -1.
         11    1    6    6    0    0  0.18921096861E+02  0.10976675181E+01 -0.41534042151E+02  0.45654018857E+02  0.00000000000E+00 0. -1.
        -12    1    6    6    0    0 -0.13991298287E+01 -0.11597447411E+03 -0.82338819263E+02  0.14223824158E+03  0.00000000000E+00 0.  1.
         -5    1    5    5    0  503 -0.17967463871E+02  0.38308619307E+02 -0.76661251444E+02  0.87689324003E+02  0.47000000000E+01 0.  1.
<mgrwt>
<rscale>  2 0.18911147E+03</rscale>
<asrwt>0</asrwt>
<pdfrwt beam="1">  1       21 0.82498314E-02 0.18913957E+03</pdfrwt>
<pdfrwt beam="2">  1       21 0.12208392E+00 0.18913957E+03</pdfrwt>
<totfact> 0.57652893E+04</totfact>
</mgrwt>
</event>
<event>
12    1  0.2769346E-001  0.2011856E+03  0.7546771E-02  0.1149774E+00
         21   -1    0    0  504  503  0.00000000000E+00  0.00000000000E+00  0.17468669872E+03  0.17468669872E+03  0.00000000000E+00 0. -1.
         21   -1    0    0  502  504 -0.00000000000E+00 -0.00000000000E+00 -0.27981788152E+03  0.27981788152E+03  0.00000000000E+00 0.  1.
          6    2    1    2  502    0 -0.49282482868E+02  0.89780500860E+02 -0.15261692287E+03  0.25252244347E+03  0.17316569481E+03 0.  0.
         24    2    3    3    0    0 -0.92100288446E+02  0.46768275617E+02 -0.13603708814E+03  0.18943205661E+03  0.81906532007E+02 0.  0.
         -6    2    1    2    0  503  0.49282482868E+02 -0.89780500860E+02  0.47485740073E+02  0.20198213677E+03  0.16748906416E+03 0.  0.
        -24    2    5    5    0    0 -0.17070813070E+02 -0.70283592867E+02  0.70626887300E+02  0.12890346685E+03  0.79979687860E+02 0.  0.
          4    1    4    4  501    0 -0.37366101843E+02  0.24291174398E+02 -0.40044281528E+01  0.44747314616E+02  0.00000000000E+00 0. -1.
         -3    1    4    4    0  501 -0.54734186603E+02  0.22477101219E+02 -0.13203265998E+03  0.14468474199E+03  0.00000000000E+00 0.  1.
          5    1    3    3  502    0  0.42817805578E+02  0.43012225243E+02 -0.16579834729E+02  0.63090386863E+02  0.47000000000E+01 0. -1.
         11    1    6    6    0    0 -0.34812620287E+02 -0.41946335216E+02  0.43654361077E+01  0.54685195453E+02  0.00000000000E+00 0. -1.
        -12    1    6    6    0    0  0.17741807217E+02 -0.28337257651E+02  0.66261451192E+02  0.74218271393E+02  0.00000000000E+00 0.  1.
         -5    1    5    5    0  503  0.66353295937E+02 -0.19496907994E+02 -0.23141147227E+02  0.73078669925E+02  0.47000000000E+01 0.  1.
<mgrwt>
<rscale>  2 0.19995826E+03</rscale>
<asrwt>0</asrwt>
<pdfrwt beam="1">  1       21 0.26874877E-01 0.20118563E+03</pdfrwt>
<pdfrwt beam="2">  1       21 0.43048905E-01 0.20118563E+03</pdfrwt>
<totfact> 0.68160095E+04</totfact>
</mgrwt>
</event>
<event>
12    1  0.2769346E-001  0.3421666E+03  0.7546771E-02  0.1065921E+00
         21   -1    0    0  504  503  0.00000000000E+00  0.00000000000E+00  0.31698074887E+03  0.31698074887E+03  0.00000000000E+00 0. -1.
         21   -1    0    0  502  504 -0.00000000000E+00 -0.00000000000E+00 -0.42848021427E+03  0.42848021427E+03  0.00000000000E+00 0.  1.
          6    2    1    2  502    0 -0.11370666916E+03  0.27182939190E+03 -0.19476043643E+03  0.39371262545E+03  0.17394705783E+03 0.  0.
         24    2    3    3    0    0 -0.66346483713E+02  0.23685492027E+03 -0.21102394845E+03  0.33245258420E+03  0.74104687859E+02 0.  0.
         -6    2    1    2    0  503  0.11370666916E+03 -0.27182939190E+03  0.83260971039E+02  0.35174833769E+03  0.17313023671E+03 0.  0.
        -24    2    5    5    0    0  0.30097658564E+02 -0.17334469795E+03  0.10649481800E+03  0.22040297904E+03  0.79259532876E+02 0.  0.
          4    1    4    4  501    0  0.12765043533E+02  0.78688619255E+02 -0.57907358470E+02  0.98529728009E+02  0.00000000000E+00 0. -1.
         -3    1    4    4    0  501 -0.79111527246E+02  0.15816630101E+03 -0.15311658998E+03  0.23392285619E+03  0.00000000000E+00 0.  1.
          5    1    3    3  502    0 -0.47360185445E+02  0.34974471626E+02  0.16263512017E+02  0.61260041251E+02  0.47000000000E+01 0. -1.
         13    1    6    6    0    0  0.29715967519E+02 -0.14611834294E+02  0.27783836811E+02  0.43225987727E+02  0.00000000000E+00 0. -1.
        -14    1    6    6    0    0  0.38169104566E+00 -0.15873286365E+03  0.78710981190E+02  0.17717699131E+03  0.00000000000E+00 0.  1.
         -5    1    5    5    0  503  0.83609010594E+02 -0.98484693950E+02 -0.23233846962E+02  0.13134535865E+03  0.47000000000E+01 0.  1.
<mgrwt>
<rscale>  2 0.34206295E+03</rscale>
<asrwt>0</asrwt>
<pdfrwt beam="1">  1       21 0.48766269E-01 0.34216663E+03</pdfrwt>
<pdfrwt beam="2">  1       21 0.65920033E-01 0.34216663E+03</pdfrwt>
<totfact> 0.78208716E+03</totfact>
</mgrwt>
</event>
<event>
12    1  0.2769346E-001  0.2110147E+03  0.7546771E-02  0.1141158E+00
         21   -1    0    0  504  503  0.00000000000E+00  0.00000000000E+00  0.59730052082E+03  0.59730052082E+03  0.00000000000E+00 0.  1.
         21   -1    0    0  502  504 -0.00000000000E+00 -0.00000000000E+00 -0.75010918003E+02  0.75010918003E+02  0.00000000000E+00 0.  1.
          6    2    1    2  502    0 -0.10770064825E+03 -0.51511813444E+02  0.21806898839E+03  0.30207180475E+03  0.17158203568E+03 0.  0.
         24    2    3    3    0    0 -0.81848267735E+01 -0.43841872889E+02  0.41040174607E+02  0.98789937330E+02  0.78013169261E+02 0.  0.
         -6    2    1    2    0  503  0.10770064825E+03  0.51511813444E+02  0.30422061443E+03  0.37023963407E+03  0.17399513740E+03 0.  0.
        -24    2    5    5    0    0  0.10200124920E+02  0.63156108612E+02  0.20937685812E+03  0.23364033037E+03  0.81586755412E+02 0.  0.
          2    1    4    4  501    0 -0.16685469900E+02 -0.61005856633E+02  0.46924276862E+02  0.78752823494E+02  0.00000000000E+00 0. -1.
         -1    1    4    4    0  501  0.85006431263E+01  0.17163983744E+02 -0.58841022550E+01  0.20037113836E+02  0.00000000000E+00 0.  1.
          5    1    3    3  502    0 -0.99515821479E+02 -0.76699405551E+01  0.17702881378E+03  0.20328186742E+03  0.47000000000E+01 0. -1.
         13    1    6    6    0    0 -0.34218695287E+02  0.41132884700E+02  0.96154472260E+02  0.11003870158E+03  0.00000000000E+00 0. -1.
        -14    1    6    6    0    0  0.44418820207E+02  0.22023223912E+02  0.11322238586E+03  0.12360162879E+03  0.00000000000E+00 0.  1.
         -5    1    5    5    0  503  0.97500523333E+02 -0.11644295168E+02  0.94843756311E+02  0.13659930370E+03  0.47000000000E+01 0.  1.
<mgrwt>
<rscale>  2 0.21051662E+03</rscale>
<asrwt>0</asrwt>
<pdfrwt beam="1">  1       21 0.91892385E-01 0.21101470E+03</pdfrwt>
<pdfrwt beam="2">  1       21 0.11540142E-01 0.21101470E+03</pdfrwt>
<totfact> 0.62444974E+04</totfact>
</mgrwt>
</event>
<event>
12    1  0.2769346E-001  0.1772526E+03  0.7546771E-02  0.1171262E+00
         21   -1    0    0  504  503  0.00000000000E+00  0.00000000000E+00  0.89728619951E+03  0.89728619951E+03  0.00000000000E+00 0.  1.
         21   -1    0    0  502  504 -0.00000000000E+00 -0.00000000000E+00 -0.15997105015E+03  0.15997105015E+03  0.00000000000E+00 0.  1.
          6    2    1    2  502    0 -0.17877471560E+02  0.85942294526E+01 -0.98983858268E+02  0.20301797922E+03  0.17613923730E+03 0.  0.
         24    2    3    3    0    0  0.48402491126E+02  0.30776146097E+02 -0.92985152507E+02  0.13271047357E+03  0.75338296318E+02 0.  0.
         -6    2    1    2    0  503  0.17877471560E+02 -0.85942294526E+01  0.83629900762E+03  0.85423927044E+03  0.17301802289E+03 0.  0.
        -24    2    5    5    0    0  0.13978105906E+02 -0.14910884266E+02  0.84055380317E+03  0.84447717714E+03  0.78697425385E+02 0.  0.
          2    1    4    4  501    0  0.29404133774E+02  0.54439890117E+02 -0.75762003200E+02  0.97817104066E+02  0.00000000000E+00 0. -1.
         -1    1    4    4    0  501  0.18998357352E+02 -0.23663744020E+02 -0.17223149307E+02  0.34893369502E+02  0.00000000000E+00 0.  1.
          5    1    3    3  502    0 -0.66279962686E+02 -0.22181916645E+02 -0.59987057605E+01  0.70307505648E+02  0.47000000000E+01 0. -1.
         13    1    6    6    0    0  0.11847854279E+02 -0.35234737263E+02  0.18999017491E+03  0.19359267787E+03  0.00000000000E+00 0. -1.
        -14    1    6    6    0    0  0.21302516277E+01  0.20323852996E+02  0.65056362826E+03  0.65088449927E+03  0.00000000000E+00 0.  1.
         -5    1    5    5    0  503  0.38993656535E+01  0.63166548138E+01 -0.42547955499E+01  0.97620933056E+01  0.47000000000E+01 0.  1.
<mgrwt>
<rscale>  2 0.17647218E+03</rscale>
<asrwt>0</asrwt>
<pdfrwt beam="1">  1       21 0.13804403E+00 0.17725263E+03</pdfrwt>
<pdfrwt beam="2">  1       21 0.24610931E-01 0.17725263E+03</pdfrwt>
<totfact> 0.58652226E+03</totfact>
</mgrwt>
</event>
<event>
12    1  0.2769346E-001  0.1761682E+03  0.7546771E-02  0.1171894E+00
         21   -1    0    0  504  503  0.00000000000E+00  0.00000000000E+00  0.18179750449E+03  0.18179750449E+03  0.00000000000E+00 0.  1.
         21   -1    0    0  502  504 -0.00000000000E+00 -0.00000000000E+00 -0.31293165207E+03  0.31293165207E+03  0.00000000000E+00 0.  1.
          6    2    1    2  502    0 -0.12251053928E+02 -0.26823735232E+02 -0.23320672858E+03  0.29226805716E+03  0.17368257796E+03 0.  0.
         24    2    3    3    0    0 -0.67726688175E+02  0.12312978556E+02 -0.16381658363E+03  0.19507592488E+03  0.80499873676E+02 0.  0.
         -6    2    1    2    0  503  0.12251053928E+02  0.26823735232E+02  0.10207258100E+03  0.20246109941E+03  0.17234292526E+03 0.  0.
        -24    2    5    5    0    0  0.38168133851E+02  0.68956706057E+02  0.10395516005E+03  0.15273669527E+03  0.79435439393E+02 0.  0.
          2    1    4    4  501    0 -0.83349533802E+02 -0.38505539727E+01 -0.12879721699E+03  0.15346235582E+03  0.00000000000E+00 0. -1.
         -1    1    4    4    0  501  0.15622845627E+02  0.16163532528E+02 -0.35019366643E+02  0.41613569053E+02  0.00000000000E+00 0.  1.
          5    1    3    3  502    0  0.55475634247E+02 -0.39136713787E+02 -0.69390144950E+02  0.97192132281E+02  0.47000000000E+01 0. -1.
         13    1    6    6    0    0  0.37562798152E+02  0.81078408928E+01  0.82175750877E+01  0.39296684711E+02  0.00000000000E+00 0. -1.
        -14    1    6    6    0    0  0.60533569840E+00  0.60848865164E+02  0.95737584958E+02  0.11344001056E+03  0.00000000000E+00 0.  1.
         -5    1    5    5    0  503 -0.25917079923E+02 -0.42132970826E+02 -0.18825790426E+01  0.49724404131E+02  0.47000000000E+01 0.  1.
<mgrwt>
<rscale>  2 0.17583713E+03</rscale>
<asrwt>0</asrwt>
<pdfrwt beam="1">  1       21 0.27968847E-01 0.17616821E+03</pdfrwt>
<pdfrwt beam="2">  1       21 0.48143331E-01 0.17616821E+03</pdfrwt>
<totfact> 0.50726682E+04</totfact>
</mgrwt>
</event>
<event>
12    1  0.2769346E-001  0.3306124E+03  0.7546771E-02  0.1071129E+00
         21   -1    0    0  504  503  0.00000000000E+00  0.00000000000E+00  0.39096779759E+03  0.39096779759E+03  0.00000000000E+00 0. -1.
         21   -1    0    0  502  504 -0.00000000000E+00 -0.00000000000E+00 -0.29461481632E+03  0.29461481632E+03  0.00000000000E+00 0.  1.
          6    2    1    2  502    0 -0.26908563717E+03  0.82573227259E+02 -0.34424908949E+02  0.33004443114E+03  0.16887520298E+03 0.  0.
         24    2    3    3    0    0 -0.15243679498E+03  0.97081252502E+02 -0.64664819872E+02  0.20857847956E+03  0.81619220507E+02 0.  0.
         -6    2    1    2    0  503  0.26908563717E+03 -0.82573227259E+02  0.13077789022E+03  0.35553818277E+03  0.17343334411E+03 0.  0.
        -24    2    5    5    0    0  0.18146900836E+03  0.41564429907E+01  0.84303211964E+02  0.22370231867E+03  0.99937074282E+02 0.  0.
          2    1    4    4  501    0 -0.93720059460E+02  0.74114802197E+02 -0.79872022694E+02  0.14372193103E+03  0.00000000000E+00 0. -1.
         -1    1    4    4    0  501 -0.58716735521E+02  0.22966450305E+02  0.15207202822E+02  0.64856548532E+02  0.00000000000E+00 0.  1.
          5    1    3    3  502    0 -0.11664884218E+03 -0.14508025243E+02  0.30239910923E+02  0.12146595158E+03  0.47000000000E+01 0. -1.
         11    1    6    6    0    0  0.18586437895E+03  0.18372310822E+02  0.90551658523E+02  0.20756375413E+03  0.00000000000E+00 0. -1.
        -12    1    6    6    0    0 -0.43953705925E+01 -0.14215867831E+02 -0.62484465586E+01  0.16138564535E+02  0.00000000000E+00 0.  1.
         -5    1    5    5    0  503  0.87616628805E+02 -0.86729670250E+02  0.46474678256E+02  0.13183586410E+03  0.47000000000E+01 0.  1.
<mgrwt>
<rscale>  2 0.33001873E+03</rscale>
<asrwt>0</asrwt>
<pdfrwt beam="1">  1       21 0.60148892E-01 0.33061238E+03</pdfrwt>
<pdfrwt beam="2">  1       21 0.45325356E-01 0.33061238E+03</pdfrwt>
<totfact> 0.11199488E+04</totfact>
</mgrwt>
</event>
<event>
12    1  0.2769346E-001  0.2167008E+03  0.7546771E-02  0.1139821E+00
         21   -1    0    0  504  503  0.00000000000E+00  0.00000000000E+00  0.86447550891E+02  0.86447550891E+02  0.00000000000E+00 0. -1.
         21   -1    0    0  502  504 -0.00000000000E+00 -0.00000000000E+00 -0.52255186623E+03  0.52255186623E+03  0.00000000000E+00 0.  1.
          6    2    1    2  502    0 -0.11049819599E+03 -0.39873356658E+00 -0.14685482477E+03  0.24757926960E+03  0.16588895344E+03 0.  0.
         24    2    3    3    0    0 -0.65430789125E+02 -0.63409864466E+02 -0.10053600038E+03  0.15719676426E+03  0.79380956434E+02 0.  0.
         -6    2    1    2    0  503  0.11049819599E+03  0.39873356658E+00 -0.28924949057E+03  0.36142014752E+03  0.18641149357E+03 0.  0.
        -24    2    5    5    0    0  0.15201128020E+02 -0.27062807074E+02 -0.22954817776E+03  0.24556677412E+03  0.81530391990E+02 0.  0.
          4    1    4    4  501    0 -0.50635290503E+02 -0.70101217190E+02 -0.41406517689E+02  0.95878115350E+02  0.00000000000E+00 0. -1.
         -3    1    4    4    0  501 -0.14795498622E+02  0.66913527242E+01 -0.59129482696E+02  0.61318648914E+02  0.00000000000E+00 0.  1.
          5    1    3    3  502    0 -0.45067406863E+02  0.63011130899E+02 -0.46318824388E+02  0.90382505339E+02  0.47000000000E+01 0. -1.
         11    1    6    6    0    0  0.28047839044E+02 -0.50501763645E+02 -0.12577881507E+03  0.13841033099E+03  0.00000000000E+00 0. -1.
        -12    1    6    6    0    0 -0.12846711024E+02  0.23438956570E+02 -0.10376936269E+03  0.10715644312E+03  0.00000000000E+00 0.  1.
         -5    1    5    5    0  503  0.95297067969E+02  0.27461540641E+02 -0.59701312809E+02  0.11585337340E+03  0.47000000000E+01 0.  1.
<mgrwt>
<rscale>  2 0.21221893E+03</rscale>
<asrwt>0</asrwt>
<pdfrwt beam="1">  1       21 0.13299623E-01 0.21670084E+03</pdfrwt>
<pdfrwt beam="2">  1       21 0.80392596E-01 0.21670084E+03</pdfrwt>
<totfact> 0.65632750E+04</totfact>
</mgrwt>
</event>
<event>
12    1  0.2769346E-001  0.3598278E+03  0.7546771E-02  0.1058689E+00
         21   -1    0    0  504  503  0.00000000000E+00  0.00000000000E+00  0.15387597083E+03  0.15387597083E+03  0.00000000000E+00 0. -1.
         21   -1    0    0  502  504 -0.00000000000E+00 -0.00000000000E+00 -0.84239925159E+03  0.84239925159E+03  0.00000000000E+00 0.  1.
          6    2    1    2  502    0  0.12071635976E+03 -0.29185943025E+03 -0.36740595303E+03  0.51399693177E+03  0.17161394178E+03 0.  0.
         24    2    3    3    0    0  0.86097082027E+02 -0.28351301370E+03 -0.26559719212E+03  0.40603735203E+03  0.80821570844E+02 0.  0.
         -6    2    1    2    0  503 -0.12071635976E+03  0.29185943025E+03 -0.32111732773E+03  0.48227829064E+03  0.17239966624E+03 0.  0.
        -24    2    5    5    0    0 -0.14875094498E+03  0.19882417696E+03 -0.21199138745E+03  0.33608644010E+03  0.79723584293E+02 0.  0.
          2    1    4    4  501    0  0.73547786964E+02 -0.25726542749E+03 -0.19930604614E+03  0.33364303855E+03  0.00000000000E+00 0. -1.
         -1    1    4    4    0  501  0.12549295063E+02 -0.26247586210E+02 -0.66291145983E+02  0.72394313480E+02  0.00000000000E+00 0.  1.
          5    1    3    3  502    0  0.34619277734E+02 -0.83464165499E+01 -0.10180876091E+03  0.10795957974E+03  0.47000000000E+01 0.  1.
         11    1    6    6    0    0 -0.10282058880E+03  0.76261505860E+02 -0.84628087541E+02  0.15345945379E+03  0.00000000000E+00 0. -1.
        -12    1    6    6    0    0 -0.45930356180E+02  0.12256267110E+03 -0.12736329990E+03  0.18262698631E+03  0.00000000000E+00 0.  1.
         -5    1    5    5    0  503  0.28034585217E+02  0.93035253286E+02 -0.10912594028E+03  0.14619185054E+03  0.47000000000E+01 0.  1.
<mgrwt>
<rscale>  2 0.35973377E+03</rscale>
<asrwt>0</asrwt>
<pdfrwt beam="1">  1       21 0.23673225E-01 0.35982775E+03</pdfrwt>
<pdfrwt beam="2">  1       21 0.12959989E+00 0.35982775E+03</pdfrwt>
<totfact> 0.66528153E+03</totfact>
</mgrwt>
</event>
<event>
12    1  0.2769346E-001  0.1850635E+03  0.7546771E-02  0.1162993E+00
         21   -1    0    0  504  503  0.00000000000E+00  0.00000000000E+00  0.55515118948E+02  0.55515118948E+02  0.00000000000E+00 0.  1.
         21   -1    0    0  502  504 -0.00000000000E+00 -0.00000000000E+00 -0.23580538263E+04  0.23580538263E+04  0.00000000000E+00 0.  1.
          6    2    1    2  502    0 -0.65422151543E+01  0.64155312700E+02 -0.21882603372E+04  0.21960719066E+04  0.17346414815E+03 0.  0.
         24    2    3    3    0    0  0.77853787868E+01  0.36514012965E+02 -0.21031811684E+04  0.21053532406E+04  0.88019061038E+02 0.  0.
         -6    2    1    2    0  503  0.65422151543E+01 -0.64155312700E+02 -0.11427837015E+03  0.21749703869E+03  0.17345521389E+03 0.  0.
        -24    2    5    5    0    0  0.32024266994E+02 -0.19227507471E+02  0.13464974578E+02  0.79626466152E+02  0.69020416192E+02 0.  0.
          2    1    4    4  501    0  0.30014511423E+02  0.99371124951E+01 -0.17869455546E+04  0.17872252326E+04  0.00000000000E+00 0. -1.
         -1    1    4    4    0  501 -0.22229132636E+02  0.26576900469E+02 -0.31623561385E+03  0.31812800795E+03  0.00000000000E+00 0.  1.
          5    1    3    3  502    0 -0.14327593941E+02  0.27641299736E+02 -0.85079168776E+02  0.90718665989E+02  0.47000000000E+01 0. -1.
         13    1    6    6    0    0  0.37041896630E+02  0.17300466734E+02  0.16780643714E+01  0.40917284309E+02  0.00000000000E+00 0. -1.
        -14    1    6    6    0    0 -0.50176296359E+01 -0.36527974206E+02  0.11786910207E+02  0.38709181843E+02  0.00000000000E+00 0.  1.
         -5    1    5    5    0  503 -0.25482051840E+02 -0.44927805229E+02 -0.12774334473E+03  0.13787057254E+03  0.47000000000E+01 0.  1.
<mgrwt>
<rscale>  2 0.18506145E+03</rscale>
<asrwt>0</asrwt>
<pdfrwt beam="1">  1       21 0.85407868E-02 0.18506354E+03</pdfrwt>
<pdfrwt beam="2">  1       21 0.36277754E+00 0.18506354E+03</pdfrwt>
<totfact> 0.15898833E+03</totfact>
</mgrwt>
</event>
<event>
12    1  0.2769346E-001  0.1757696E+03  0.7546771E-02  0.1172046E+00
         21   -1    0    0  504  503  0.00000000000E+00  0.00000000000E+00  0.12749304325E+04  0.12749304325E+04  0.00000000000E+00 0.  1.
         21   -1    0    0  502  504 -0.00000000000E+00 -0.00000000000E+00 -0.38724860704E+02  0.38724860704E+02  0.00000000000E+00 0.  1.
          6    2    1    2  502    0 -0.18053439586E+02  0.30118040899E+02  0.21526291747E+03  0.27769251971E+03  0.17187783103E+03 0.  0.
         24    2    3    3    0    0 -0.71361005547E+02  0.29026530810E+02  0.18606966131E+03  0.21672347685E+03  0.80076300818E+02 0.  0.
         -6    2    1    2    0  503  0.18053439586E+02 -0.30118040899E+02  0.10209426543E+04  0.10359627735E+04  0.17222642528E+03 0.  0.
        -24    2    5    5    0    0  0.19011705915E+02  0.47008710568E+02  0.66344338795E+03  0.67020702230E+03  0.80306038992E+02 0.  0.
          2    1    4    4  501    0 -0.63679955620E+02 -0.37441012929E+01  0.16527781903E+03  0.17716069684E+03  0.00000000000E+00 0. -1.
         -1    1    4    4    0  501 -0.76810499269E+01  0.32770632103E+02  0.20791842285E+02  0.39562780008E+02  0.00000000000E+00 0.  1.
          5    1    3    3  502    0  0.53307565961E+02  0.10915100892E+01  0.29193256158E+02  0.60969042867E+02  0.47000000000E+01 0. -1.
         11    1    6    6    0    0 -0.88683575130E+01  0.38786667805E+02  0.12953128854E+03  0.13550427327E+03  0.00000000000E+00 0. -1.
        -12    1    6    6    0    0  0.27880063428E+02  0.82220427633E+01  0.53391209941E+03  0.53470274903E+03  0.00000000000E+00 0.  1.
         -5    1    5    5    0  503 -0.95826632907E+00 -0.77126751467E+02  0.35749926634E+03  0.36575575115E+03  0.47000000000E+01 0.  1.
<mgrwt>
<rscale>  2 0.17568418E+03</rscale>
<asrwt>0</asrwt>
<pdfrwt beam="1">  1       21 0.19614311E+00 0.17576964E+03</pdfrwt>
<pdfrwt beam="2">  1       21 0.59576719E-02 0.17576964E+03</pdfrwt>
<totfact> 0.28727904E+04</totfact>
</mgrwt>
</event>
<event>
12    1  0.2769346E-001  0.2067645E+03  0.7546771E-02  0.1144239E+00
         21   -1    0    0  504  503  0.00000000000E+00  0.00000000000E+00  0.19553635995E+03  0.19553635995E+03  0.00000000000E+00 0. -1.
         21   -1    0    0  502  504 -0.00000000000E+00 -0.00000000000E+00 -0.38420041882E+03  0.38420041882E+03  0.00000000000E+00 0. -1.
          6    2    1    2  502    0 -0.10190045162E+02 -0.11365137331E+03 -0.28481614293E+03  0.35170875679E+03  0.17192539852E+03 0.  0.
         24    2    3    3    0    0 -0.59459329044E+02 -0.67016720590E+02 -0.10517046520E+03  0.15962306577E+03  0.79950257831E+02 0.  0.
         -6    2    1    2    0  503  0.10190045162E+02  0.11365137331E+03  0.96152084058E+02  0.22802802198E+03  0.17242703925E+03 0.  0.
        -24    2    5    5    0    0  0.43009021506E+02  0.82499050726E+02  0.12199157619E+01  0.12275808806E+03  0.80076155553E+02 0.  0.
          2    1    4    4  501    0 -0.69326598770E+02 -0.77040962796E+02 -0.80528017868E+02  0.13124880536E+03  0.00000000000E+00 0. -1.
         -1    1    4    4    0  501  0.98672697262E+01  0.10024242206E+02 -0.24642447333E+02  0.28374260417E+02  0.00000000000E+00 0.  1.
          5    1    3    3  502    0  0.49269283882E+02 -0.46634652717E+02 -0.17964567773E+03  0.19208569102E+03  0.47000000000E+01 0. -1.
         13    1    6    6    0    0 -0.13479089164E+02  0.60300983807E+02  0.46820768337E+01  0.61966251591E+02  0.00000000000E+00 0. -1.
        -14    1    6    6    0    0  0.56488110670E+02  0.22198066918E+02 -0.34621610717E+01  0.60791836469E+02  0.00000000000E+00 0.  1.
         -5    1    5    5    0  503 -0.32818976344E+02  0.31152322581E+02  0.94932168296E+02  0.10526993392E+03  0.47000000000E+01 0.  1.
<mgrwt>
<rscale>  2 0.20665988E+03</rscale>
<asrwt>0</asrwt>
<pdfrwt beam="1">  1       21 0.30082517E-01 0.20676449E+03</pdfrwt>
<pdfrwt beam="2">  1       21 0.59107757E-01 0.20676449E+03</pdfrwt>
<totfact> 0.28139381E+04</totfact>
</mgrwt>
</event>
<event>
12    1  0.2769346E-001  0.1881301E+03  0.7546771E-02  0.1160355E+00
         21   -1    0    0  504  503  0.00000000000E+00  0.00000000000E+00  0.40654809751E+02  0.40654809751E+02  0.00000000000E+00 0. -1.
         21   -1    0    0  502  504 -0.00000000000E+00 -0.00000000000E+00 -0.11032632421E+04  0.11032632421E+04  0.00000000000E+00 0. -1.
          6    2    1    2  502    0 -0.69649110207E+02 -0.87693330566E+01 -0.79525276645E+03  0.81700524790E+03  0.17361656832E+03 0.  0.
         24    2    3    3    0    0  0.17041197893E+02  0.32843900406E+02 -0.44683360010E+03  0.45552927886E+03  0.80483125538E+02 0.  0.
         -6    2    1    2    0  503  0.69649110207E+02  0.87693330566E+01 -0.26735566592E+03  0.32691280397E+03  0.17454234313E+03 0.  0.
        -24    2    5    5    0    0 -0.75750979476E+00  0.57233090033E+02 -0.10705210266E+03  0.14518457206E+03  0.79637973757E+02 0.  0.
          4    1    4    4  501    0  0.30345846970E+02  0.21386904809E+02 -0.42864181224E+03  0.43024652622E+03  0.00000000000E+00 0. -1.
         -3    1    4    4    0  501 -0.13304649077E+02  0.11456995597E+02 -0.18191787861E+02  0.25282752634E+02  0.00000000000E+00 0.  1.
          5    1    3    3  502    0 -0.86690308100E+02 -0.41613233463E+02 -0.34841916635E+03  0.36147596905E+03  0.47000000000E+01 0. -1.
         13    1    6    6    0    0 -0.39242760202E+02  0.39346508219E+02 -0.58096033854E+02  0.80394596130E+02  0.00000000000E+00 0. -1.
        -14    1    6    6    0    0  0.38485250407E+02  0.17886581814E+02 -0.48956068803E+02  0.64789975926E+02  0.00000000000E+00 0.  1.
         -5    1    5    5    0  503  0.70406620002E+02 -0.48463756976E+02 -0.16030356326E+03  0.18172823191E+03  0.47000000000E+01 0.  1.
<mgrwt>
<rscale>  2 0.18791507E+03</rscale>
<asrwt>0</asrwt>
<pdfrwt beam="1">  1       21 0.62545869E-02 0.18813009E+03</pdfrwt>
<pdfrwt beam="2">  1       21 0.16973279E+00 0.18813009E+03</pdfrwt>
<totfact> 0.39462204E+04</totfact>
</mgrwt>
</event>
<event>
12    1  0.2769346E-001  0.1750619E+03  0.7546771E-02  0.1173657E+00
         21   -1    0    0  504  503  0.00000000000E+00  0.00000000000E+00  0.12618959126E+03  0.12618959126E+03  0.00000000000E+00 0. -1.
         21   -1    0    0  502  504 -0.00000000000E+00 -0.00000000000E+00 -0.26260605946E+03  0.26260605946E+03  0.00000000000E+00 0. -1.
          6    2    1    2  502    0 -0.33532968646E+01  0.20781638585E+02 -0.12900790968E+03  0.21746198182E+03  0.17379169046E+03 0.  0.
         24    2    3    3    0    0 -0.14124106967E+02 -0.13883894500E+02  0.93238384419E+00  0.82464650675E+02  0.80045589180E+02 0.  0.
         -6    2    1    2    0  503  0.33532968646E+01 -0.20781638585E+02 -0.74085585162E+01  0.17133366890E+03  0.16987412474E+03 0.  0.
        -24    2    5    5    0    0  0.86591441275E+01 -0.67847551632E+02  0.31782237447E+02  0.10967849333E+03  0.79630334941E+02 0.  0.
          2    1    4    4  501    0 -0.17468711102E+00  0.31286841375E+02 -0.11907181939E+02  0.33476528203E+02  0.00000000000E+00 0. -1.
         -1    1    4    4    0  501 -0.13949419856E+02 -0.45170735875E+02  0.12839565783E+02  0.48988122472E+02  0.00000000000E+00 0.  1.
          5    1    3    3  502    0  0.10770810103E+02  0.34665533085E+02 -0.12994029352E+03  0.13499733114E+03  0.47000000000E+01 0. -1.
         13    1    6    6    0    0  0.36194648440E+02 -0.95798006284E+01  0.24676798844E+02  0.44841605200E+02  0.00000000000E+00 0. -1.
        -14    1    6    6    0    0 -0.27535504312E+02 -0.58267751004E+02  0.71054386030E+01  0.64836888131E+02  0.00000000000E+00 0.  1.
         -5    1    5    5    0  503 -0.53058472629E+01  0.47065913047E+02 -0.39190795963E+02  0.61655175568E+02  0.47000000000E+01 0.  1.
<mgrwt>
<rscale>  2 0.17408158E+03</rscale>
<asrwt>0</asrwt>
<pdfrwt beam="1">  1       21 0.19413783E-01 0.17506191E+03</pdfrwt>
<pdfrwt beam="2">  1       21 0.40400932E-01 0.17506191E+03</pdfrwt>
<totfact> 0.14487924E+05</totfact>
</mgrwt>
</event>
<event>
12    1  0.2769346E-001  0.2379431E+03  0.7546771E-02  0.1121830E+00
         21   -1    0    0  504  503  0.00000000000E+00  0.00000000000E+00  0.77580867137E+03  0.77580867137E+03  0.00000000000E+00 0. -1.
         21   -1    0    0  502  504 -0.00000000000E+00 -0.00000000000E+00 -0.11102386732E+03  0.11102386732E+03  0.00000000000E+00 0.  1.
          6    2    1    2  502    0 -0.15601487791E+03  0.26055030757E+02  0.67046342527E+02  0.24347557650E+03  0.17252720815E+03 0.  0.
         24    2    3    3    0    0 -0.10483812004E+02  0.54359408019E+01  0.51465511345E+01  0.83919592007E+02  0.82924973123E+02 0.  0.
         -6    2    1    2    0  503  0.15601487791E+03 -0.26055030757E+02  0.59773846152E+03  0.64335696219E+03  0.17775659105E+03 0.  0.
        -24    2    5    5    0    0  0.61051998310E+02 -0.70007963343E+02  0.41785734558E+03  0.43520049543E+03  0.78525464235E+02 0.  0.
          2    1    4    4  501    0  0.20536198725E+02  0.32127312843E+01  0.35066533382E+02  0.40764186044E+02  0.00000000000E+00 0. -1.
         -1    1    4    4    0  501 -0.31020010729E+02  0.22232095175E+01 -0.29919982247E+02  0.43155405963E+02  0.00000000000E+00 0.  1.
          5    1    3    3  502    0 -0.14553106591E+03  0.20619089956E+02  0.61899791392E+02  0.15955598450E+03  0.47000000000E+01 0. -1.
         11    1    6    6    0    0  0.34853591185E+02 -0.44097317348E+01  0.25867414049E+03  0.26104890252E+03  0.00000000000E+00 0. -1.
        -12    1    6    6    0    0  0.26198407125E+02 -0.65598231609E+02  0.15918320510E+03  0.17415159291E+03  0.00000000000E+00 0.  1.
         -5    1    5    5    0  503  0.94962879601E+02  0.43952932586E+02  0.17988111594E+03  0.20815646677E+03  0.47000000000E+01 0.  1.
<mgrwt>
<rscale>  2 0.23696689E+03</rscale>
<asrwt>0</asrwt>
<pdfrwt beam="1">  1       21 0.11935518E+00 0.23794309E+03</pdfrwt>
<pdfrwt beam="2">  1       21 0.17080595E-01 0.23794309E+03</pdfrwt>
<totfact> 0.16094900E+04</totfact>
</mgrwt>
</event>
<event>
12    1  0.2769346E-001  0.2990207E+03  0.7546771E-02  0.1085885E+00
         21   -1    0    0  504  503  0.00000000000E+00  0.00000000000E+00  0.20633786811E+03  0.20633786811E+03  0.00000000000E+00 0.  1.
         21   -1    0    0  502  504 -0.00000000000E+00 -0.00000000000E+00 -0.44328220668E+03  0.44328220668E+03  0.00000000000E+00 0.  1.
          6    2    1    2  502    0  0.67292572425E+02 -0.23500444973E+03 -0.17104040106E+03  0.34342288734E+03  0.17008550515E+03 0.  0.
         24    2    3    3    0    0  0.78531766551E+02 -0.21990321160E+03 -0.19361782168E+03  0.31365382958E+03  0.79788489825E+02 0.  0.
         -6    2    1    2    0  503 -0.67292572425E+02  0.23500444973E+03 -0.65903937516E+02  0.30619718746E+03  0.17221500205E+03 0.  0.
        -24    2    5    5    0    0 -0.25648984159E+02  0.29717863672E+02 -0.27997445162E+02  0.93275222832E+02  0.79846029639E+02 0.  0.
          2    1    4    4  501    0  0.38274169122E+02 -0.53083357235E+02 -0.96118149374E+02  0.11628178480E+03  0.00000000000E+00 0. -1.
         -1    1    4    4    0  501  0.40257597429E+02 -0.16681985436E+03 -0.97499672311E+02  0.19737204478E+03  0.00000000000E+00 0.  1.
          5    1    3    3  502    0 -0.11239194126E+02 -0.15101238129E+02  0.22577420630E+02  0.29769057760E+02  0.47000000000E+01 0. -1.
         11    1    6    6    0    0 -0.39204465169E+02  0.37171211154E+02  0.75099541666E+01  0.54544371290E+02  0.00000000000E+00 0. -1.
        -12    1    6    6    0    0  0.13555481009E+02 -0.74533474825E+01 -0.35507399329E+02  0.38730851542E+02  0.00000000000E+00 0.  1.
         -5    1    5    5    0  503 -0.41643588266E+02  0.20528658605E+03 -0.37906492354E+02  0.21292196462E+03  0.47000000000E+01 0.  1.
<mgrwt>
<rscale>  2 0.29871491E+03</rscale>
<asrwt>0</asrwt>
<pdfrwt beam="1">  1       21 0.31744287E-01 0.29902072E+03</pdfrwt>
<pdfrwt beam="2">  1       21 0.68197263E-01 0.29902072E+03</pdfrwt>
<totfact> 0.17737991E+04</totfact>
</mgrwt>
</event>
<event>
12    1  0.2769346E-001  0.2827583E+03  0.7546771E-02  0.1094342E+00
         21   -1    0    0  504  503  0.00000000000E+00  0.00000000000E+00  0.42957761810E+03  0.42957761810E+03  0.00000000000E+00 0.  1.
         21   -1    0    0  502  504 -0.00000000000E+00 -0.00000000000E+00 -0.33410849164E+03  0.33410849164E+03  0.00000000000E+00 0. -1.
          6    2    1    2  502    0 -0.20024583835E+03  0.99829906193E+02 -0.20707442249E+03  0.34957877722E+03  0.17105875916E+03 0.  0.
         24    2    3    3    0    0 -0.57487783388E+02  0.32097985165E+02 -0.14633012012E+03  0.18022873839E+03  0.82065633460E+02 0.  0.
         -6    2    1    2    0  503  0.20024583835E+03 -0.99829906193E+02  0.30254354895E+03  0.41410733252E+03  0.17288110912E+03 0.  0.
        -24    2    5    5    0    0  0.14672715142E+03 -0.24253675280E+01  0.14601618355E+03  0.22207920927E+03  0.80397201177E+02 0.  0.
          2    1    4    4  501    0 -0.30107189870E+02  0.59367161297E+02 -0.93447428411E+02  0.11473153271E+03  0.00000000000E+00 0. -1.
         -1    1    4    4    0  501 -0.27380593518E+02 -0.27269176132E+02 -0.52882691712E+02  0.65497205674E+02  0.00000000000E+00 0.  1.
          5    1    3    3  502    0 -0.14275805496E+03  0.67731921027E+02 -0.60744302371E+02  0.16935003883E+03  0.47000000000E+01 0. -1.
         11    1    6    6    0    0  0.12857369499E+03 -0.85029823479E+01  0.76229740998E+02  0.14971462575E+03  0.00000000000E+00 0. -1.
        -12    1    6    6    0    0  0.18153456430E+02  0.60776148199E+01  0.69786442556E+02  0.72364583512E+02  0.00000000000E+00 0.  1.
         -5    1    5    5    0  503  0.53518686927E+02 -0.97404538664E+02  0.15652736539E+03  0.19202812325E+03  0.47000000000E+01 0.  1.
<mgrwt>
<rscale>  2 0.28248031E+03</rscale>
<asrwt>0</asrwt>
<pdfrwt beam="1">  1       21 0.66088865E-01 0.28275835E+03</pdfrwt>
<pdfrwt beam="2">  1       21 0.51401306E-01 0.28275835E+03</pdfrwt>
<totfact> 0.71507029E+03</totfact>
</mgrwt>
</event>
<event>
12    1  0.2769346E-001  0.1805011E+03  0.7546771E-02  0.1167453E+00
         21   -1    0    0  504  503  0.00000000000E+00  0.00000000000E+00  0.24465237981E+03  0.24465237981E+03  0.00000000000E+00 0.  1.
         21   -1    0    0  502  504 -0.00000000000E+00 -0.00000000000E+00 -0.17042930634E+03  0.17042930634E+03  0.00000000000E+00 0. -1.
          6    2    1    2  502    0  0.43312828241E+02  0.33135375009E+02 -0.60414074566E+02  0.19034309374E+03  0.17206591401E+03 0.  0.
         24    2    3    3    0    0  0.57701911824E+02  0.17052595004E+02 -0.10221206708E+03  0.14306874851E+03  0.80006615460E+02 0.  0.
         -6    2    1    2    0  503 -0.43312828241E+02 -0.33135375009E+02  0.13463714804E+03  0.22473859241E+03  0.17148270793E+03 0.  0.
        -24    2    5    5    0    0  0.16441666019E+02 -0.49412759149E+02  0.23967939065E+02  0.97831868261E+02  0.79275867679E+02 0.  0.
          4    1    4    4  501    0  0.66526555547E+02  0.24881830448E+02 -0.10851500406E+03  0.12969346238E+03  0.00000000000E+00 0. -1.
         -3    1    4    4    0  501 -0.88246437232E+01 -0.78292354441E+01  0.63029369712E+01  0.13375286126E+02  0.00000000000E+00 0.  1.
          5    1    3    3  502    0 -0.14389083582E+02  0.16082780005E+02  0.41797992519E+02  0.47274345237E+02  0.47000000000E+01 0. -1.
         13    1    6    6    0    0  0.39304544852E+01  0.17488086727E+02 -0.11287228289E+02  0.21182142768E+02  0.00000000000E+00 0. -1.
        -14    1    6    6    0    0  0.12511211534E+02 -0.66900845876E+02  0.35255167353E+02  0.76649725492E+02  0.00000000000E+00 0.  1.
         -5    1    5    5    0  503 -0.59754494260E+02  0.16277384140E+02  0.11066920898E+03  0.12690672415E+03  0.47000000000E+01 0.  1.
<mgrwt>
<rscale>  2 0.18036193E+03</rscale>
<asrwt>0</asrwt>
<pdfrwt beam="1">  1       21 0.37638827E-01 0.18050106E+03</pdfrwt>
<pdfrwt beam="2">  1       21 0.26219893E-01 0.18050106E+03</pdfrwt>
<totfact> 0.94566790E+04</totfact>
</mgrwt>
</event>
<event>
12    1  0.2769346E-001  0.1841983E+03  0.7546771E-02  0.1165198E+00
         21   -1    0    0  504  503  0.00000000000E+00  0.00000000000E+00  0.44723856361E+03  0.44723856361E+03  0.00000000000E+00 0. -1.
         21   -1    0    0  502  504 -0.00000000000E+00 -0.00000000000E+00 -0.76635598175E+02  0.76635598175E+02  0.00000000000E+00 0. -1.
          6    2    1    2  502    0 -0.27078861786E+02 -0.56830664781E+02  0.13497070472E+03  0.22835519596E+03  0.17310694722E+03 0.  0.
         24    2    3    3    0    0 -0.13270281015E+02 -0.96789607425E+02  0.13463639362E+03  0.18581585224E+03  0.82802439528E+02 0.  0.
         -6    2    1    2    0  503  0.27078861786E+02  0.56830664781E+02  0.23563226072E+03  0.29551896582E+03  0.16687093113E+03 0.  0.
        -24    2    5    5    0    0  0.64954296946E+02 -0.42854689457E+01  0.16732671250E+03  0.19623418196E+03  0.79197219124E+02 0.  0.
          4    1    4    4  501    0  0.10173030556E+02 -0.10319018323E+03  0.10656590220E+03  0.14868757842E+03  0.00000000000E+00 0. -1.
         -3    1    4    4    0  501 -0.23443311571E+02  0.64005758012E+01  0.28070491420E+02  0.37128273816E+02  0.00000000000E+00 0.  1.
          5    1    3    3  502    0 -0.13808580771E+02  0.39958942644E+02  0.33431109247E+00  0.42539343719E+02  0.47000000000E+01 0. -1.
         11    1    6    6    0    0  0.62696309953E+01  0.32514136581E+02  0.49485127208E+02  0.59542045356E+02  0.00000000000E+00 0. -1.
        -12    1    6    6    0    0  0.58684665950E+02 -0.36799605527E+02  0.11784158529E+03  0.13669213660E+03  0.00000000000E+00 0.  1.
         -5    1    5    5    0  503 -0.37875435159E+02  0.61116133726E+02  0.68305548215E+02  0.99284783865E+02  0.47000000000E+01 0.  1.
<mgrwt>
<rscale>  2 0.18271859E+03</rscale>
<asrwt>0</asrwt>
<pdfrwt beam="1">  1       21 0.68805931E-01 0.18419827E+03</pdfrwt>
<pdfrwt beam="2">  1       21 0.11790092E-01 0.18419827E+03</pdfrwt>
<totfact> 0.11691054E+05</totfact>
</mgrwt>
</event>
<event>
12    1  0.2769346E-001  0.1773473E+03  0.7546771E-02  0.1170521E+00
         21   -1    0    0  504  503  0.00000000000E+00  0.00000000000E+00  0.29396905750E+03  0.29396905750E+03  0.00000000000E+00 0.  1.
         21   -1    0    0  502  504 -0.00000000000E+00 -0.00000000000E+00 -0.10980451721E+03  0.10980451721E+03  0.00000000000E+00 0.  1.
          6    2    1    2  502    0  0.33469943685E+02  0.17421724568E+02  0.58177856096E+02  0.18664594842E+03  0.17328673782E+03 0.  0.
         24    2    3    3    0    0 -0.33123959739E+02  0.37979062027E+01 -0.12457372177E+02  0.88504306528E+02  0.81032125433E+02 0.  0.
         -6    2    1    2    0  503 -0.33469943685E+02 -0.17421724568E+02  0.12598668420E+03  0.21712762628E+03  0.17276576016E+03 0.  0.
        -24    2    5    5    0    0 -0.76604217160E+02  0.18141828341E+02  0.48533861920E+02  0.12149101446E+03  0.78785778022E+02 0.  0.
          4    1    4    4  501    0 -0.33937653373E+02  0.39405805031E+02 -0.72595199185E+01  0.52509831613E+02  0.00000000000E+00 0. -1.
         -3    1    4    4    0  501  0.81369363338E+00 -0.35607898828E+02 -0.51978522583E+01  0.35994474915E+02  0.00000000000E+00 0.  1.
          5    1    3    3  502    0  0.66593903424E+02  0.13623818365E+02  0.70635228273E+02  0.98141641892E+02  0.47000000000E+01 0. -1.
         13    1    6    6    0    0 -0.85302313796E+02 -0.47602558776E+01  0.45528825861E+02  0.96809187370E+02  0.00000000000E+00 0. -1.
        -14    1    6    6    0    0  0.86980966360E+01  0.22902084218E+02  0.30050360596E+01  0.24681827087E+02  0.00000000000E+00 0.  1.
         -5    1    5    5    0  503  0.43134273475E+02 -0.35563552908E+02  0.77452822275E+02  0.95636611828E+02  0.47000000000E+01 0.  1.
<mgrwt>
<rscale>  2 0.17721986E+03</rscale>
<asrwt>0</asrwt>
<pdfrwt beam="1">  1       21 0.45226009E-01 0.17734725E+03</pdfrwt>
<pdfrwt beam="2">  1       21 0.16893003E-01 0.17734725E+03</pdfrwt>
<totfact> 0.14876855E+05</totfact>
</mgrwt>
</event>
<event>
12    1  0.2769346E-001  0.1950577E+03  0.7546771E-02  0.1158071E+00
         21   -1    0    0  504  503  0.00000000000E+00  0.00000000000E+00  0.20523827407E+03  0.20523827407E+03  0.00000000000E+00 0.  1.
         21   -1    0    0  502  504 -0.00000000000E+00 -0.00000000000E+00 -0.31790619989E+03  0.31790619989E+03  0.00000000000E+00 0.  1.
          6    2    1    2  502    0 -0.15783500274E+02 -0.36658894983E+02 -0.23392479011E+03  0.29346921344E+03  0.17265682247E+03 0.  0.
         24    2    3    3    0    0 -0.47392813554E+02 -0.18740925020E+02 -0.53232043058E+02  0.10909958153E+03  0.80447294761E+02 0.  0.
         -6    2    1    2    0  503  0.15783500274E+02  0.36658894983E+02  0.12125686430E+03  0.22967526052E+03  0.19093062797E+03 0.  0.
        -24    2    5    5    0    0  0.16543449815E+02 -0.40466624974E+02  0.43819905367E+01  0.89565484033E+02  0.78048322343E+02 0.  0.
          2    1    4    4  501    0  0.34340063836E+01 -0.29671482287E+02  0.58113482894E+01  0.30429607784E+02  0.00000000000E+00 0. -1.
         -1    1    4    4    0  501 -0.50826819938E+02  0.10930557267E+02 -0.59043391347E+02  0.78669973744E+02  0.00000000000E+00 0.  1.
          5    1    3    3  502    0  0.31609313280E+02 -0.17917969963E+02 -0.18069274705E+03  0.18436963191E+03  0.47000000000E+01 0. -1.
         11    1    6    6    0    0  0.19598021947E+02 -0.32074228649E+02  0.38792005501E+02  0.54015352433E+02  0.00000000000E+00 0. -1.
        -12    1    6    6    0    0 -0.30545721319E+01 -0.83923963254E+01 -0.34410014964E+02  0.35550131601E+02  0.00000000000E+00 0.  1.
         -5    1    5    5    0  503 -0.75994954087E+00  0.77125519958E+02  0.11687487376E+03  0.14010977649E+03  0.47000000000E+01 0.  1.
<mgrwt>
<rscale>  2 0.19043393E+03</rscale>
<asrwt>0</asrwt>
<pdfrwt beam="1">  1       21 0.31575119E-01 0.19505768E+03</pdfrwt>
<pdfrwt beam="2">  1       21 0.48908646E-01 0.19505768E+03</pdfrwt>
<totfact> 0.38420324E+04</totfact>
</mgrwt>
</event>
<event>
12    1  0.2769346E-001  0.1766273E+03  0.7546771E-02  0.1171586E+00
         21   -1    0    0  504  503  0.00000000000E+00  0.00000000000E+00  0.15298805671E+03  0.15298805671E+03  0.00000000000E+00 0. -1.
         21   -1    0    0  502  504 -0.00000000000E+00 -0.00000000000E+00 -0.20230013739E+03  0.20230013739E+03  0.00000000000E+00 0. -1.
          6    2    1    2  502    0 -0.23466014198E+01 -0.35127988586E+02 -0.34107627945E+02  0.17800766020E+03  0.17112543553E+03 0.  0.
         24    2    3    3    0    0  0.64231640986E+02 -0.31527559218E+02 -0.28955300315E+02  0.11096840354E+03  0.79723813716E+02 0.  0.
         -6    2    1    2    0  503  0.23466014198E+01  0.35127988586E+02 -0.15204452737E+02  0.17728053391E+03  0.17308301534E+03 0.  0.
        -24    2    5    5    0    0 -0.50190650958E+02 -0.21575909698E+01  0.29505010943E+02  0.98722253169E+02  0.79698061192E+02 0.  0.
          2    1    4    4  501    0  0.25069949456E+02 -0.44669318551E+02  0.12201772707E+02  0.52656753059E+02  0.00000000000E+00 0. -1.
         -1    1    4    4    0  501  0.39161691530E+02  0.13141759333E+02 -0.41157073022E+02  0.58311650479E+02  0.00000000000E+00 0.  1.
          5    1    3    3  502    0 -0.66578242406E+02 -0.36004293678E+01 -0.51523276305E+01  0.67039256660E+02  0.47000000000E+01 0. -1.
         11    1    6    6    0    0  0.14002736773E+02  0.21544241669E+02  0.99440183609E+01  0.27552032364E+02  0.00000000000E+00 0. -1.
        -12    1    6    6    0    0 -0.64193387730E+02 -0.23701832638E+02  0.19560992582E+02  0.71170220806E+02  0.00000000000E+00 0.  1.
         -5    1    5    5    0  503  0.52537252378E+02  0.37285579555E+02 -0.44709463680E+02  0.78558280739E+02  0.47000000000E+01 0.  1.
<mgrwt>
<rscale>  2 0.17614590E+03</rscale>
<asrwt>0</asrwt>
<pdfrwt beam="1">  1       21 0.23536624E-01 0.17662733E+03</pdfrwt>
<pdfrwt beam="2">  1       21 0.31123098E-01 0.17662733E+03</pdfrwt>
<totfact> 0.16933075E+05</totfact>
</mgrwt>
</event>
<event>
12    1  0.2769346E-001  0.1990934E+03  0.7546771E-02  0.1152739E+00
         21   -1    0    0  504  503  0.00000000000E+00  0.00000000000E+00  0.90022489169E+03  0.90022489169E+03  0.00000000000E+00 0.  1.
         21   -1    0    0  502  504 -0.00000000000E+00 -0.00000000000E+00 -0.44972323107E+02  0.44972323107E+02  0.00000000000E+00 0.  1.
          6    2    1    2  502    0  0.58332726972E+02 -0.48827450131E+02  0.31259371860E+03  0.37061165011E+03  0.18398732393E+03 0.  0.
         24    2    3    3    0    0  0.88045330238E+02 -0.30330038153E+02  0.31122295047E+03  0.33527099295E+03  0.82915755002E+02 0.  0.
         -6    2    1    2    0  503 -0.58332726972E+02  0.48827450131E+02  0.54265884999E+03  0.57458556469E+03  0.17286733862E+03 0.  0.
        -24    2    5    5    0    0 -0.50827040854E+02 -0.19358382691E+02  0.17909422488E+03  0.20457614623E+03  0.82574349275E+02 0.  0.
          2    1    4    4  501    0  0.55120123426E+02 -0.21950377591E+02  0.28816806815E+03  0.29421230869E+03  0.00000000000E+00 0. -1.
         -1    1    4    4    0  501  0.32925206812E+02 -0.83796605615E+01  0.23054882313E+02  0.41058684260E+02  0.00000000000E+00 0.  1.
          5    1    3    3  502    0 -0.29712603266E+02 -0.18497411978E+02  0.13707681292E+01  0.35340657153E+02  0.47000000000E+01 0. -1.
         11    1    6    6    0    0 -0.25319042591E+02  0.26360040087E+02  0.32484324978E+02  0.48899253577E+02  0.00000000000E+00 0. -1.
        -12    1    6    6    0    0 -0.25507998262E+02 -0.45718422777E+02  0.14660989990E+03  0.15567689265E+03  0.00000000000E+00 0.  1.
         -5    1    5    5    0  503 -0.75056861183E+01  0.68185832821E+02  0.36356462511E+03  0.37000941847E+03  0.47000000000E+01 0.  1.
<mgrwt>
<rscale>  2 0.19648544E+03</rscale>
<asrwt>0</asrwt>
<pdfrwt beam="1">  1       21 0.13849612E+00 0.19909335E+03</pdfrwt>
<pdfrwt beam="2">  1       21 0.69188196E-02 0.19909335E+03</pdfrwt>
<totfact> 0.56592729E+04</totfact>
</mgrwt>
</event>
<event>
12    1  0.2769346E-001  0.2505776E+03  0.7546771E-02  0.1112942E+00
         21   -1    0    0  504  503  0.00000000000E+00  0.00000000000E+00  0.39519741590E+03  0.39519741590E+03  0.00000000000E+00 0. -1.
         21   -1    0    0  502  504 -0.00000000000E+00 -0.00000000000E+00 -0.36912645700E+03  0.36912645700E+03  0.00000000000E+00 0.  1.
          6    2    1    2  502    0  0.85066004886E+02 -0.16018332890E+03 -0.27538880270E+03  0.37231989818E+03  0.17288201146E+03 0.  0.
         24    2    3    3    0    0  0.30609471894E+02 -0.10709685363E+03 -0.68229126278E+02  0.15159176365E+03  0.76929664661E+02 0.  0.
         -6    2    1    2    0  503 -0.85066004886E+02  0.16018332890E+03  0.30145976160E+03  0.39200397472E+03  0.17289940513E+03 0.  0.
        -24    2    5    5    0    0 -0.88857957274E+02  0.41266554700E+02  0.11546697594E+03  0.17116243786E+03  0.79782783191E+02 0.  0.
          4    1    4    4  501    0 -0.56236604651E+01 -0.20617753223E+02  0.15087408509E+02  0.26160030591E+02  0.00000000000E+00 0. -1.
         -3    1    4    4    0  501  0.36233132359E+02 -0.86479100409E+02 -0.83316534787E+02  0.12543173305E+03  0.00000000000E+00 0.  1.
          5    1    3    3  502    0  0.54456532992E+02 -0.53086475263E+02 -0.20715967642E+03  0.22072813454E+03  0.47000000000E+01 0. -1.
         13    1    6    6    0    0 -0.39079733654E+02  0.25671735668E+02  0.10899211705E+03  0.11859825114E+03  0.00000000000E+00 0. -1.
        -14    1    6    6    0    0 -0.49778223620E+02  0.15594819033E+02  0.64748588849E+01  0.52564186715E+02  0.00000000000E+00 0.  1.
         -5    1    5    5    0  503  0.37919523871E+01  0.11891677419E+03  0.18599278566E+03  0.22084153687E+03  0.47000000000E+01 0.  1.
<mgrwt>
<rscale>  2 0.25057459E+03</rscale>
<asrwt>0</asrwt>
<pdfrwt beam="1">  1       21 0.60799602E-01 0.25057759E+03</pdfrwt>
<pdfrwt beam="2">  1       21 0.56788686E-01 0.25057759E+03</pdfrwt>
<totfact> 0.70643235E+03</totfact>
</mgrwt>
</event>
<event>
12    1  0.2769346E-001  0.2114221E+03  0.7546771E-02  0.1141314E+00
         21   -1    0    0  504  503  0.00000000000E+00  0.00000000000E+00  0.53886549862E+03  0.53886549862E+03  0.00000000000E+00 0. -1.
         21   -1    0    0  502  504 -0.00000000000E+00 -0.00000000000E+00 -0.15749187652E+03  0.15749187652E+03  0.00000000000E+00 0. -1.
          6    2    1    2  502    0  0.11544298816E+03  0.33394244906E+02 -0.52602357498E+02  0.21362096773E+03  0.16859611718E+03 0.  0.
         24    2    3    3    0    0  0.12710993827E+03  0.69753457608E+02 -0.57203417138E+02  0.17487345396E+03  0.79284378750E+02 0.  0.
         -6    2    1    2    0  503 -0.11544298816E+03 -0.33394244906E+02  0.43397597960E+03  0.48273640741E+03  0.17394547728E+03 0.  0.
        -24    2    5    5    0    0 -0.10870658239E+02 -0.50671797677E+02  0.11927856104E+03  0.15063636034E+03  0.76014048992E+02 0.  0.
          2    1    4    4  501    0  0.62892739670E+02  0.54090155367E+02  0.63254871765E+01  0.83194070695E+02  0.00000000000E+00 0. -1.
         -1    1    4    4    0  501  0.64217198598E+02  0.15663302241E+02 -0.63528904315E+02  0.91679383268E+02  0.00000000000E+00 0.  1.
          5    1    3    3  502    0 -0.11666950106E+02 -0.36359212702E+02  0.46010596403E+01  0.38747513764E+02  0.47000000000E+01 0. -1.
         11    1    6    6    0    0 -0.12859101304E+02 -0.69753456961E+02  0.79950299819E+02  0.10687820959E+03  0.00000000000E+00 0. -1.
        -12    1    6    6    0    0  0.19884430643E+01  0.19081659283E+02  0.39328261218E+02  0.43758150753E+02  0.00000000000E+00 0.  1.
         -5    1    5    5    0  503 -0.10457232992E+03  0.17277552771E+02  0.31469741856E+03  0.33210004707E+03  0.47000000000E+01 0.  1.
<mgrwt>
<rscale>  2 0.21031875E+03</rscale>
<asrwt>0</asrwt>
<pdfrwt beam="1">  1       21 0.82902383E-01 0.21142206E+03</pdfrwt>
<pdfrwt beam="2">  1       21 0.24229520E-01 0.21142206E+03</pdfrwt>
<totfact> 0.20167160E+04</totfact>
</mgrwt>
</event>
<event>
12    1  0.2769346E-001  0.2051587E+03  0.7546771E-02  0.1145552E+00
         21   -1    0    0  504  503  0.00000000000E+00  0.00000000000E+00  0.13421573488E+03  0.13421573488E+03  0.00000000000E+00 0.  1.
         21   -1    0    0  502  504 -0.00000000000E+00 -0.00000000000E+00 -0.36242171208E+03  0.36242171208E+03  0.00000000000E+00 0.  1.
          6    2    1    2  502    0  0.36443492578E+02  0.10300900527E+03 -0.22202896275E+02  0.20590158449E+03  0.17309971281E+03 0.  0.
         24    2    3    3    0    0  0.55706758569E+01  0.34455825340E+02  0.49665536196E+02  0.10178707600E+03  0.81705000010E+02 0.  0.
         -6    2    1    2    0  503 -0.36443492578E+02 -0.10300900527E+03 -0.20600308093E+03  0.29073586248E+03  0.17364068952E+03 0.  0.
        -24    2    5    5    0    0  0.27796262944E+02 -0.82797723920E+01 -0.11789762241E+03  0.14621930435E+03  0.81480357945E+02 0.  0.
          2    1    4    4  501    0  0.36008883304E+02  0.38895963704E+02  0.47120484021E+02  0.70921616477E+02  0.00000000000E+00 0. -1.
         -1    1    4    4    0  501 -0.30438207447E+02 -0.44401383644E+01  0.25450521745E+01  0.30865459528E+02  0.00000000000E+00 0.  1.
          5    1    3    3  502    0  0.30872816721E+02  0.68553179926E+02 -0.71868432471E+02  0.10411450848E+03  0.47000000000E+01 0. -1.
         11    1    6    6    0    0 -0.19100018467E+02  0.29100034945E+00 -0.58719709583E-01  0.19102325372E+02  0.00000000000E+00 0. -1.
        -12    1    6    6    0    0  0.46896281410E+02 -0.85707727415E+01 -0.11783890270E+03  0.12711697898E+03  0.00000000000E+00 0.  1.
         -5    1    5    5    0  503 -0.64239755522E+02 -0.94729232874E+02 -0.88105458527E+02  0.14451655813E+03  0.47000000000E+01 0.  1.
<mgrwt>
<rscale>  2 0.20504414E+03</rscale>
<asrwt>0</asrwt>
<pdfrwt beam="1">  1       21 0.20648575E-01 0.20515865E+03</pdfrwt>
<pdfrwt beam="2">  1       21 0.55757186E-01 0.20515865E+03</pdfrwt>
<totfact> 0.65516305E+04</totfact>
</mgrwt>
</event>
<event>
12    1  0.2769346E-001  0.2094972E+03  0.7546771E-02  0.1143244E+00
         21   -1    0    0  504  503  0.00000000000E+00  0.00000000000E+00  0.47673709917E+03  0.47673709917E+03  0.00000000000E+00 0.  1.
         21   -1    0    0  502  504 -0.00000000000E+00 -0.00000000000E+00 -0.25450197730E+03  0.25450197730E+03  0.00000000000E+00 0.  1.
          6    2    1    2  502    0  0.37007895471E+02  0.99141161502E+02 -0.18284535943E+03  0.27806746404E+03  0.18080524015E+03 0.  0.
         24    2    3    3    0    0  0.61908186459E+02  0.12107662728E+03 -0.95897897665E+02  0.18488409505E+03  0.80582557687E+02 0.  0.
         -6    2    1    2    0  503 -0.37007895471E+02 -0.99141161502E+02  0.40508048130E+03  0.45317161243E+03  0.17342364243E+03 0.  0.
        -24    2    5    5    0    0 -0.13098481953E+02 -0.32217392284E+02  0.78455360273E+02  0.11887158158E+03  0.82253746161E+02 0.  0.
          4    1    4    4  501    0  0.31557382622E+02  0.12120831522E+03 -0.63271464207E+02  0.14032320642E+03  0.00000000000E+00 0. -1.
         -3    1    4    4    0  501  0.30350803838E+02 -0.13168794917E+00 -0.32626433457E+02  0.44560888629E+02  0.00000000000E+00 0.  1.
          5    1    3    3  502    0 -0.24900290988E+02 -0.21935465773E+02 -0.86947461762E+02  0.93183368993E+02  0.47000000000E+01 0. -1.
         13    1    6    6    0    0 -0.31822628896E+02  0.16694975436E+02  0.40780431460E+02  0.54354811238E+02  0.00000000000E+00 0. -1.
        -14    1    6    6    0    0  0.18724146943E+02 -0.48912367720E+02  0.37674928814E+02  0.64516770346E+02  0.00000000000E+00 0.  1.
         -5    1    5    5    0  503 -0.23909413518E+02 -0.66923769218E+02  0.32662512102E+03  0.33430003085E+03  0.47000000000E+01 0.  1.
<mgrwt>
<rscale>  2 0.20789483E+03</rscale>
<asrwt>0</asrwt>
<pdfrwt beam="1">  1       21 0.73344169E-01 0.20949723E+03</pdfrwt>
<pdfrwt beam="2">  1       21 0.39154151E-01 0.20949723E+03</pdfrwt>
<totfact> 0.10389289E+04</totfact>
</mgrwt>
</event>
<event>
12    1  0.2769346E-001  0.2016257E+03  0.7546771E-02  0.1151244E+00
         21   -1    0    0  504  503  0.00000000000E+00  0.00000000000E+00  0.25213602489E+03  0.25213602489E+03  0.00000000000E+00 0.  1.
         21   -1    0    0  502  504 -0.00000000000E+00 -0.00000000000E+00 -0.21963082655E+03  0.21963082655E+03  0.00000000000E+00 0.  1.
          6    2    1    2  502    0 -0.73863749683E+02  0.44087195544E+01 -0.11536103715E+03  0.23229524683E+03  0.18755698463E+03 0.  0.
         24    2    3    3    0    0 -0.55011548069E+02 -0.25285644542E+02 -0.15131140310E+03  0.18178109458E+03  0.80520751347E+02 0.  0.
         -6    2    1    2    0  503  0.73863749683E+02 -0.44087195544E+01  0.14786623549E+03  0.23947160461E+03  0.17322510063E+03 0.  0.
        -24    2    5    5    0    0  0.70712398423E+02 -0.65720311535E+02  0.88861883187E+02  0.15419179506E+03  0.80989337203E+02 0.  0.
          2    1    4    4  501    0 -0.17747684381E+02 -0.23137145804E+02 -0.13967080215E+03  0.14268230721E+03  0.00000000000E+00 0. -1.
         -1    1    4    4    0  501 -0.37263863688E+02 -0.21484987387E+01 -0.11640600956E+02  0.39098787378E+02  0.00000000000E+00 0.  1.
          5    1    3    3  502    0 -0.18852201614E+02  0.29694364097E+02  0.35950365959E+02  0.50514152248E+02  0.47000000000E+01 0. -1.
         13    1    6    6    0    0 -0.14648767632E+02 -0.30149102401E+02  0.24696453446E+02  0.41634956245E+02  0.00000000000E+00 0. -1.
        -14    1    6    6    0    0  0.85361166055E+02 -0.35571209134E+02  0.64165429741E+02  0.11255683881E+03  0.00000000000E+00 0.  1.
         -5    1    5    5    0  503  0.31513512600E+01  0.61311591981E+02  0.59004352302E+02  0.85279809548E+02  0.47000000000E+01 0.  1.
<mgrwt>
<rscale>  2 0.19822605E+03</rscale>
<asrwt>0</asrwt>
<pdfrwt beam="1">  1       21 0.38790157E-01 0.20162567E+03</pdfrwt>
<pdfrwt beam="2">  1       21 0.33789358E-01 0.20162567E+03</pdfrwt>
<totfact> 0.53838396E+04</totfact>
</mgrwt>
</event>
<event>
12    1  0.2769346E-001  0.2025142E+03  0.7546771E-02  0.1148070E+00
         21   -1    0    0  504  503  0.00000000000E+00  0.00000000000E+00  0.34164349127E+03  0.34164349127E+03  0.00000000000E+00 0.  1.
         21   -1    0    0  502  504 -0.00000000000E+00 -0.00000000000E+00 -0.12163622357E+03  0.12163622357E+03  0.00000000000E+00 0.  1.
          6    2    1    2  502    0  0.41121302050E+02  0.96623934079E+02  0.74141393899E+02  0.21370240039E+03  0.17071796485E+03 0.  0.
         24    2    3    3    0    0  0.32595930227E+02  0.18608441112E+02  0.97218761387E+02  0.13176489983E+03  0.80633321363E+02 0.  0.
         -6    2    1    2    0  503 -0.41121302050E+02 -0.96623934079E+02  0.14586587380E+03  0.24957731446E+03  0.17316130235E+03 0.  0.
        -24    2    5    5    0    0 -0.83824602092E+02 -0.10369922074E+03  0.10348077746E+03  0.18881369123E+03  0.84630056093E+02 0.  0.
          4    1    4    4  501    0 -0.12101673065E+02  0.10441861487E+02  0.82453590348E+02  0.83988555908E+02  0.00000000000E+00 0. -1.
         -3    1    4    4    0  501  0.44697603292E+02  0.81665796257E+01  0.14765171039E+02  0.47776343923E+02  0.00000000000E+00 0.  1.
          5    1    3    3  502    0  0.85253718230E+01  0.78015492967E+02 -0.23077367488E+02  0.81937500558E+02  0.47000000000E+01 0. -1.
         11    1    6    6    0    0 -0.32606502830E+02 -0.12837142036E+02 -0.82120952554E+01  0.35991870623E+02  0.00000000000E+00 0. -1.
        -12    1    6    6    0    0 -0.51218099262E+02 -0.90862078701E+02  0.11169287271E+03  0.15282182060E+03  0.00000000000E+00 0.  1.
         -5    1    5    5    0  503  0.42703300041E+02  0.70752866576E+01  0.42385096344E+02  0.60763623228E+02  0.47000000000E+01 0.  1.
<mgrwt>
<rscale>  2 0.20199083E+03</rscale>
<asrwt>0</asrwt>
<pdfrwt beam="1">  1       21 0.52560537E-01 0.20251415E+03</pdfrwt>
<pdfrwt beam="2">  1       21 0.18713265E-01 0.20251415E+03</pdfrwt>
<totfact> 0.89300298E+04</totfact>
</mgrwt>
</event>
<event>
12    1  0.2769346E-001  0.1906475E+03  0.7546771E-02  0.1158017E+00
         21   -1    0    0  504  503  0.00000000000E+00  0.00000000000E+00  0.23263319163E+03  0.23263319163E+03  0.00000000000E+00 0.  1.
         21   -1    0    0  502  504 -0.00000000000E+00 -0.00000000000E+00 -0.22587000473E+03  0.22587000473E+03  0.00000000000E+00 0.  1.
          6    2    1    2  502    0  0.49483721416E+02 -0.63238846482E+02 -0.12436753936E+03  0.22711228501E+03  0.17223505673E+03 0.  0.
         24    2    3    3    0    0 -0.23010592323E+02 -0.15182868019E+02 -0.10906947933E+03  0.13867630121E+03  0.81086116911E+02 0.  0.
         -6    2    1    2    0  503 -0.49483721416E+02  0.63238846482E+02  0.13113072626E+03  0.23139091135E+03  0.17291239428E+03 0.  0.
        -24    2    5    5    0    0 -0.36437041172E+02  0.10209165925E+03  0.55701820786E+02  0.14541785332E+03  0.79330286567E+02 0.  0.
          2    1    4    4  501    0 -0.30098793961E+02  0.27252998452E+02 -0.67983256197E+02  0.79185771737E+02  0.00000000000E+00 0. -1.
         -1    1    4    4    0  501  0.70882016377E+01 -0.42435866471E+02 -0.41086223131E+02  0.59490529471E+02  0.00000000000E+00 0.  1.
          5    1    3    3  502    0  0.72494313739E+02 -0.48055978463E+02 -0.15298060031E+02  0.88435983803E+02  0.47000000000E+01 0. -1.
         13    1    6    6    0    0 -0.24058029283E+02  0.32749297201E+01 -0.98383568310E+01  0.26197465579E+02  0.00000000000E+00 0. -1.
        -14    1    6    6    0    0 -0.12379011889E+02  0.98816729531E+02  0.65540177617E+02  0.11922038774E+03  0.00000000000E+00 0.  1.
         -5    1    5    5    0  503 -0.13046680244E+02 -0.38852812769E+02  0.75428905479E+02  0.85973058031E+02  0.47000000000E+01 0.  1.
<mgrwt>
<rscale>  2 0.19049383E+03</rscale>
<asrwt>0</asrwt>
<pdfrwt beam="1">  1       21 0.35789722E-01 0.19064755E+03</pdfrwt>
<pdfrwt beam="2">  1       21 0.34749231E-01 0.19064755E+03</pdfrwt>
<totfact> 0.60147466E+04</totfact>
</mgrwt>
</event>
<event>
12    1  0.2769346E-001  0.1884820E+03  0.7546771E-02  0.1159969E+00
         21   -1    0    0  504  503  0.00000000000E+00  0.00000000000E+00  0.20658767819E+03  0.20658767819E+03  0.00000000000E+00 0. -1.
         21   -1    0    0  502  504 -0.00000000000E+00 -0.00000000000E+00 -0.25167166085E+03  0.25167166085E+03  0.00000000000E+00 0. -1.
          6    2    1    2  502    0 -0.72482450856E+02 -0.48110912224E+01 -0.15193642952E+03  0.24209531398E+03  0.17392127574E+03 0.  0.
         24    2    3    3    0    0 -0.20621800975E+02 -0.95191758930E+00 -0.19098610724E+01  0.83241666029E+02  0.80618624222E+02 0.  0.
         -6    2    1    2    0  503  0.72482450856E+02  0.48110912224E+01  0.10685244686E+03  0.21616402505E+03  0.17329912881E+03 0.  0.
        -24    2    5    5    0    0  0.13730221306E+02 -0.40166679311E+02  0.10939390802E+03  0.14197930059E+03  0.79932556448E+02 0.  0.
          2    1    4    4  501    0 -0.51202238652E+02 -0.14334522499E+01  0.62114487928E+01  0.51597539907E+02  0.00000000000E+00 0. -1.
         -1    1    4    4    0  501  0.30580437677E+02  0.48153466057E+00 -0.81213098651E+01  0.31644126123E+02  0.00000000000E+00 0.  1.
          5    1    3    3  502    0 -0.51860649881E+02 -0.38591736331E+01 -0.15002656845E+03  0.15885364795E+03  0.47000000000E+01 0. -1.
         13    1    6    6    0    0  0.35679107839E+02  0.88793652530E+01  0.43791746113E+02  0.57180056760E+02  0.00000000000E+00 0. -1.
        -14    1    6    6    0    0 -0.21948886532E+02 -0.49046044564E+02  0.65602161905E+02  0.84799243829E+02  0.00000000000E+00 0.  1.
         -5    1    5    5    0  503  0.58752229549E+02  0.44977770533E+02 -0.25414611622E+01  0.74184724465E+02  0.47000000000E+01 0.  1.
<mgrwt>
<rscale>  2 0.18833835E+03</rscale>
<asrwt>0</asrwt>
<pdfrwt beam="1">  1       21 0.31782720E-01 0.18848199E+03</pdfrwt>
<pdfrwt beam="2">  1       21 0.38718717E-01 0.18848199E+03</pdfrwt>
<totfact> 0.61337525E+04</totfact>
</mgrwt>
</event>
<event>
12    1  0.2769346E-001  0.2364078E+03  0.7546771E-02  0.1122469E+00
         21   -1    0    0  504  503  0.00000000000E+00  0.00000000000E+00  0.69597029387E+02  0.69597029387E+02  0.00000000000E+00 0. -1.
         21   -1    0    0  502  504 -0.00000000000E+00 -0.00000000000E+00 -0.11828654419E+04  0.11828654419E+04  0.00000000000E+00 0.  1.
          6    2    1    2  502    0 -0.15912177810E+03 -0.20379176892E+01 -0.91269197052E+03  0.94243093418E+03  0.17275861561E+03 0.  0.
         24    2    3    3    0    0 -0.18360898551E+03 -0.10242409787E+02 -0.86551483439E+03  0.88844288744E+03  0.79985431011E+02 0.  0.
         -6    2    1    2    0  503  0.15912177810E+03  0.20379176892E+01 -0.20057644194E+03  0.31003153706E+03  0.17482777679E+03 0.  0.
        -24    2    5    5    0    0  0.87279178698E+02  0.64380872087E+02 -0.86271118092E+02  0.16125048950E+03  0.82440662439E+02 0.  0.
          2    1    4    4  501    0 -0.86991678866E+02 -0.29504203882E+02 -0.27959571180E+03  0.29429884862E+03  0.00000000000E+00 0. -1.
         -1    1    4    4    0  501 -0.96617306640E+02  0.19261794094E+02 -0.58591912259E+03  0.59414403882E+03  0.00000000000E+00 0.  1.
          5    1    3    3  502    0  0.24487207407E+02  0.82044920982E+01 -0.47177136133E+02  0.53988046741E+02  0.47000000000E+01 0. -1.
         13    1    6    6    0    0  0.64717689009E+02  0.28417203222E+02 -0.66196887508E+01  0.70991104998E+02  0.00000000000E+00 0. -1.
        -14    1    6    6    0    0  0.22561489689E+02  0.35963668865E+02 -0.79651429341E+02  0.90259384506E+02  0.00000000000E+00 0.  1.
         -5    1    5    5    0  503  0.71842599400E+02 -0.62342954398E+02 -0.11430532385E+03  0.14878104756E+03  0.47000000000E+01 0.  1.
<mgrwt>
<rscale>  2 0.23602535E+03</rscale>
<asrwt>0</asrwt>
<pdfrwt beam="1">  1       21 0.10707237E-01 0.23640779E+03</pdfrwt>
<pdfrwt beam="2">  1       21 0.18197928E+00 0.23640779E+03</pdfrwt>
<totfact> 0.12285642E+04</totfact>
</mgrwt>
</event>
<event>
12    1  0.2769346E-001  0.2335613E+03  0.7546771E-02  0.1126454E+00
         21   -1    0    0  504  503  0.00000000000E+00  0.00000000000E+00  0.51345921743E+03  0.51345921743E+03  0.00000000000E+00 0. -1.
         21   -1    0    0  502  504 -0.00000000000E+00 -0.00000000000E+00 -0.12013200482E+03  0.12013200482E+03  0.00000000000E+00 0. -1.
          6    2    1    2  502    0 -0.12252939115E+03 -0.96953642055E+02  0.63799720511E+02  0.22968621670E+03  0.15579439464E+03 0.  0.
         24    2    3    3    0    0 -0.12599797646E+02 -0.63137076519E+02  0.17661460962E+02  0.10567450505E+03  0.81915373904E+02 0.  0.
         -6    2    1    2    0  503  0.12252939115E+03  0.96953642055E+02  0.32952749209E+03  0.40390500555E+03  0.17360133945E+03 0.  0.
        -24    2    5    5    0    0  0.40800923639E+02  0.55895407372E+02  0.28049482275E+03  0.30002231353E+03  0.80913726253E+02 0.  0.
          2    1    4    4  501    0 -0.38022170780E+02 -0.17821335497E+02 -0.14666168939E+02  0.44479006071E+02  0.00000000000E+00 0. -1.
         -1    1    4    4    0  501  0.25422373134E+02 -0.45315741022E+02  0.32327629901E+02  0.61195498977E+02  0.00000000000E+00 0.  1.
          5    1    3    3  502    0 -0.10992959350E+03 -0.33816565537E+02  0.46138259549E+02  0.12401171165E+03  0.47000000000E+01 0. -1.
         11    1    6    6    0    0  0.63631158377E+02  0.53907882770E+02  0.22651339275E+03  0.24137792202E+03  0.00000000000E+00 0. -1.
        -12    1    6    6    0    0 -0.22830234738E+02  0.19875246017E+01  0.53981429993E+02  0.58644391516E+02  0.00000000000E+00 0.  1.
         -5    1    5    5    0  503  0.81728467510E+02  0.41058234683E+02  0.49032669348E+02  0.10388269201E+03  0.47000000000E+01 0.  1.
<mgrwt>
<rscale>  2 0.23026369E+03</rscale>
<asrwt>0</asrwt>
<pdfrwt beam="1">  1       21 0.78993725E-01 0.23356131E+03</pdfrwt>
<pdfrwt beam="2">  1       21 0.18481847E-01 0.23356131E+03</pdfrwt>
<totfact> 0.37064288E+04</totfact>
</mgrwt>
</event>
<event>
12    1  0.2769346E-001  0.2549203E+03  0.7546771E-02  0.1110910E+00
         21   -1    0    0  504  503  0.00000000000E+00  0.00000000000E+00  0.61920746638E+02  0.61920746638E+02  0.00000000000E+00 0. -1.
         21   -1    0    0  502  504 -0.00000000000E+00 -0.00000000000E+00 -0.10943526349E+04  0.10943526349E+04  0.00000000000E+00 0.  1.
          6    2    1    2  502    0  0.30625232796E+02  0.17935696383E+03 -0.37367406047E+03  0.44991211916E+03  0.17228402753E+03 0.  0.
         24    2    3    3    0    0  0.30295001237E+02  0.51245165064E+02 -0.25908826042E+03  0.27796812360E+03  0.81213896660E+02 0.  0.
         -6    2    1    2    0  503 -0.30625232796E+02 -0.17935696383E+03 -0.65875782781E+03  0.70636126239E+03  0.17854280146E+03 0.  0.
        -24    2    5    5    0    0 -0.32345798959E+02 -0.90693316539E+02 -0.17973650006E+03  0.21917780092E+03  0.80387627070E+02 0.  0.
          4    1    4    4  501    0  0.48961284339E+02  0.43864193882E+01 -0.10744373988E+03  0.11815500531E+03  0.00000000000E+00 0. -1.
         -3    1    4    4    0  501 -0.18666283102E+02  0.46858745676E+02 -0.15164452053E+03  0.15981311829E+03  0.00000000000E+00 0.  1.
          5    1    3    3  502    0  0.33023155827E+00  0.12811179876E+03 -0.11458580005E+03  0.17194399556E+03  0.47000000000E+01 0. -1.
         13    1    6    6    0    0 -0.49109926471E+01  0.15141397884E+02 -0.26991273182E+02  0.31335420959E+02  0.00000000000E+00 0. -1.
        -14    1    6    6    0    0 -0.27434806311E+02 -0.10583471442E+03 -0.15274522688E+03  0.18784237996E+03  0.00000000000E+00 0.  1.
         -5    1    5    5    0  503  0.17205661629E+01 -0.88663647286E+02 -0.47902132774E+03  0.48718346147E+03  0.47000000000E+01 0.  1.
<mgrwt>
<rscale>  2 0.25382735E+03</rscale>
<asrwt>0</asrwt>
<pdfrwt beam="1">  1       21 0.95262686E-02 0.25492030E+03</pdfrwt>
<pdfrwt beam="2">  1       21 0.16836195E+00 0.25492030E+03</pdfrwt>
<totfact> 0.18617997E+04</totfact>
</mgrwt>
</event>
<event>
12    1  0.2769346E-001  0.2582840E+03  0.7546771E-02  0.1108347E+00
         21   -1    0    0  504  503  0.00000000000E+00  0.00000000000E+00  0.28238012884E+03  0.28238012884E+03  0.00000000000E+00 0.  1.
         21   -1    0    0  502  504 -0.00000000000E+00 -0.00000000000E+00 -0.35566698412E+03  0.35566698412E+03  0.00000000000E+00 0. -1.
          6    2    1    2  502    0 -0.13421241328E+03 -0.13690088413E+03 -0.22233620182E+03  0.34079909556E+03  0.17307747672E+03 0.  0.
         24    2    3    3    0    0 -0.37652157769E+02 -0.79263043555E+02 -0.19082986995E+03  0.22391991625E+03  0.77612979385E+02 0.  0.
         -6    2    1    2    0  503  0.13421241328E+03  0.13690088413E+03  0.14904934654E+03  0.29724801740E+03  0.17142302118E+03 0.  0.
        -24    2    5    5    0    0  0.15608382131E+03  0.11284618881E+03  0.84768903144E+02  0.22506039893E+03  0.79812246073E+02 0.  0.
          4    1    4    4  501    0 -0.23730946607E+02  0.37136172061E+01 -0.13286406262E+02  0.27449542273E+02  0.00000000000E+00 0. -1.
         -3    1    4    4    0  501 -0.13921211162E+02 -0.82976660761E+02 -0.17754346369E+03  0.19647037398E+03  0.00000000000E+00 0.  1.
          5    1    3    3  502    0 -0.96560255506E+02 -0.57637840571E+02 -0.31506331864E+02  0.11687917931E+03  0.47000000000E+01 0. -1.
         11    1    6    6    0    0  0.20095793576E+02 -0.11873554998E+02  0.15234783313E+02  0.27873299955E+02  0.00000000000E+00 0. -1.
        -12    1    6    6    0    0  0.13598802774E+03  0.12471974380E+03  0.69534119831E+02  0.19718709898E+03  0.00000000000E+00 0.  1.
         -5    1    5    5    0  503 -0.21871408039E+02  0.24054695321E+02  0.64280443396E+02  0.72187618466E+02  0.47000000000E+01 0.  1.
<mgrwt>
<rscale>  2 0.25800715E+03</rscale>
<asrwt>0</asrwt>
<pdfrwt beam="1">  1       21 0.43443097E-01 0.25828402E+03</pdfrwt>
<pdfrwt beam="2">  1       21 0.54717998E-01 0.25828402E+03</pdfrwt>
<totfact> 0.15476840E+04</totfact>
</mgrwt>
</event>
<event>
12    1  0.2769346E-001  0.1973738E+03  0.7546771E-02  0.1152280E+00
         21   -1    0    0  504  503  0.00000000000E+00  0.00000000000E+00  0.80555261234E+02  0.80555261234E+02  0.00000000000E+00 0.  1.
         21   -1    0    0  502  504 -0.00000000000E+00 -0.00000000000E+00 -0.68049094231E+03  0.68049094231E+03  0.00000000000E+00 0.  1.
          6    2    1    2  502    0 -0.50078276847E+02 -0.76536761838E+02 -0.50721443002E+03  0.54426364092E+03  0.17490203853E+03 0.  0.
         24    2    3    3    0    0 -0.91015050554E+01 -0.69588910136E+02 -0.48622741243E+03  0.49746713061E+03  0.78300674543E+02 0.  0.
         -6    2    1    2    0  503  0.50078276847E+02  0.76536761838E+02 -0.92721251059E+02  0.21678256263E+03  0.17329668011E+03 0.  0.
        -24    2    5    5    0    0  0.35044400284E+02 -0.42898605507E+01  0.66222289528E+01  0.87746996397E+02  0.80057283027E+02 0.  0.
          4    1    4    4  501    0  0.31248352504E+01 -0.85219139308E+02 -0.38977069088E+03  0.39899029784E+03  0.00000000000E+00 0. -1.
         -3    1    4    4    0  501 -0.12226340306E+02  0.15630229172E+02 -0.96456721551E+02  0.98476832776E+02  0.00000000000E+00 0.  1.
          5    1    3    3  502    0 -0.40976771792E+02 -0.69478517022E+01 -0.20987017593E+02  0.46796510310E+02  0.47000000000E+01 0. -1.
         13    1    6    6    0    0  0.42893661266E+02 -0.31277415573E+02 -0.11483637211E+02  0.54314057346E+02  0.00000000000E+00 0. -1.
        -14    1    6    6    0    0 -0.78492609828E+01  0.26987555022E+02  0.18105866164E+02  0.33432939051E+02  0.00000000000E+00 0.  1.
         -5    1    5    5    0  503  0.15033876564E+02  0.80826622389E+02 -0.99343480012E+02  0.12903556623E+03  0.47000000000E+01 0.  1.
<mgrwt>
<rscale>  2 0.19701758E+03</rscale>
<asrwt>0</asrwt>
<pdfrwt beam="1">  1       21 0.12393117E-01 0.19737384E+03</pdfrwt>
<pdfrwt beam="2">  1       21 0.10469091E+00 0.19737384E+03</pdfrwt>
<totfact> 0.40652139E+04</totfact>
</mgrwt>
</event>
<event>
12    1  0.2769346E-001  0.2514427E+03  0.7546771E-02  0.1112432E+00
         21   -1    0    0  504  503  0.00000000000E+00  0.00000000000E+00  0.78403120317E+02  0.78403120317E+02  0.00000000000E+00 0. -1.
         21   -1    0    0  502  504 -0.00000000000E+00 -0.00000000000E+00 -0.88959152362E+03  0.88959152362E+03  0.00000000000E+00 0.  1.
          6    2    1    2  502    0 -0.91955617810E+02  0.15772018951E+03 -0.25709263807E+03  0.35961099849E+03  0.17289289129E+03 0.  0.
         24    2    3    3    0    0 -0.33928767946E+02  0.28679462160E+02 -0.16765438832E+03  0.19215976637E+03  0.82726713005E+02 0.  0.
         -6    2    1    2    0  503  0.91955617810E+02 -0.15772018951E+03 -0.55409576523E+03  0.60838364544E+03  0.17256027692E+03 0.  0.
        -24    2    5    5    0    0  0.25990697803E+02 -0.12386456920E+03 -0.23193332649E+03  0.27776558690E+03  0.85689587783E+02 0.  0.
          2    1    4    4  501    0 -0.38921380914E+02  0.54682378611E+02 -0.11303367138E+03  0.13145967933E+03  0.00000000000E+00 0. -1.
         -1    1    4    4    0  501  0.49926129678E+01 -0.26002916452E+02 -0.54620716936E+02  0.60700087042E+02  0.00000000000E+00 0.  1.
          5    1    3    3  502    0 -0.58026849863E+02  0.12904072735E+03 -0.89438249757E+02  0.16745123213E+03  0.47000000000E+01 0. -1.
         13    1    6    6    0    0 -0.14657209117E+02 -0.81630918180E+01 -0.83772183406E+02  0.85435639869E+02  0.00000000000E+00 0. -1.
        -14    1    6    6    0    0  0.40647906920E+02 -0.11570147738E+03 -0.14816114308E+03  0.19232994703E+03  0.00000000000E+00 0.  1.
         -5    1    5    5    0  503  0.65964920007E+02 -0.33855620311E+02 -0.32216243874E+03  0.33061805854E+03  0.47000000000E+01 0.  1.
<mgrwt>
<rscale>  2 0.25138556E+03</rscale>
<asrwt>0</asrwt>
<pdfrwt beam="1">  1       21 0.12062018E-01 0.25144273E+03</pdfrwt>
<pdfrwt beam="2">  1       21 0.13686024E+00 0.25144273E+03</pdfrwt>
<totfact> 0.21309019E+04</totfact>
</mgrwt>
</event>
<event>
12    1  0.2769346E-001  0.2070852E+03  0.7546771E-02  0.1144680E+00
         21   -1    0    0  504  503  0.00000000000E+00  0.00000000000E+00  0.13624873711E+03  0.13624873711E+03  0.00000000000E+00 0.  1.
         21   -1    0    0  502  504 -0.00000000000E+00 -0.00000000000E+00 -0.31221682281E+03  0.31221682281E+03  0.00000000000E+00 0. -1.
          6    2    1    2  502    0  0.10763448486E+03  0.11104286586E+02 -0.64126885494E+02  0.21310896209E+03  0.17203105757E+03 0.  0.
         24    2    3    3    0    0  0.12432658555E+03  0.86694226055E+01 -0.12941903704E+01  0.14788172572E+03  0.79593159953E+02 0.  0.
         -6    2    1    2    0  503 -0.10763448486E+03 -0.11104286586E+02 -0.11184120021E+03  0.23535659783E+03  0.17656666324E+03 0.  0.
        -24    2    5    5    0    0 -0.95901362829E+02 -0.70841078741E+02 -0.92637646196E+02  0.17134865320E+03  0.81012947301E+02 0.  0.
          4    1    4    4  501    0  0.92525861428E+02  0.41128913055E+02 -0.95207360816E+01  0.10170185317E+03  0.00000000000E+00 0. -1.
         -3    1    4    4    0  501  0.31800724119E+02 -0.32459490449E+02  0.82265457112E+01  0.46179872553E+02  0.00000000000E+00 0.  1.
          5    1    3    3  502    0 -0.16692100683E+02  0.24348639802E+01 -0.62832695124E+02  0.65227236369E+02  0.47000000000E+01 0. -1.
         11    1    6    6    0    0 -0.78294475846E+02 -0.17292916290E+02 -0.80638127065E+02  0.11371709387E+03  0.00000000000E+00 0. -1.
        -12    1    6    6    0    0 -0.17606886983E+02 -0.53548162451E+02 -0.11999519130E+02  0.57631559327E+02  0.00000000000E+00 0.  1.
         -5    1    5    5    0  503 -0.11733122035E+02  0.59736792155E+02 -0.19203554013E+02  0.64007944635E+02  0.47000000000E+01 0.  1.
<mgrwt>
<rscale>  2 0.20611505E+03</rscale>
<asrwt>0</asrwt>
<pdfrwt beam="1">  1       21 0.20961344E-01 0.20708519E+03</pdfrwt>
<pdfrwt beam="2">  1       21 0.48033358E-01 0.20708519E+03</pdfrwt>
<totfact> 0.87035636E+04</totfact>
</mgrwt>
</event>
<event>
12    1  0.2769346E-001  0.2392394E+03  0.7546771E-02  0.1120599E+00
         21   -1    0    0  504  503  0.00000000000E+00  0.00000000000E+00  0.55461338056E+02  0.55461338056E+02  0.00000000000E+00 0. -1.
         21   -1    0    0  502  504 -0.00000000000E+00 -0.00000000000E+00 -0.10890270183E+04  0.10890270183E+04  0.00000000000E+00 0. -1.
          6    2    1    2  502    0  0.15136884234E+03  0.64888879699E+02 -0.65805871594E+03  0.70019767015E+03  0.17352927860E+03 0.  0.
         24    2    3    3    0    0  0.13177617361E+02  0.32214261482E+02 -0.35023583712E+03  0.36116749442E+03  0.81027212587E+02 0.  0.
         -6    2    1    2    0  503 -0.15136884234E+03 -0.64888879699E+02 -0.37550696428E+03  0.44429068618E+03  0.17107203295E+03 0.  0.
        -24    2    5    5    0    0 -0.17389602065E+03 -0.28961620418E+02 -0.28990373647E+03  0.34864423128E+03  0.80187418781E+02 0.  0.
          2    1    4    4  501    0  0.45874845614E+02  0.21664654831E+02 -0.25310060915E+03  0.25813519148E+03  0.00000000000E+00 0. -1.
         -1    1    4    4    0  501 -0.32697228252E+02  0.10549606651E+02 -0.97135227972E+02  0.10303230294E+03  0.00000000000E+00 0.  1.
          5    1    3    3  502    0  0.13819122498E+03  0.32674618216E+02 -0.30782287882E+03  0.33903017574E+03  0.47000000000E+01 0. -1.
         11    1    6    6    0    0 -0.76286791531E+02 -0.28459960684E+02 -0.67500968265E+02  0.10576400447E+03  0.00000000000E+00 0. -1.
        -12    1    6    6    0    0 -0.97609229119E+02 -0.50165973397E+00 -0.22240276820E+03  0.24288022681E+03  0.00000000000E+00 0.  1.
         -5    1    5    5    0  503  0.22527178311E+02 -0.35927259281E+02 -0.85603227817E+02  0.95646454899E+02  0.47000000000E+01 0.  1.
<mgrwt>
<rscale>  2 0.23879411E+03</rscale>
<asrwt>0</asrwt>
<pdfrwt beam="1">  1       21 0.85325135E-02 0.23923943E+03</pdfrwt>
<pdfrwt beam="2">  1       21 0.16754262E+00 0.23923943E+03</pdfrwt>
<totfact> 0.23121986E+04</totfact>
</mgrwt>
</event>
<event>
12    1  0.2769346E-001  0.2173943E+03  0.7546771E-02  0.1135916E+00
         21   -1    0    0  504  503  0.00000000000E+00  0.00000000000E+00  0.58928821618E+03  0.58928821618E+03  0.00000000000E+00 0. -1.
         21   -1    0    0  502  504 -0.00000000000E+00 -0.00000000000E+00 -0.11954321731E+03  0.11954321731E+03  0.00000000000E+00 0. -1.
          6    2    1    2  502    0  0.72400645707E+02 -0.10835497502E+03  0.31028544444E+02  0.21920665459E+03  0.17351118908E+03 0.  0.
         24    2    3    3    0    0  0.62703571710E+02 -0.12682980279E+03  0.70128469281E+02  0.17463932768E+03  0.74587906439E+02 0.  0.
         -6    2    1    2    0  503 -0.72400645707E+02  0.10835497502E+03  0.43871645442E+03  0.48962477891E+03  0.17400472013E+03 0.  0.
        -24    2    5    5    0    0 -0.64926160803E+02  0.11168059139E+03  0.20801523258E+03  0.25873070924E+03  0.83566034179E+02 0.  0.
          2    1    4    4  501    0  0.34415216865E+01 -0.74036754517E+02  0.94130300736E+01  0.74712048734E+02  0.00000000000E+00 0. -1.
         -1    1    4    4    0  501  0.59262050024E+02 -0.52793048277E+02  0.60715439207E+02  0.99927278946E+02  0.00000000000E+00 0.  1.
          5    1    3    3  502    0  0.96970739972E+01  0.18474827776E+02 -0.39099924837E+02  0.44567326908E+02  0.47000000000E+01 0. -1.
         13    1    6    6    0    0 -0.81727256682E+02  0.10591195420E+03  0.16658048499E+03  0.21364864733E+03  0.00000000000E+00 0. -1.
        -14    1    6    6    0    0  0.16801095879E+02  0.57686371836E+01  0.41434747591E+02  0.45082061905E+02  0.00000000000E+00 0.  1.
         -5    1    5    5    0  503 -0.74744849044E+01 -0.33256163693E+01  0.23070122184E+03  0.23089406967E+03  0.47000000000E+01 0.  1.
<mgrwt>
<rscale>  2 0.21729556E+03</rscale>
<asrwt>0</asrwt>
<pdfrwt beam="1">  1       21 0.90659724E-01 0.21739433E+03</pdfrwt>
<pdfrwt beam="2">  1       21 0.18391264E-01 0.21739433E+03</pdfrwt>
<totfact> 0.27484360E+04</totfact>
</mgrwt>
</event>
<event>
12    1  0.2769346E-001  0.1741855E+03  0.7546771E-02  0.1174014E+00
         21   -1    0    0  504  503  0.00000000000E+00  0.00000000000E+00  0.39502131213E+03  0.39502131213E+03  0.00000000000E+00 0.  1.
         21   -1    0    0  502  504 -0.00000000000E+00 -0.00000000000E+00 -0.17974272892E+03  0.17974272892E+03  0.00000000000E+00 0.  1.
          6    2    1    2  502    0 -0.15425496592E+01 -0.22278031615E+02 -0.11091922265E+03  0.20497273166E+03  0.17091534928E+03 0.  0.
         24    2    3    3    0    0  0.36334397364E+02 -0.69239545699E+02 -0.75833961767E+02  0.13502194573E+03  0.79786170174E+02 0.  0.
         -6    2    1    2    0  503  0.15425496592E+01  0.22278031615E+02  0.32619780585E+03  0.36979130939E+03  0.17274812244E+03 0.  0.
        -24    2    5    5    0    0 -0.65199866735E+02  0.11446234498E+02  0.16797755573E+03  0.19766456677E+03  0.80453606644E+02 0.  0.
          2    1    4    4  501    0  0.19142939986E+02 -0.69093972936E-01 -0.58663776451E+02  0.61708148512E+02  0.00000000000E+00 0. -1.
         -1    1    4    4    0  501  0.17191457377E+02 -0.69170451726E+02 -0.17170185316E+02  0.73313797218E+02  0.00000000000E+00 0.  1.
          5    1    3    3  502    0 -0.37876947023E+02  0.46961514084E+02 -0.35085260882E+02  0.69950785928E+02  0.47000000000E+01 0. -1.
         11    1    6    6    0    0 -0.16628375429E+02 -0.19835721164E+02  0.72659044455E+01  0.26884048633E+02  0.00000000000E+00 0. -1.
        -12    1    6    6    0    0 -0.48571491306E+02  0.31281955661E+02  0.16071165128E+03  0.17078051814E+03  0.00000000000E+00 0.  1.
         -5    1    5    5    0  503  0.66742416394E+02  0.10831797118E+02  0.15822025013E+03  0.17212674262E+03  0.47000000000E+01 0.  1.
<mgrwt>
<rscale>  2 0.17372938E+03</rscale>
<asrwt>0</asrwt>
<pdfrwt beam="1">  1       21 0.60772509E-01 0.17418554E+03</pdfrwt>
<pdfrwt beam="2">  1       21 0.27652728E-01 0.17418554E+03</pdfrwt>
<totfact> 0.31780020E+04</totfact>
</mgrwt>
</event>
<event>
12    1  0.2769346E-001  0.1840001E+03  0.7546771E-02  0.1165094E+00
         21   -1    0    0  504  503  0.00000000000E+00  0.00000000000E+00  0.50031082674E+03  0.50031082674E+03  0.00000000000E+00 0.  1.
         21   -1    0    0  502  504 -0.00000000000E+00 -0.00000000000E+00 -0.13524554635E+03  0.13524554635E+03  0.00000000000E+00 0.  1.
          6    2    1    2  502    0 -0.35622409703E+02  0.40490663570E+02 -0.46024307433E+02  0.18516690793E+03  0.17105583009E+03 0.  0.
         24    2    3    3    0    0  0.21312903399E+02  0.66508308218E+01 -0.76242234962E+02  0.11221502445E+03  0.79251876437E+02 0.  0.
         -6    2    1    2    0  503  0.35622409703E+02 -0.40490663570E+02  0.41108958783E+03  0.45038946517E+03  0.17591921785E+03 0.  0.
        -24    2    5    5    0    0 -0.14027841722E+02 -0.38755703325E+02  0.99844120902E+02  0.13516892613E+03  0.81258877842E+02 0.  0.
          2    1    4    4  501    0  0.27145794818E+02 -0.32574043708E+02 -0.43993541737E+02  0.61101507463E+02  0.00000000000E+00 0. -1.
         -1    1    4    4    0  501 -0.58328914190E+01  0.39224874529E+02 -0.32248693225E+02  0.51113516988E+02  0.00000000000E+00 0.  1.
          5    1    3    3  502    0 -0.56935313102E+02  0.33839832748E+02  0.30217927529E+02  0.72951883475E+02  0.47000000000E+01 0. -1.
         11    1    6    6    0    0 -0.11895594539E+02  0.22379284376E+02  0.11792300025E+02  0.27953459150E+02  0.00000000000E+00 0. -1.
        -12    1    6    6    0    0 -0.21322471831E+01 -0.61134987701E+02  0.88051820878E+02  0.10721546698E+03  0.00000000000E+00 0.  1.
         -5    1    5    5    0  503  0.49650251425E+02 -0.17349602441E+01  0.31124546692E+03  0.31522053904E+03  0.47000000000E+01 0.  1.
<mgrwt>
<rscale>  2 0.18282787E+03</rscale>
<asrwt>0</asrwt>
<pdfrwt beam="1">  1       21 0.76970896E-01 0.18400006E+03</pdfrwt>
<pdfrwt beam="2">  1       21 0.20807007E-01 0.18400006E+03</pdfrwt>
<totfact> 0.32309010E+04</totfact>
</mgrwt>
</event>
<event>
12    1  0.2769346E-001  0.1810938E+03  0.7546771E-02  0.1167856E+00
         21   -1    0    0  504  503  0.00000000000E+00  0.00000000000E+00  0.11455035380E+03  0.11455035380E+03  0.00000000000E+00 0. -1.
         21   -1    0    0  502  504 -0.00000000000E+00 -0.00000000000E+00 -0.40766796848E+03  0.40766796848E+03  0.00000000000E+00 0. -1.
          6    2    1    2  502    0  0.91640231888E+01 -0.37197080468E+02 -0.29443478733E+03  0.34566863809E+03  0.17699537070E+03 0.  0.
         24    2    3    3    0    0  0.25926265313E+02  0.35003861774E+02 -0.22641397003E+03  0.24495681948E+03  0.82723128630E+02 0.  0.
         -6    2    1    2    0  503 -0.91640231888E+01  0.37197080468E+02  0.13171726484E+01  0.17654968420E+03  0.17233819637E+03 0.  0.
        -24    2    5    5    0    0 -0.23089610149E+02 -0.41857908621E+02 -0.31097514993E+02  0.89852422147E+02  0.69434773105E+02 0.  0.
          4    1    4    4  501    0  0.35716838196E+02  0.18362128896E+02 -0.22139370605E+03  0.22500674075E+03  0.00000000000E+00 0. -1.
         -3    1    4    4    0  501 -0.97905728825E+01  0.16641732878E+02 -0.50202639867E+01  0.19950078723E+02  0.00000000000E+00 0.  1.
          5    1    3    3  502    0 -0.16762242124E+02 -0.72200942241E+02 -0.68020817301E+02  0.10071181861E+03  0.47000000000E+01 0. -1.
         13    1    6    6    0    0  0.19132905671E+01  0.17377078088E+02  0.18976749488E+01  0.17584785864E+02  0.00000000000E+00 0. -1.
        -14    1    6    6    0    0 -0.25002900716E+02 -0.59234986709E+02 -0.32995189941E+02  0.72267636283E+02  0.00000000000E+00 0.  1.
         -5    1    5    5    0  503  0.13925586961E+02  0.79054989088E+02  0.32414687641E+02  0.86697262049E+02  0.47000000000E+01 0.  1.
<mgrwt>
<rscale>  2 0.17994567E+03</rscale>
<asrwt>0</asrwt>
<pdfrwt beam="1">  1       21 0.17623132E-01 0.18109380E+03</pdfrwt>
<pdfrwt beam="2">  1       21 0.62718148E-01 0.18109380E+03</pdfrwt>
<totfact> 0.69104012E+04</totfact>
</mgrwt>
</event>
<event>
12    1  0.2769346E-001  0.1761279E+03  0.7546771E-02  0.1171963E+00
         21   -1    0    0  504  503  0.00000000000E+00  0.00000000000E+00  0.44530960632E+03  0.44530960632E+03  0.00000000000E+00 0. -1.
         21   -1    0    0  502  504 -0.00000000000E+00 -0.00000000000E+00 -0.71274142242E+02  0.71274142242E+02  0.00000000000E+00 0. -1.
          6    2    1    2  502    0 -0.11966171855E+02 -0.23412387112E+02  0.14259518938E+03  0.22661515779E+03  0.17415427805E+03 0.  0.
         24    2    3    3    0    0  0.32122944587E+02 -0.36021397714E+02  0.14129723361E+02  0.90129615339E+02  0.74794878279E+02 0.  0.
         -6    2    1    2    0  503  0.11966171855E+02  0.23412387112E+02  0.23144027469E+03  0.28996859077E+03  0.17270163215E+03 0.  0.
        -24    2    5    5    0    0 -0.57223381830E+02  0.77403050367E+01  0.16354464531E+03  0.19165930848E+03  0.81559866155E+02 0.  0.
          2    1    4    4  501    0  0.18732094657E+02 -0.21143399523E+01 -0.28416792938E+02  0.34100966622E+02  0.00000000000E+00 0. -1.
         -1    1    4    4    0  501  0.13390849929E+02 -0.33907057762E+02  0.42546516299E+02  0.56028648717E+02  0.00000000000E+00 0.  1.
          5    1    3    3  502    0 -0.44089116441E+02  0.12609010602E+02  0.12846546602E+03  0.13648554245E+03  0.47000000000E+01 0. -1.
         13    1    6    6    0    0 -0.50942852175E+02 -0.25882852190E+02  0.61102684604E+02  0.83657840583E+02  0.00000000000E+00 0. -1.
        -14    1    6    6    0    0 -0.62805296557E+01  0.33623157226E+02  0.10244196071E+03  0.10800146790E+03  0.00000000000E+00 0.  1.
         -5    1    5    5    0  503  0.69189553685E+02  0.15672082075E+02  0.67895629383E+02  0.98309282293E+02  0.47000000000E+01 0.  1.
<mgrwt>
<rscale>  2 0.17576775E+03</rscale>
<asrwt>0</asrwt>
<pdfrwt beam="1">  1       21 0.68509168E-01 0.17612791E+03</pdfrwt>
<pdfrwt beam="2">  1       21 0.10965253E-01 0.17612791E+03</pdfrwt>
<totfact> 0.13467705E+05</totfact>
</mgrwt>
</event>
<event>
12    1  0.2769346E-001  0.2471116E+03  0.7546771E-02  0.1115336E+00
         21   -1    0    0  504  503  0.00000000000E+00  0.00000000000E+00  0.60876839450E+03  0.60876839450E+03  0.00000000000E+00 0. -1.
         21   -1    0    0  502  504 -0.00000000000E+00 -0.00000000000E+00 -0.10005485950E+03  0.10005485950E+03  0.00000000000E+00 0.  1.
          6    2    1    2  502    0 -0.23798130683E+02 -0.17407492895E+03  0.23669088463E+03  0.34131754795E+03  0.17206586459E+03 0.  0.
         24    2    3    3    0    0  0.53865611739E+01 -0.18365031704E+03  0.23668980022E+03  0.31024466111E+03  0.80456411975E+02 0.  0.
         -6    2    1    2    0  503  0.23798130683E+02  0.17407492895E+03  0.27202265037E+03  0.36750570605E+03  0.17376907018E+03 0.  0.
        -24    2    5    5    0    0 -0.30036103809E+02  0.88211291509E+02  0.22343521323E+03  0.25501784854E+03  0.80171123747E+02 0.  0.
          2    1    4    4  501    0 -0.39301733375E+01 -0.13716472631E+03  0.22131599720E+03  0.26040426076E+03  0.00000000000E+00 0. -1.
         -1    1    4    4    0  501  0.93167345114E+01 -0.46485590727E+02  0.15373803020E+02  0.49840400344E+02  0.00000000000E+00 0.  1.
          5    1    3    3  502    0 -0.29184691857E+02  0.95753880828E+01  0.10844102472E-02  0.31072886845E+02  0.47000000000E+01 0. -1.
         13    1    6    6    0    0  0.25275632190E+01  0.88873822971E+02  0.17964832437E+03  0.20044566704E+03  0.00000000000E+00 0. -1.
        -14    1    6    6    0    0 -0.32563667028E+02 -0.66253146120E+00  0.43786888858E+02  0.54572181504E+02  0.00000000000E+00 0.  1.
         -5    1    5    5    0  503  0.53834234492E+02  0.85863637444E+02  0.48587437139E+02  0.11248785751E+03  0.47000000000E+01 0.  1.
<mgrwt>
<rscale>  2 0.24681234E+03</rscale>
<asrwt>0</asrwt>
<pdfrwt beam="1">  1       21 0.93656674E-01 0.24711156E+03</pdfrwt>
<pdfrwt beam="2">  1       21 0.15393056E-01 0.24711156E+03</pdfrwt>
<totfact> 0.34868304E+04</totfact>
</mgrwt>
</event>
<event>
12    1  0.2769346E-001  0.1987404E+03  0.7546771E-02  0.1150884E+00
         21   -1    0    0  504  503  0.00000000000E+00  0.00000000000E+00  0.22203550249E+03  0.22203550249E+03  0.00000000000E+00 0. -1.
         21   -1    0    0  502  504 -0.00000000000E+00 -0.00000000000E+00 -0.43165773439E+03  0.43165773439E+03  0.00000000000E+00 0.  1.
          6    2    1    2  502    0  0.29288105385E+02  0.92726866459E+02 -0.35561890791E+03  0.40738502920E+03  0.17332538612E+03 0.  0.
         24    2    3    3    0    0  0.20762368862E+02 -0.12200152631E+01 -0.77665903522E+02  0.11382299587E+03  0.80567471228E+02 0.  0.
         -6    2    1    2    0  503 -0.29288105385E+02 -0.92726866459E+02  0.14599667600E+03  0.24630820767E+03  0.17290644546E+03 0.  0.
        -24    2    5    5    0    0  0.20040452049E+02 -0.11385018946E+03  0.12504680246E+03  0.18851124794E+03  0.80847402152E+02 0.  0.
          2    1    4    4  501    0  0.12601934866E+02 -0.20479411503E+02  0.82311392689E+01  0.25415875187E+02  0.00000000000E+00 0. -1.
         -1    1    4    4    0  501  0.81604339960E+01  0.19259396240E+02 -0.85897042791E+02  0.88407120679E+02  0.00000000000E+00 0.  1.
          5    1    3    3  502    0  0.85257365226E+01  0.93946881722E+02 -0.27795300438E+03  0.29356203333E+03  0.47000000000E+01 0. -1.
         13    1    6    6    0    0  0.38472347246E+01 -0.21760376308E+02  0.83176491119E+02  0.86061860699E+02  0.00000000000E+00 0. -1.
        -14    1    6    6    0    0  0.16193217325E+02 -0.92089813153E+02  0.41870311344E+02  0.10244938724E+03  0.00000000000E+00 0.  1.
         -5    1    5    5    0  503 -0.49328557434E+02  0.21123323003E+02  0.20949873541E+02  0.57796959735E+02  0.47000000000E+01 0.  1.
<mgrwt>
<rscale>  2 0.19864904E+03</rscale>
<asrwt>0</asrwt>
<pdfrwt beam="1">  1       21 0.34159308E-01 0.19874042E+03</pdfrwt>
<pdfrwt beam="2">  1       21 0.66408882E-01 0.19874042E+03</pdfrwt>
<totfact> 0.17110679E+04</totfact>
</mgrwt>
</event>
<event>
12    1  0.2769346E-001  0.1792732E+03  0.7546771E-02  0.1168635E+00
         21   -1    0    0  504  503  0.00000000000E+00  0.00000000000E+00  0.45797518397E+02  0.45797518397E+02  0.00000000000E+00 0.  1.
         21   -1    0    0  502  504 -0.00000000000E+00 -0.00000000000E+00 -0.69981816589E+03  0.69981816589E+03  0.00000000000E+00 0.  1.
          6    2    1    2  502    0 -0.46246248674E+02  0.44511406250E+01 -0.33187790126E+03  0.37720260373E+03  0.17314830275E+03 0.  0.
         24    2    3    3    0    0 -0.61355451008E+02  0.27149363827E+02 -0.33296183866E+03  0.34951213151E+03  0.82423083794E+02 0.  0.
         -6    2    1    2    0  503  0.46246248674E+02 -0.44511406250E+01 -0.32214274623E+03  0.36841308055E+03  0.17260857687E+03 0.  0.
        -24    2    5    5    0    0  0.28051144540E+02 -0.70074156581E+02 -0.21631494693E+03  0.24248034000E+03  0.79418542509E+02 0.  0.
          4    1    4    4  501    0 -0.31105765100E+02 -0.28954443158E+02 -0.12833447897E+03  0.13518752492E+03  0.00000000000E+00 0. -1.
         -3    1    4    4    0  501 -0.30249685907E+02  0.56103806985E+02 -0.20462735969E+03  0.21432460659E+03  0.00000000000E+00 0.  1.
          5    1    3    3  502    0  0.15109202334E+02 -0.22698223202E+02  0.10839373963E+01  0.27690472224E+02  0.47000000000E+01 0. -1.
         11    1    6    6    0    0  0.48738424991E+02 -0.15412800286E+02 -0.10179494925E+03  0.11390873617E+03  0.00000000000E+00 0. -1.
        -12    1    6    6    0    0 -0.20687280451E+02 -0.54661356295E+02 -0.11451999767E+03  0.12857160383E+03  0.00000000000E+00 0.  1.
         -5    1    5    5    0  503  0.18195104134E+02  0.65623015956E+02 -0.10582779930E+03  0.12593274055E+03  0.47000000000E+01 0.  1.
<mgrwt>
<rscale>  2 0.17914270E+03</rscale>
<asrwt>0</asrwt>
<pdfrwt beam="1">  1       21 0.70457719E-02 0.17927315E+03</pdfrwt>
<pdfrwt beam="2">  1       21 0.10766434E+00 0.17927315E+03</pdfrwt>
<totfact> 0.10345850E+05</totfact>
</mgrwt>
</event>
<event>
12    1  0.2769346E-001  0.1915983E+03  0.7546771E-02  0.1157040E+00
         21   -1    0    0  504  503  0.00000000000E+00  0.00000000000E+00  0.38723183205E+03  0.38723183205E+03  0.00000000000E+00 0. -1.
         21   -1    0    0  502  504 -0.00000000000E+00 -0.00000000000E+00 -0.97058183101E+02  0.97058183101E+02  0.00000000000E+00 0. -1.
          6    2    1    2  502    0  0.69789246327E+02 -0.42947369358E+02  0.10795018700E+03  0.21991620176E+03  0.17319029270E+03 0.  0.
         24    2    3    3    0    0  0.76573385537E+02 -0.34205262461E+02  0.49960680346E+01  0.11626250144E+03  0.80364950027E+02 0.  0.
         -6    2    1    2    0  503 -0.69789246327E+02  0.42947369358E+02  0.18222346195E+03  0.26437381339E+03  0.17312743192E+03 0.  0.
        -24    2    5    5    0    0 -0.64136096853E+02  0.23375823414E+01  0.27772115555E+02  0.10450379962E+03  0.77658550860E+02 0.  0.
          4    1    4    4  501    0  0.32070504842E+02 -0.52303110479E+02  0.22181514452E+02  0.65239192438E+02  0.00000000000E+00 0. -1.
         -3    1    4    4    0  501  0.44502880695E+02  0.18097848018E+02 -0.17185446417E+02  0.51023309003E+02  0.00000000000E+00 0.  1.
          5    1    3    3  502    0 -0.67841392105E+01 -0.87421068967E+01  0.10295411897E+03  0.10365370032E+03  0.47000000000E+01 0. -1.
         11    1    6    6    0    0 -0.41102205396E+01  0.28043657888E+02  0.27081733323E+02  0.39201542577E+02  0.00000000000E+00 0. -1.
        -12    1    6    6    0    0 -0.60025876314E+02 -0.25706075547E+02  0.69038223233E+00  0.65302257043E+02  0.00000000000E+00 0.  1.
         -5    1    5    5    0  503 -0.56531494733E+01  0.40609787016E+02  0.15445134639E+03  0.15987001377E+03  0.47000000000E+01 0.  1.
<mgrwt>
<rscale>  2 0.19158405E+03</rscale>
<asrwt>0</asrwt>
<pdfrwt beam="1">  1       21 0.59574127E-01 0.19159826E+03</pdfrwt>
<pdfrwt beam="2">  1       21 0.14932028E-01 0.19159826E+03</pdfrwt>
<totfact> 0.10411723E+05</totfact>
</mgrwt>
</event>
<event>
12    1  0.2769346E-001  0.1873262E+03  0.7546771E-02  0.1160923E+00
         21   -1    0    0  504  503  0.00000000000E+00  0.00000000000E+00  0.48575709777E+03  0.48575709777E+03  0.00000000000E+00 0.  1.
         21   -1    0    0  502  504 -0.00000000000E+00 -0.00000000000E+00 -0.75220678627E+02  0.75220678627E+02  0.00000000000E+00 0. -1.
          6    2    1    2  502    0  0.60160735410E+02 -0.37349668359E+02  0.14893835869E+03  0.23922532759E+03  0.17329688647E+03 0.  0.
         24    2    3    3    0    0 -0.24785363675E+00 -0.77672426043E+02  0.69331462725E+02  0.13136212579E+03  0.80100494184E+02 0.  0.
         -6    2    1    2    0  503 -0.60160735410E+02  0.37349668359E+02  0.26159806045E+03  0.32175244881E+03  0.17342658756E+03 0.  0.
        -24    2    5    5    0    0  0.23498957347E+02  0.45897220431E+02  0.18506538092E+03  0.20794846876E+03  0.79590292159E+02 0.  0.
          2    1    4    4  501    0  0.20336831213E+02 -0.86602083966E+02  0.58292002375E+02  0.10635537218E+03  0.00000000000E+00 0. -1.
         -1    1    4    4    0  501 -0.20584684849E+02  0.89296579233E+01  0.11039460349E+02  0.25006753603E+02  0.00000000000E+00 0.  1.
          5    1    3    3  502    0  0.60408589046E+02  0.40322757683E+02  0.79606895968E+02  0.10786320180E+03  0.47000000000E+01 0. -1.
         13    1    6    6    0    0  0.76616597596E+01  0.50453641705E+02  0.48533604112E+02  0.70425717744E+02  0.00000000000E+00 0. -1.
        -14    1    6    6    0    0  0.15837297587E+02 -0.45564212739E+01  0.13653177680E+03  0.13752275102E+03  0.00000000000E+00 0.  1.
         -5    1    5    5    0  503 -0.83659692756E+02 -0.85475520717E+01  0.76532679538E+02  0.11380398005E+03  0.47000000000E+01 0.  1.
<mgrwt>
<rscale>  2 0.18729614E+03</rscale>
<asrwt>0</asrwt>
<pdfrwt beam="1">  1       21 0.74731859E-01 0.18732617E+03</pdfrwt>
<pdfrwt beam="2">  1       21 0.11572412E-01 0.18732617E+03</pdfrwt>
<totfact> 0.10055581E+05</totfact>
</mgrwt>
</event>
<event>
12    1  0.2769346E-001  0.2501441E+03  0.7546771E-02  0.1113361E+00
         21   -1    0    0  504  503  0.00000000000E+00  0.00000000000E+00  0.42330986717E+03  0.42330986717E+03  0.00000000000E+00 0. -1.
         21   -1    0    0  502  504 -0.00000000000E+00 -0.00000000000E+00 -0.18831767435E+03  0.18831767435E+03  0.00000000000E+00 0. -1.
          6    2    1    2  502    0  0.11621110161E+03 -0.13732708737E+03 -0.25455001270E+02  0.25051147706E+03  0.17246534139E+03 0.  0.
         24    2    3    3    0    0  0.12068363889E+03 -0.16296976374E+03 -0.39810889624E+02  0.22041609583E+03  0.76646355305E+02 0.  0.
         -6    2    1    2    0  503 -0.11621110161E+03  0.13732708737E+03  0.26044719409E+03  0.36111606446E+03  0.17380541429E+03 0.  0.
        -24    2    5    5    0    0 -0.13186516664E+03  0.15903562628E+03  0.21984205657E+03  0.31225731288E+03  0.80581306822E+02 0.  0.
          2    1    4    4  501    0  0.85628642239E+02 -0.14788939070E+03 -0.54732652959E+02  0.17944135407E+03  0.00000000000E+00 0. -1.
         -1    1    4    4    0  501  0.35054996647E+02 -0.15080373039E+02  0.14921763334E+02  0.40974741755E+02  0.00000000000E+00 0.  1.
          5    1    3    3  502    0 -0.44725372716E+01  0.25642676362E+02  0.14355888355E+02  0.30095381226E+02  0.47000000000E+01 0. -1.
         11    1    6    6    0    0  0.98513260807E+01  0.22331887575E+02  0.18412016177E+02  0.30573913193E+02  0.00000000000E+00 0. -1.
        -12    1    6    6    0    0 -0.14171649272E+03  0.13670373870E+03  0.20143004040E+03  0.28168339969E+03  0.00000000000E+00 0.  1.
         -5    1    5    5    0  503  0.15654065030E+02 -0.21708538904E+02  0.40605137515E+02  0.48858751579E+02  0.47000000000E+01 0.  1.
<mgrwt>
<rscale>  2 0.24991146E+03</rscale>
<asrwt>0</asrwt>
<pdfrwt beam="1">  1       21 0.65124595E-01 0.25014410E+03</pdfrwt>
<pdfrwt beam="2">  1       21 0.28971950E-01 0.25014410E+03</pdfrwt>
<totfact> 0.24012300E+04</totfact>
</mgrwt>
</event>
<event>
12    1  0.2769346E-001  0.2346885E+03  0.7546771E-02  0.1123487E+00
         21   -1    0    0  504  503  0.00000000000E+00  0.00000000000E+00  0.24696407804E+03  0.24696407804E+03  0.00000000000E+00 0.  1.
         21   -1    0    0  502  504 -0.00000000000E+00 -0.00000000000E+00 -0.24119586319E+03  0.24119586319E+03  0.00000000000E+00 0.  1.
          6    2    1    2  502    0  0.15362840742E+03  0.36312905432E+02  0.70936243493E+02  0.24517475715E+03  0.17366172933E+03 0.  0.
         24    2    3    3    0    0  0.13871518213E+03 -0.30854278657E+02  0.17747608300E+02  0.15808310530E+03  0.66943276868E+02 0.  0.
         -6    2    1    2    0  503 -0.15362840742E+03 -0.36312905432E+02 -0.65168028637E+02  0.24298518409E+03  0.17284274085E+03 0.  0.
        -24    2    5    5    0    0 -0.88852777576E+02 -0.89859504211E+02 -0.33655727501E+02  0.15310617883E+03  0.79619391004E+02 0.  0.
          4    1    4    4  501    0  0.91476363450E+02 -0.41718350697E+02  0.35260962279E+02  0.10654426928E+03  0.00000000000E+00 0. -1.
         -3    1    4    4    0  501  0.47238818678E+02  0.10864072040E+02 -0.17513353979E+02  0.51538836027E+02  0.00000000000E+00 0.  1.
          5    1    3    3  502    0  0.14913225289E+02  0.67167184088E+02  0.53188635192E+02  0.87091651842E+02  0.47000000000E+01 0. -1.
         11    1    6    6    0    0  0.10355424418E+02  0.54860195286E+01 -0.36622356845E+01  0.12277752048E+02  0.00000000000E+00 0. -1.
        -12    1    6    6    0    0 -0.99208201993E+02 -0.95345523740E+02 -0.29993491817E+02  0.14082842679E+03  0.00000000000E+00 0.  1.
         -5    1    5    5    0  503 -0.64775629842E+02  0.53546598780E+02 -0.31512301135E+02  0.89879005252E+02  0.47000000000E+01 0.  1.
<mgrwt>
<rscale>  2 0.23453705E+03</rscale>
<asrwt>0</asrwt>
<pdfrwt beam="1">  1       21 0.37994473E-01 0.23468854E+03</pdfrwt>
<pdfrwt beam="2">  1       21 0.37107056E-01 0.23468854E+03</pdfrwt>
<totfact> 0.45880517E+04</totfact>
</mgrwt>
</event>
<event>
12    1  0.2769346E-001  0.1831262E+03  0.7546771E-02  0.1165077E+00
         21   -1    0    0  504  503  0.00000000000E+00  0.00000000000E+00  0.83701736760E+03  0.83701736760E+03  0.00000000000E+00 0. -1.
         21   -1    0    0  502  504 -0.00000000000E+00 -0.00000000000E+00 -0.10952779192E+03  0.10952779192E+03  0.00000000000E+00 0.  1.
          6    2    1    2  502    0 -0.54745574731E+02  0.18919670440E+02 -0.13410798280E+02  0.18361654814E+03  0.17372436604E+03 0.  0.
         24    2    3    3    0    0  0.12703211913E+02  0.42604076586E+02  0.33987021513E+02  0.97715830821E+02  0.80104850210E+02 0.  0.
         -6    2    1    2    0  503  0.54745574731E+02 -0.18919670440E+02  0.74090037395E+03  0.76292861138E+03  0.17254469005E+03 0.  0.
        -24    2    5    5    0    0  0.88785354293E+02 -0.51202451321E+02  0.45803544929E+03  0.47616121412E+03  0.80177920036E+02 0.  0.
          4    1    4    4  501    0  0.40496788378E+02  0.40611326026E+02  0.39064075202E+02  0.69392158360E+02  0.00000000000E+00 0. -1.
         -3    1    4    4    0  501 -0.27793576465E+02  0.19927505599E+01 -0.50770536894E+01  0.28323672461E+02  0.00000000000E+00 0.  1.
          5    1    3    3  502    0 -0.67448786644E+02 -0.23684406146E+02 -0.47397819792E+02  0.85900717315E+02  0.47000000000E+01 0. -1.
         11    1    6    6    0    0  0.74869519001E+02 -0.55728626986E+02  0.44977599874E+03  0.45935778407E+03  0.00000000000E+00 0. -1.
        -12    1    6    6    0    0  0.13915835291E+02  0.45261756653E+01  0.82594505566E+01  0.16803430052E+02  0.00000000000E+00 0.  1.
         -5    1    5    5    0  503 -0.34039779562E+02  0.32282780880E+02  0.28286492466E+03  0.28676739727E+03  0.47000000000E+01 0.  1.
<mgrwt>
<rscale>  2 0.18284583E+03</rscale>
<asrwt>0</asrwt>
<pdfrwt beam="1">  1       21 0.12877190E+00 0.18312615E+03</pdfrwt>
<pdfrwt beam="2">  1       21 0.16850430E-01 0.18312615E+03</pdfrwt>
<totfact> 0.14130369E+04</totfact>
</mgrwt>
</event>
<event>
12    1  0.2769346E-001  0.1823173E+03  0.7546771E-02  0.1166049E+00
         21   -1    0    0  504  503  0.00000000000E+00  0.00000000000E+00  0.25155654865E+03  0.25155654865E+03  0.00000000000E+00 0.  1.
         21   -1    0    0  502  504 -0.00000000000E+00 -0.00000000000E+00 -0.13089837515E+03  0.13089837515E+03  0.00000000000E+00 0.  1.
          6    2    1    2  502    0 -0.41537765258E+02 -0.25755759498E+02  0.67114545884E+02  0.19243776520E+03  0.17360641151E+03 0.  0.
         24    2    3    3    0    0  0.14264910508E+02  0.16373857653E+02  0.85342594163E+02  0.12002785561E+03  0.81558180810E+02 0.  0.
         -6    2    1    2    0  503  0.41537765258E+02  0.25755759498E+02  0.53543627623E+02  0.19001715860E+03  0.17564411579E+03 0.  0.
        -24    2    5    5    0    0 -0.36363341341E+02 -0.72283394951E+01 -0.20275707638E+01  0.88692031970E+02  0.80545788260E+02 0.  0.
          2    1    4    4  501    0  0.63035212414E+01  0.41559459398E+02  0.14572524037E+02  0.44489116672E+02  0.00000000000E+00 0. -1.
         -1    1    4    4    0  501  0.79613892662E+01 -0.25185601745E+02  0.70770070126E+02  0.75538738935E+02  0.00000000000E+00 0.  1.
          5    1    3    3  502    0 -0.55802675765E+02 -0.42129617151E+02 -0.18228048279E+02  0.72409909597E+02  0.47000000000E+01 0. -1.
         11    1    6    6    0    0 -0.19038678312E+02 -0.39303173324E+02  0.17840118970E+02  0.47174999206E+02  0.00000000000E+00 0. -1.
        -12    1    6    6    0    0 -0.17324663029E+02  0.32074833829E+02 -0.19867689734E+02  0.41517032764E+02  0.00000000000E+00 0.  1.
         -5    1    5    5    0  503  0.77901106599E+02  0.32984098993E+02  0.55571198386E+02  0.10132512663E+03  0.47000000000E+01 0.  1.
<mgrwt>
<rscale>  2 0.18182474E+03</rscale>
<asrwt>0</asrwt>
<pdfrwt beam="1">  1       21 0.38701008E-01 0.18231731E+03</pdfrwt>
<pdfrwt beam="2">  1       21 0.20138212E-01 0.18231731E+03</pdfrwt>
<totfact> 0.14719820E+05</totfact>
</mgrwt>
</event>
<event>
12    1  0.2769346E-001  0.1969588E+03  0.7546771E-02  0.1152599E+00
         21   -1    0    0  504  503  0.00000000000E+00  0.00000000000E+00  0.11761634622E+03  0.11761634622E+03  0.00000000000E+00 0. -1.
         21   -1    0    0  502  504 -0.00000000000E+00 -0.00000000000E+00 -0.34866207270E+03  0.34866207270E+03  0.00000000000E+00 0.  1.
          6    2    1    2  502    0 -0.70883740851E+02 -0.59779895686E+02 -0.17227736136E+03  0.26073890204E+03  0.17235760835E+03 0.  0.
         24    2    3    3    0    0 -0.11231732639E+03 -0.39064045211E+02 -0.10310299412E+03  0.17735382212E+03  0.81749430508E+02 0.  0.
         -6    2    1    2    0  503  0.70883740851E+02  0.59779895686E+02 -0.58768365120E+02  0.20553951689E+03  0.17376602550E+03 0.  0.
        -24    2    5    5    0    0  0.45718931997E+02 -0.33787180853E+02 -0.33003849738E+02  0.10517036989E+03  0.82096030790E+02 0.  0.
          4    1    4    4  501    0  0.81322691234E+01 -0.57067202863E+01  0.58661164498E+01  0.11537407843E+02  0.00000000000E+00 0. -1.
         -3    1    4    4    0  501 -0.12044959551E+03 -0.33357324925E+02 -0.10896911057E+03  0.16581641428E+03  0.00000000000E+00 0.  1.
          5    1    3    3  502    0  0.41433585535E+02 -0.20715850475E+02 -0.69174367234E+02  0.83385079921E+02  0.47000000000E+01 0. -1.
         13    1    6    6    0    0 -0.10565693980E+02 -0.31916057880E+02 -0.35378270216E+02  0.48804617029E+02  0.00000000000E+00 0. -1.
        -14    1    6    6    0    0  0.56284625977E+02 -0.18711229728E+01  0.23744204784E+01  0.56365752857E+02  0.00000000000E+00 0.  1.
         -5    1    5    5    0  503  0.25164808854E+02  0.93567076539E+02 -0.25764515382E+02  0.10036914700E+03  0.47000000000E+01 0.  1.
<mgrwt>
<rscale>  2 0.19664771E+03</rscale>
<asrwt>0</asrwt>
<pdfrwt beam="1">  1       21 0.18094823E-01 0.19695881E+03</pdfrwt>
<pdfrwt beam="2">  1       21 0.53640317E-01 0.19695881E+03</pdfrwt>
<totfact> 0.91271639E+04</totfact>
</mgrwt>
</event>
<event>
12    1  0.2769346E-001  0.1794736E+03  0.7546771E-02  0.1168474E+00
         21   -1    0    0  504  503  0.00000000000E+00  0.00000000000E+00  0.73121338828E+03  0.73121338828E+03  0.00000000000E+00 0. -1.
         21   -1    0    0  502  504 -0.00000000000E+00 -0.00000000000E+00 -0.72164529595E+02  0.72164529595E+02  0.00000000000E+00 0. -1.
          6    2    1    2  502    0  0.40762743263E+02 -0.16527233496E+02  0.78455331018E+02  0.19587239253E+03  0.17400001294E+03 0.  0.
         24    2    3    3    0    0 -0.67141624459E+01  0.95202274934E+01 -0.20955349955E+02  0.82571464502E+02  0.79013956675E+02 0.  0.
         -6    2    1    2    0  503 -0.40762743263E+02  0.16527233496E+02  0.58059352767E+03  0.60750552535E+03  0.17331868992E+03 0.  0.
        -24    2    5    5    0    0 -0.29693107625E+02 -0.56860611328E+02  0.29676307528E+03  0.31409433213E+03  0.80449467794E+02 0.  0.
          4    1    4    4  501    0 -0.13122008262E+02 -0.32106651223E+02  0.17407210274E+01  0.34728291972E+02  0.00000000000E+00 0. -1.
         -3    1    4    4    0  501  0.64078458164E+01  0.41626878717E+02 -0.22696070982E+02  0.47843172530E+02  0.00000000000E+00 0.  1.
          5    1    3    3  502    0  0.47476905709E+02 -0.26047460990E+02  0.99410680972E+02  0.11330092802E+03  0.47000000000E+01 0. -1.
         11    1    6    6    0    0 -0.15023616170E+02  0.74307854683E+01  0.17343505758E+03  0.17424306245E+03  0.00000000000E+00 0. -1.
        -12    1    6    6    0    0 -0.14669491455E+02 -0.64291396796E+02  0.12332801770E+03  0.13985126968E+03  0.00000000000E+00 0.  1.
         -5    1    5    5    0  503 -0.11069635638E+02  0.73387844824E+02  0.28383045239E+03  0.29341119322E+03  0.47000000000E+01 0.  1.
<mgrwt>
<rscale>  2 0.17930821E+03</rscale>
<asrwt>0</asrwt>
<pdfrwt beam="1">  1       21 0.11249436E+00 0.17947355E+03</pdfrwt>
<pdfrwt beam="2">  1       21 0.11102236E-01 0.17947355E+03</pdfrwt>
<totfact> 0.41994107E+04</totfact>
</mgrwt>
</event>
<event>
12    1  0.2769346E-001  0.2341920E+03  0.7546771E-02  0.1123819E+00
         21   -1    0    0  504  503  0.00000000000E+00  0.00000000000E+00  0.23462414440E+03  0.23462414440E+03  0.00000000000E+00 0. -1.
         21   -1    0    0  502  504 -0.00000000000E+00 -0.00000000000E+00 -0.23320791010E+03  0.23320791010E+03  0.00000000000E+00 0. -1.
          6    2    1    2  502    0 -0.70757604307E+02  0.13958017333E+03  0.73503773245E+00  0.23363902326E+03  0.17348599238E+03 0.  0.
         24    2    3    3    0    0 -0.11378593524E+03  0.11037642592E+03  0.19627689689E+02  0.17811138668E+03  0.78792292815E+02 0.  0.
         -6    2    1    2    0  503  0.70757604307E+02 -0.13958017333E+03  0.68119656499E+00  0.23419303124E+03  0.17423159443E+03 0.  0.
        -24    2    5    5    0    0 -0.61364349136E+01 -0.13226483980E+03  0.24063043164E+02  0.15335363415E+03  0.73530016863E+02 0.  0.
          4    1    4    4  501    0 -0.10896479594E+03  0.10464434259E+03  0.40104411481E+02  0.15630780214E+03  0.00000000000E+00 0. -1.
         -3    1    4    4    0  501 -0.48211392979E+01  0.57320833261E+01 -0.20476721792E+02  0.21803584539E+02  0.00000000000E+00 0.  1.
          5    1    3    3  502    0  0.43028330929E+02  0.29203747418E+02 -0.18892651956E+02  0.55527636576E+02  0.47000000000E+01 0. -1.
         13    1    6    6    0    0 -0.12009060420E+02 -0.43198639182E+02 -0.25167931464E+02  0.51417552776E+02  0.00000000000E+00 0. -1.
        -14    1    6    6    0    0  0.58726255060E+01 -0.89066200617E+02  0.49230974629E+02  0.10193608137E+03  0.00000000000E+00 0.  1.
         -5    1    5    5    0  503  0.76894039220E+02 -0.73153335354E+01 -0.23381846599E+02  0.80839397095E+02  0.47000000000E+01 0.  1.
<mgrwt>
<rscale>  2 0.23405337E+03</rscale>
<asrwt>0</asrwt>
<pdfrwt beam="1">  1       21 0.36096022E-01 0.23419204E+03</pdfrwt>
<pdfrwt beam="2">  1       21 0.35878140E-01 0.23419204E+03</pdfrwt>
<totfact> 0.54419191E+04</totfact>
</mgrwt>
</event>
<event>
12    1  0.2769346E-001  0.1825414E+03  0.7546771E-02  0.1165636E+00
         21   -1    0    0  504  503  0.00000000000E+00  0.00000000000E+00  0.12048313374E+04  0.12048313374E+04  0.00000000000E+00 0. -1.
         21   -1    0    0  502  504 -0.00000000000E+00 -0.00000000000E+00 -0.45157077166E+02  0.45157077166E+02  0.00000000000E+00 0. -1.
          6    2    1    2  502    0 -0.49918424146E+02  0.19657675410E+02  0.18995482884E+03  0.26344679249E+03  0.17447951800E+03 0.  0.
         24    2    3    3    0    0 -0.17679943103E+02  0.75179781201E+02  0.15320061704E+03  0.18931861986E+03  0.80040807570E+02 0.  0.
         -6    2    1    2    0  503  0.49918424146E+02 -0.19657675410E+02  0.96971943141E+03  0.98654162209E+03  0.17329259420E+03 0.  0.
        -24    2    5    5    0    0 -0.30406278697E+02 -0.18493162853E+02  0.67056914283E+03  0.67675718231E+03  0.84087868544E+02 0.  0.
          4    1    4    4  501    0 -0.43955223042E+02  0.34540540994E+02  0.11426329866E+03  0.12720539307E+03  0.00000000000E+00 0. -1.
         -3    1    4    4    0  501  0.26275279939E+02  0.40639240207E+02  0.38937318377E+02  0.62113226795E+02  0.00000000000E+00 0.  1.
          5    1    3    3  502    0 -0.32238481043E+02 -0.55522105791E+02  0.36754211807E+02  0.74128172626E+02  0.47000000000E+01 0. -1.
         11    1    6    6    0    0  0.28483961469E+02 -0.11928078662E+02  0.18104187346E+03  0.18365667717E+03  0.00000000000E+00 0. -1.
        -12    1    6    6    0    0 -0.58890240166E+02 -0.65650841914E+01  0.48952726936E+03  0.49310050514E+03  0.00000000000E+00 0.  1.
         -5    1    5    5    0  503  0.80324702843E+02 -0.11645125571E+01  0.29915028858E+03  0.30978443979E+03  0.47000000000E+01 0.  1.
<mgrwt>
<rscale>  2 0.18225723E+03</rscale>
<asrwt>0</asrwt>
<pdfrwt beam="1">  1       21 0.18535864E+00 0.18254143E+03</pdfrwt>
<pdfrwt beam="2">  1       21 0.69472435E-02 0.18254143E+03</pdfrwt>
<totfact> 0.25843537E+04</totfact>
</mgrwt>
</event>
<event>
12    1  0.2769346E-001  0.1735219E+03  0.7546771E-02  0.1174505E+00
         21   -1    0    0  504  503  0.00000000000E+00  0.00000000000E+00  0.59317596578E+03  0.59317596578E+03  0.00000000000E+00 0.  1.
         21   -1    0    0  502  504 -0.00000000000E+00 -0.00000000000E+00 -0.95436825447E+02  0.95436825447E+02  0.00000000000E+00 0.  1.
          6    2    1    2  502    0  0.14331007641E+02  0.16863411404E+01  0.12868446675E+02  0.17399838791E+03  0.17292085053E+03 0.  0.
         24    2    3    3    0    0  0.44543626059E+02  0.21164790645E+02 -0.45299783823E+02  0.10545755813E+03  0.81468663713E+02 0.  0.
         -6    2    1    2    0  503 -0.14331007641E+02 -0.16863411404E+01  0.48487069366E+03  0.51461440332E+03  0.17181435625E+03 0.  0.
        -24    2    5    5    0    0  0.10052831122E+02  0.45985635311E+02  0.15855071554E+03  0.18389699064E+03  0.80399226987E+02 0.  0.
          4    1    4    4  501    0  0.64661511774E+02  0.19193479429E+02 -0.15104284878E+02  0.69120475831E+02  0.00000000000E+00 0. -1.
         -3    1    4    4    0  501 -0.20117885715E+02  0.19713112159E+01 -0.30195498945E+02  0.36337082300E+02  0.00000000000E+00 0.  1.
          5    1    3    3  502    0 -0.30212618418E+02 -0.19478449504E+02  0.58168230498E+02  0.68540829773E+02  0.47000000000E+01 0. -1.
         11    1    6    6    0    0 -0.17024175941E+02  0.60131290209E+02  0.11082664599E+03  0.12723262196E+03  0.00000000000E+00 0. -1.
        -12    1    6    6    0    0  0.27077007063E+02 -0.14145654898E+02  0.47724069551E+02  0.56664368685E+02  0.00000000000E+00 0.  1.
         -5    1    5    5    0  503 -0.24383838763E+02 -0.47671976452E+02  0.32631997812E+03  0.33071741268E+03  0.47000000000E+01 0.  1.
<mgrwt>
<rscale>  2 0.17324556E+03</rscale>
<asrwt>0</asrwt>
<pdfrwt beam="1">  1       21 0.91257839E-01 0.17352188E+03</pdfrwt>
<pdfrwt beam="2">  1       21 0.14682589E-01 0.17352188E+03</pdfrwt>
<totfact> 0.41908115E+04</totfact>
</mgrwt>
</event>
<event>
12    1  0.2769346E-001  0.1993954E+03  0.7546771E-02  0.1150309E+00
         21   -1    0    0  504  503  0.00000000000E+00  0.00000000000E+00  0.33446334663E+03  0.33446334663E+03  0.00000000000E+00 0. -1.
         21   -1    0    0  502  504 -0.00000000000E+00 -0.00000000000E+00 -0.16454965616E+03  0.16454965616E+03  0.00000000000E+00 0. -1.
          6    2    1    2  502    0 -0.91455126337E+02  0.35961810104E+02  0.21669562437E+03  0.29447497575E+03  0.17349704839E+03 0.  0.
         24    2    3    3    0    0 -0.30767952340E+02 -0.37709811838E+02  0.56526644198E+02  0.10796322497E+03  0.78051903512E+02 0.  0.
         -6    2    1    2    0  503  0.91455126337E+02 -0.35961810104E+02 -0.46781933904E+02  0.20453802704E+03  0.17317610472E+03 0.  0.
        -24    2    5    5    0    0  0.12267184924E+03 -0.61121045635E+02 -0.38898828137E+02  0.16340769422E+03  0.80029937425E+02 0.  0.
          4    1    4    4  501    0  0.14697027537E+02 -0.18109740010E+02  0.53497824321E+02  0.58360795991E+02  0.00000000000E+00 0. -1.
         -3    1    4    4    0  501 -0.45464979877E+02 -0.19600071828E+02  0.30288198770E+01  0.49602428980E+02  0.00000000000E+00 0.  1.
          5    1    3    3  502    0 -0.60687173997E+02  0.73671621942E+02  0.16016898017E+03  0.18651175077E+03  0.47000000000E+01 0. -1.
         11    1    6    6    0    0  0.29879693535E+02 -0.53360520828E+02 -0.34434595037E+02  0.70184632251E+02  0.00000000000E+00 0. -1.
        -12    1    6    6    0    0  0.92792155706E+02 -0.77605248069E+01 -0.44642330997E+01  0.93223061969E+02  0.00000000000E+00 0.  1.
         -5    1    5    5    0  503 -0.31216722903E+02  0.25159235531E+02 -0.78831057671E+01  0.41130332820E+02  0.47000000000E+01 0.  1.
<mgrwt>
<rscale>  2 0.19932554E+03</rscale>
<asrwt>0</asrwt>
<pdfrwt beam="1">  1       21 0.51455900E-01 0.19939538E+03</pdfrwt>
<pdfrwt beam="2">  1       21 0.25315332E-01 0.19939538E+03</pdfrwt>
<totfact> 0.52897429E+04</totfact>
</mgrwt>
</event>
<event>
12    1  0.2769346E-001  0.1972527E+03  0.7546771E-02  0.1152325E+00
         21   -1    0    0  504  503  0.00000000000E+00  0.00000000000E+00  0.38950859305E+03  0.38950859305E+03  0.00000000000E+00 0. -1.
         21   -1    0    0  502  504 -0.00000000000E+00 -0.00000000000E+00 -0.11533620199E+03  0.11533620199E+03  0.00000000000E+00 0. -1.
          6    2    1    2  502    0  0.57257373369E+02  0.74605900647E+02  0.43342699784E+02  0.20195846463E+03  0.17339026673E+03 0.  0.
         24    2    3    3    0    0  0.94596995950E+02  0.32254096477E+02  0.61655522173E+02  0.14241543654E+03  0.80571922952E+02 0.  0.
         -6    2    1    2    0  503 -0.57257373369E+02 -0.74605900647E+02  0.23082969128E+03  0.30288633040E+03  0.17208525664E+03 0.  0.
        -24    2    5    5    0    0 -0.30724407727E+02  0.53845332022E+01  0.19193151493E+03  0.20994750162E+03  0.79166057011E+02 0.  0.
          2    1    4    4  501    0  0.81408073111E+02  0.22968833791E+01  0.71353676307E+02  0.10827694659E+03  0.00000000000E+00 0. -1.
         -1    1    4    4    0  501  0.13188922839E+02  0.29957213098E+02 -0.96981541342E+01  0.34138489947E+02  0.00000000000E+00 0.  1.
          5    1    3    3  502    0 -0.37339622580E+02  0.42351804170E+02 -0.18312822389E+02  0.59543028095E+02  0.47000000000E+01 0. -1.
         11    1    6    6    0    0 -0.26337298098E+02 -0.35304259340E+02  0.93932926406E+02  0.10374699351E+03  0.00000000000E+00 0. -1.
        -12    1    6    6    0    0 -0.43871096296E+01  0.40688792542E+02  0.97998588525E+02  0.10620050811E+03  0.00000000000E+00 0.  1.
         -5    1    5    5    0  503 -0.26532965642E+02 -0.79990433849E+02  0.38898176353E+02  0.92938828789E+02  0.47000000000E+01 0.  1.
<mgrwt>
<rscale>  2 0.19696555E+03</rscale>
<asrwt>0</asrwt>
<pdfrwt beam="1">  1       21 0.59924398E-01 0.19725271E+03</pdfrwt>
<pdfrwt beam="2">  1       21 0.17744031E-01 0.19725271E+03</pdfrwt>
<totfact> 0.74752106E+04</totfact>
</mgrwt>
</event>
<event>
12    1  0.2769346E-001  0.1743796E+03  0.7546771E-02  0.1173393E+00
         21   -1    0    0  504  503  0.00000000000E+00  0.00000000000E+00  0.22530519968E+03  0.22530519968E+03  0.00000000000E+00 0. -1.
         21   -1    0    0  502  504 -0.00000000000E+00 -0.00000000000E+00 -0.28257933143E+03  0.28257933143E+03  0.00000000000E+00 0. -1.
          6    2    1    2  502    0  0.55629449649E+01 -0.20469612563E+02 -0.21224153353E+03  0.27459682317E+03  0.17293639105E+03 0.  0.
         24    2    3    3    0    0  0.62676102011E+02  0.11308425971E+02 -0.16334770660E+03  0.19283832054E+03  0.80299255026E+02 0.  0.
         -6    2    1    2    0  503 -0.55629449649E+01  0.20469612563E+02  0.15496740178E+03  0.23328770793E+03  0.17308468350E+03 0.  0.
        -24    2    5    5    0    0 -0.64384286616E+02 -0.16651916727E+02  0.82179276522E+02  0.13250001350E+03  0.79876137831E+02 0.  0.
          4    1    4    4  501    0  0.48218613579E+02  0.19581608084E+02 -0.16772654819E+03  0.17561511620E+03  0.00000000000E+00 0. -1.
         -3    1    4    4    0  501  0.14457488433E+02 -0.82731821128E+01  0.43788415932E+01  0.17223204340E+02  0.00000000000E+00 0.  1.
          5    1    3    3  502    0 -0.57113157046E+02 -0.31778038535E+02 -0.48893826927E+02  0.81758502631E+02  0.47000000000E+01 0. -1.
         11    1    6    6    0    0 -0.43383207136E+02  0.18980060921E+02  0.77572759051E+02  0.90883872721E+02  0.00000000000E+00 0. -1.
        -12    1    6    6    0    0 -0.21001079480E+02 -0.35631977648E+02  0.46065174717E+01  0.41616140782E+02  0.00000000000E+00 0.  1.
         -5    1    5    5    0  503  0.58821341651E+02  0.37121529290E+02  0.72788125256E+02  0.10078769443E+03  0.47000000000E+01 0.  1.
<mgrwt>
<rscale>  2 0.17434283E+03</rscale>
<asrwt>0</asrwt>
<pdfrwt beam="1">  1       21 0.34662338E-01 0.17437964E+03</pdfrwt>
<pdfrwt beam="2">  1       21 0.43473743E-01 0.17437964E+03</pdfrwt>
<totfact> 0.41175312E+04</totfact>
</mgrwt>
</event>
<event>
12    1  0.2769346E-001  0.1826313E+03  0.7546771E-02  0.1165927E+00
         21   -1    0    0  504  503  0.00000000000E+00  0.00000000000E+00  0.43549938230E+03  0.43549938230E+03  0.00000000000E+00 0.  1.
         21   -1    0    0  502  504 -0.00000000000E+00 -0.00000000000E+00 -0.19875208973E+03  0.19875208973E+03  0.00000000000E+00 0.  1.
          6    2    1    2  502    0 -0.49952491867E+02  0.79916509444E+01 -0.13106102205E+03  0.22479145497E+03  0.17548529510E+03 0.  0.
         24    2    3    3    0    0 -0.91695994783E+02  0.39356965681E+02 -0.10210768241E+03  0.16490248369E+03  0.82521052550E+02 0.  0.
         -6    2    1    2    0  503  0.49952491867E+02 -0.79916509444E+01  0.36780831462E+03  0.40946001706E+03  0.17267145491E+03 0.  0.
        -24    2    5    5    0    0  0.49926819734E+02 -0.51134857065E+02  0.13084582715E+03  0.16855620356E+03  0.78632705275E+02 0.  0.
          2    1    4    4  501    0 -0.63844505842E+02  0.58213344129E+02 -0.42098697806E+02  0.96110429808E+02  0.00000000000E+00 0. -1.
         -1    1    4    4    0  501 -0.27851488941E+02 -0.18856378449E+02 -0.60008984603E+02  0.68792053884E+02  0.00000000000E+00 0.  1.
          5    1    3    3  502    0  0.41743502916E+02 -0.31365314736E+02 -0.28953339641E+02  0.59888971277E+02  0.47000000000E+01 0. -1.
         13    1    6    6    0    0  0.45083887891E+02  0.88344673791E+01  0.52224300095E+02  0.69555605681E+02  0.00000000000E+00 0. -1.
        -14    1    6    6    0    0  0.48429318431E+01 -0.59969324444E+02  0.78621527055E+02  0.99000597875E+02  0.00000000000E+00 0.  1.
         -5    1    5    5    0  503  0.25672132959E-01  0.43143206121E+02  0.23696248747E+03  0.24090381351E+03  0.47000000000E+01 0.  1.
<mgrwt>
<rscale>  2 0.18195205E+03</rscale>
<asrwt>0</asrwt>
<pdfrwt beam="1">  1       21 0.66999905E-01 0.18263134E+03</pdfrwt>
<pdfrwt beam="2">  1       21 0.30577245E-01 0.18263134E+03</pdfrwt>
<totfact> 0.21069676E+04</totfact>
</mgrwt>
</event>
<event>
12    1  0.2769346E-001  0.1894105E+03  0.7546771E-02  0.1159171E+00
         21   -1    0    0  504  503  0.00000000000E+00  0.00000000000E+00  0.29480590005E+02  0.29480590005E+02  0.00000000000E+00 0. -1.
         21   -1    0    0  502  504 -0.00000000000E+00 -0.00000000000E+00 -0.26100023490E+04  0.26100023490E+04  0.00000000000E+00 0. -1.
          6    2    1    2  502    0 -0.17061468029E+02 -0.72638598220E+02 -0.22549207167E+04  0.22627968914E+04  0.17324801149E+03 0.  0.
         24    2    3    3    0    0  0.13005634645E+02 -0.10007590680E+03 -0.11362510054E+04  0.11433770195E+04  0.77848107587E+02 0.  0.
         -6    2    1    2    0  503  0.17061468029E+02  0.72638598220E+02 -0.32560104231E+03  0.37668604762E+03  0.17409445733E+03 0.  0.
        -24    2    5    5    0    0  0.13815653646E+02  0.10886087247E+03 -0.30640868412E+03  0.33529734052E+03  0.80600639040E+02 0.  0.
          2    1    4    4  501    0  0.36936283878E+02 -0.23744369187E+02 -0.54025834386E+03  0.54203981610E+03  0.00000000000E+00 0. -1.
         -1    1    4    4    0  501 -0.23930649233E+02 -0.76331537615E+02 -0.59599266152E+03  0.60133720340E+03  0.00000000000E+00 0.  1.
          5    1    3    3  502    0 -0.30067102674E+02  0.27437308582E+02 -0.11186697113E+04  0.11194198719E+04  0.47000000000E+01 0. -1.
         13    1    6    6    0    0 -0.11654110947E+02 -0.63974847143E+01 -0.11267531642E+02  0.17427087592E+02  0.00000000000E+00 0. -1.
        -14    1    6    6    0    0  0.25469764593E+02  0.11525835718E+03 -0.29514115248E+03  0.31787025292E+03  0.00000000000E+00 0.  1.
         -5    1    5    5    0  503  0.32458143824E+01 -0.36222274248E+02 -0.19192358192E+02  0.41388707103E+02  0.47000000000E+01 0.  1.
<mgrwt>
<rscale>  2 0.18921578E+03</rscale>
<asrwt>0</asrwt>
<pdfrwt beam="1">  1       21 0.45354764E-02 0.18941051E+03</pdfrwt>
<pdfrwt beam="2">  1       21 0.40153873E+00 0.18941051E+03</pdfrwt>
<totfact> 0.27161158E+03</totfact>
</mgrwt>
</event>
<event>
12    1  0.2769346E-001  0.3319649E+03  0.7546771E-02  0.1071370E+00
         21   -1    0    0  504  503  0.00000000000E+00  0.00000000000E+00  0.83041066738E+03  0.83041066738E+03  0.00000000000E+00 0. -1.
         21   -1    0    0  502  504 -0.00000000000E+00 -0.00000000000E+00 -0.12898817790E+03  0.12898817790E+03  0.00000000000E+00 0.  1.
          6    2    1    2  502    0  0.47846298410E+02  0.26645195692E+03  0.36394292031E+03  0.48601407048E+03  0.17455461564E+03 0.  0.
         24    2    3    3    0    0  0.53712520009E+02  0.57640951541E+02  0.13620749688E+03  0.17694779666E+03  0.80935322560E+02 0.  0.
         -6    2    1    2    0  503 -0.47846298410E+02 -0.26645195692E+03  0.33747956917E+03  0.47338477480E+03  0.19213217270E+03 0.  0.
        -24    2    5    5    0    0 -0.18840624176E+02 -0.77984327771E+02  0.22389951586E+03  0.25138501155E+03  0.81405812631E+02 0.  0.
          2    1    4    4  501    0  0.34992405052E+02  0.11948681502E+02  0.11907130524E+03  0.12468045209E+03  0.00000000000E+00 0. -1.
         -1    1    4    4    0  501  0.18720114957E+02  0.45692270039E+02  0.17136191640E+02  0.52267344578E+02  0.00000000000E+00 0.  1.
          5    1    3    3  502    0 -0.58662215990E+01  0.20881100538E+03  0.22773542343E+03  0.30906627381E+03  0.47000000000E+01 0. -1.
         11    1    6    6    0    0  0.30582657383E+02 -0.35457874422E+02  0.69708022365E+02  0.83974806776E+02  0.00000000000E+00 0. -1.
        -12    1    6    6    0    0 -0.49423281559E+02 -0.42526453349E+02  0.15419149350E+03  0.16741020477E+03  0.00000000000E+00 0.  1.
         -5    1    5    5    0  503 -0.29005674233E+02 -0.18846762915E+03  0.11358005331E+03  0.22199976326E+03  0.47000000000E+01 0.  1.
<mgrwt>
<rscale>  2 0.32947340E+03</rscale>
<asrwt>0</asrwt>
<pdfrwt beam="1">  1       21 0.12775548E+00 0.33196489E+03</pdfrwt>
<pdfrwt beam="2">  1       21 0.19844336E-01 0.33196489E+03</pdfrwt>
<totfact> 0.97789042E+03</totfact>
</mgrwt>
</event>
<event>
12    1  0.2769346E-001  0.2003017E+03  0.7546771E-02  0.1150082E+00
         21   -1    0    0  504  503  0.00000000000E+00  0.00000000000E+00  0.50865034982E+03  0.50865034982E+03  0.00000000000E+00 0.  1.
         21   -1    0    0  502  504 -0.00000000000E+00 -0.00000000000E+00 -0.34543934601E+03  0.34543934601E+03  0.00000000000E+00 0.  1.
          6    2    1    2  502    0  0.54460970132E+02  0.84180464953E+02 -0.29417384998E+03  0.35589189167E+03  0.17340252765E+03 0.  0.
         24    2    3    3    0    0 -0.36501482623E+02  0.21842169673E+02 -0.98387720217E+02  0.13113751579E+03  0.75547772618E+02 0.  0.
         -6    2    1    2    0  503 -0.54460970132E+02 -0.84180464953E+02  0.45738485380E+03  0.49819780415E+03  0.17014052908E+03 0.  0.
        -24    2    5    5    0    0 -0.14582916541E+02  0.18624003371E+02  0.18747243131E+03  0.20659220805E+03  0.83515944406E+02 0.  0.
          2    1    4    4  501    0 -0.51401807359E+02 -0.77657959606E+01 -0.71810979568E+02  0.88652524911E+02  0.00000000000E+00 0. -1.
         -1    1    4    4    0  501  0.14900324736E+02  0.29607965633E+02 -0.26576740650E+02  0.42484990876E+02  0.00000000000E+00 0.  1.
          5    1    3    3  502    0  0.90962452755E+02  0.62338295280E+02 -0.19578612977E+03  0.22475437588E+03  0.47000000000E+01 0. -1.
         11    1    6    6    0    0  0.18052510717E+02  0.32596180523E+02  0.39017343693E+02  0.53951434056E+02  0.00000000000E+00 0. -1.
        -12    1    6    6    0    0 -0.32635427257E+02 -0.13972177152E+02  0.14845508762E+03  0.15264077399E+03  0.00000000000E+00 0.  1.
         -5    1    5    5    0  503 -0.39878053592E+02 -0.10280446832E+03  0.26991242249E+03  0.29160559610E+03  0.47000000000E+01 0.  1.
<mgrwt>
<rscale>  2 0.19959369E+03</rscale>
<asrwt>0</asrwt>
<pdfrwt beam="1">  1       21 0.78253900E-01 0.20030173E+03</pdfrwt>
<pdfrwt beam="2">  1       21 0.53144514E-01 0.20030173E+03</pdfrwt>
<totfact> 0.48184225E+03</totfact>
</mgrwt>
</event>
<event>
12    1  0.2769346E-001  0.3132392E+03  0.7546771E-02  0.1079273E+00
         21   -1    0    0  504  503  0.00000000000E+00  0.00000000000E+00  0.43484910310E+03  0.43484910310E+03  0.00000000000E+00 0. -1.
         21   -1    0    0  502  504 -0.00000000000E+00 -0.00000000000E+00 -0.38773854171E+03  0.38773854171E+03  0.00000000000E+00 0.  1.
          6    2    1    2  502    0  0.15966572503E+03  0.20736586318E+03 -0.24460347598E+03  0.39742884513E+03  0.17211938159E+03 0.  0.
         24    2    3    3    0    0  0.22550665148E+02  0.10882024610E+03 -0.15380023112E+03  0.20565007266E+03  0.79291000960E+02 0.  0.
         -6    2    1    2    0  503 -0.15966572503E+03 -0.20736586318E+03  0.29171403736E+03  0.42515879968E+03  0.16483076288E+03 0.  0.
        -24    2    5    5    0    0 -0.12845549557E+03 -0.17025368946E+03  0.29825279790E+03  0.37600356344E+03  0.83287544978E+02 0.  0.
          4    1    4    4  501    0  0.15138109435E+02  0.45799342928E+02 -0.12864421881E+03  0.13739023693E+03  0.00000000000E+00 0. -1.
         -3    1    4    4    0  501  0.74125557129E+01  0.63020903171E+02 -0.25156012307E+02  0.68259835730E+02  0.00000000000E+00 0.  1.
          5    1    3    3  502    0  0.13711505989E+03  0.98545617076E+02 -0.90803244858E+02  0.19177877247E+03  0.47000000000E+01 0. -1.
         11    1    6    6    0    0 -0.78167156812E+02 -0.12384414437E+03  0.13578469426E+03  0.19971219215E+03  0.00000000000E+00 0. -1.
        -12    1    6    6    0    0 -0.50288338755E+02 -0.46409545087E+02  0.16246810364E+03  0.17629137128E+03  0.00000000000E+00 0.  1.
         -5    1    5    5    0  503 -0.31210229465E+02 -0.37112173717E+02 -0.65387605312E+01  0.49155236248E+02  0.47000000000E+01 0.  1.
<mgrwt>
<rscale>  2 0.31224830E+03</rscale>
<asrwt>0</asrwt>
<pdfrwt beam="1">  1       21 0.66899862E-01 0.31323925E+03</pdfrwt>
<pdfrwt beam="2">  1       21 0.59652083E-01 0.31323925E+03</pdfrwt>
<totfact> 0.49848233E+03</totfact>
</mgrwt>
</event>
<event>
12    1  0.2769346E-001  0.2239777E+03  0.7546771E-02  0.1131289E+00
         21   -1    0    0  504  503  0.00000000000E+00  0.00000000000E+00  0.96851827930E+03  0.96851827930E+03  0.00000000000E+00 0. -1.
         21   -1    0    0  502  504 -0.00000000000E+00 -0.00000000000E+00 -0.13451234465E+03  0.13451234465E+03  0.00000000000E+00 0.  1.
          6    2    1    2  502    0  0.16254634345E+02 -0.14263303530E+03 -0.15932749616E+02  0.22454366444E+03  0.17192326438E+03 0.  0.
         24    2    3    3    0    0 -0.34462997179E+02 -0.84882891592E+02 -0.60417897263E+02  0.13561461628E+03  0.79675582082E+02 0.  0.
         -6    2    1    2    0  503 -0.16254634345E+02  0.14263303530E+03  0.84993868427E+03  0.87848695951E+03  0.16951452772E+03 0.  0.
        -24    2    5    5    0    0  0.14917206144E+02  0.14934618013E+03  0.53582900560E+03  0.56272798467E+03  0.83804874177E+02 0.  0.
          2    1    4    4  501    0 -0.26423731727E+02  0.24197725357E+01  0.39823201772E+01  0.26831469798E+02  0.00000000000E+00 0. -1.
         -1    1    4    4    0  501 -0.80392654522E+01 -0.87302664127E+02 -0.64400217440E+02  0.10878314648E+03  0.00000000000E+00 0.  1.
          5    1    3    3  502    0  0.50717631524E+02 -0.57750143705E+02  0.44485147647E+02  0.88929048159E+02  0.47000000000E+01 0. -1.
         11    1    6    6    0    0  0.18188693849E+02  0.15135912266E+03  0.53738005850E+03  0.55858548125E+03  0.00000000000E+00 0. -1.
        -12    1    6    6    0    0 -0.32714877051E+01 -0.20129425349E+01 -0.15510529016E+01  0.41425034167E+01  0.00000000000E+00 0.  1.
         -5    1    5    5    0  503 -0.31171840489E+02 -0.67131448294E+01  0.31410967867E+03  0.31575897484E+03  0.47000000000E+01 0.  1.
<mgrwt>
<rscale>  2 0.22351537E+03</rscale>
<asrwt>0</asrwt>
<pdfrwt beam="1">  1       21 0.14900281E+00 0.22397769E+03</pdfrwt>
<pdfrwt beam="2">  1       21 0.20694207E-01 0.22397769E+03</pdfrwt>
<totfact> 0.64296360E+03</totfact>
</mgrwt>
</event>
<event>
12    1  0.2769346E-001  0.1927557E+03  0.7546771E-02  0.1156224E+00
         21   -1    0    0  504  503  0.00000000000E+00  0.00000000000E+00  0.32886323850E+03  0.32886323850E+03  0.00000000000E+00 0. -1.
         21   -1    0    0  502  504 -0.00000000000E+00 -0.00000000000E+00 -0.23323872967E+03  0.23323872967E+03  0.00000000000E+00 0. -1.
          6    2    1    2  502    0 -0.39383127847E+02  0.77038567762E+02 -0.15443425375E+03  0.24699127603E+03  0.17224627724E+03 0.  0.
         24    2    3    3    0    0 -0.16968831198E+02  0.11762328931E+03 -0.12981333901E+03  0.19428643982E+03  0.82295433001E+02 0.  0.
         -6    2    1    2    0  503  0.39383127847E+02 -0.77038567762E+02  0.25005876258E+03  0.31511069214E+03  0.17111222012E+03 0.  0.
        -24    2    5    5    0    0  0.23544315626E+02 -0.10720821482E+03  0.24499894391E+03  0.28034336062E+03  0.80746400564E+02 0.  0.
          2    1    4    4  501    0  0.18536737991E+02  0.10396138408E+02 -0.54580735433E+02  0.58572579161E+02  0.00000000000E+00 0. -1.
         -1    1    4    4    0  501 -0.35505569189E+02  0.10722715090E+03 -0.75232603574E+02  0.13571386066E+03  0.00000000000E+00 0.  1.
          5    1    3    3  502    0 -0.22414296649E+02 -0.40584721549E+02 -0.24620914748E+02  0.52704836215E+02  0.47000000000E+01 0. -1.
         11    1    6    6    0    0  0.32700334634E+02 -0.11814712692E+02  0.10563616134E+03  0.11121105117E+03  0.00000000000E+00 0. -1.
        -12    1    6    6    0    0 -0.91560190075E+01 -0.95393502129E+02  0.13936278257E+03  0.16913230944E+03  0.00000000000E+00 0.  1.
         -5    1    5    5    0  503  0.15838812221E+02  0.30169647059E+02  0.50598186785E+01  0.34767331524E+02  0.47000000000E+01 0.  1.
<mgrwt>
<rscale>  2 0.19250200E+03</rscale>
<asrwt>0</asrwt>
<pdfrwt beam="1">  1       21 0.50594344E-01 0.19275568E+03</pdfrwt>
<pdfrwt beam="2">  1       21 0.35882881E-01 0.19275568E+03</pdfrwt>
<totfact> 0.27842034E+04</totfact>
</mgrwt>
</event>
<event>
12    1  0.2769346E-001  0.1852086E+03  0.7546771E-02  0.1162965E+00
         21   -1    0    0  504  503  0.00000000000E+00  0.00000000000E+00  0.23251711658E+03  0.23251711658E+03  0.00000000000E+00 0. -1.
         21   -1    0    0  502  504 -0.00000000000E+00 -0.00000000000E+00 -0.30175719337E+03  0.30175719337E+03  0.00000000000E+00 0. -1.
          6    2    1    2  502    0  0.66381862900E+02  0.46525248469E+01  0.15661572402E+03  0.24219030456E+03  0.17233531531E+03 0.  0.
         24    2    3    3    0    0  0.75054256849E+02 -0.32894375271E+01  0.18250687804E+03  0.21336796879E+03  0.81075074497E+02 0.  0.
         -6    2    1    2    0  503 -0.66381862900E+02 -0.46525248469E+01 -0.22585580081E+03  0.29208400539E+03  0.17284104181E+03 0.  0.
        -24    2    5    5    0    0  0.28660308032E+02  0.48718956533E+01 -0.10561873425E+03  0.13845207181E+03  0.84667056988E+02 0.  0.
          4    1    4    4  501    0  0.86410380153E+02  0.38993502619E+01  0.17998780722E+03  0.19969368913E+03  0.00000000000E+00 0. -1.
         -3    1    4    4    0  501 -0.11356123304E+02 -0.71887877890E+01  0.25190708137E+01  0.13674279657E+02  0.00000000000E+00 0.  1.
          5    1    3    3  502    0 -0.86723939482E+01  0.79419623741E+01 -0.25891154013E+02  0.28822335771E+02  0.47000000000E+01 0. -1.
         13    1    6    6    0    0 -0.40184228852E-01  0.33555504563E+02 -0.88064860689E+02  0.94241143825E+02  0.00000000000E+00 0. -1.
        -14    1    6    6    0    0  0.28700492260E+02 -0.28683608910E+02 -0.17553873565E+02  0.44210927984E+02  0.00000000000E+00 0.  1.
         -5    1    5    5    0  503 -0.95042170932E+02 -0.95244205002E+01 -0.12023706656E+03  0.15363193358E+03  0.47000000000E+01 0.  1.
<mgrwt>
<rscale>  2 0.18509051E+03</rscale>
<asrwt>0</asrwt>
<pdfrwt beam="1">  1       21 0.35771864E-01 0.18520859E+03</pdfrwt>
<pdfrwt beam="2">  1       21 0.46424184E-01 0.18520859E+03</pdfrwt>
<totfact> 0.33620172E+04</totfact>
</mgrwt>
</event>
<event>
12    1  0.2769346E-001  0.2358238E+03  0.7546771E-02  0.1122860E+00
         21   -1    0    0  504  503  0.00000000000E+00  0.00000000000E+00  0.14004892019E+03  0.14004892019E+03  0.00000000000E+00 0. -1.
         21   -1    0    0  502  504 -0.00000000000E+00 -0.00000000000E+00 -0.63584732233E+03  0.63584732233E+03  0.00000000000E+00 0.  1.
          6    2    1    2  502    0 -0.30944744406E+02 -0.15626491071E+03 -0.48637237510E+03  0.53988418047E+03  0.17187362085E+03 0.  0.
         24    2    3    3    0    0  0.11731883459E+02 -0.77994642096E+02 -0.39899039854E+03  0.41496328814E+03  0.82343130201E+02 0.  0.
         -6    2    1    2    0  503  0.30944744406E+02  0.15626491071E+03 -0.94260270389E+01  0.23601206205E+03  0.17388658350E+03 0.  0.
        -24    2    5    5    0    0  0.31597991595E+01  0.17481749954E+03 -0.32176684570E+02  0.19531950557E+03  0.80890220366E+02 0.  0.
          4    1    4    4  501    0  0.22079456455E+02 -0.78596355879E+02 -0.20445023545E+03  0.22014719696E+03  0.00000000000E+00 0. -1.
         -3    1    4    4    0  501 -0.10347572996E+02  0.60171378387E+00 -0.19454016309E+03  0.19481609118E+03  0.00000000000E+00 0.  1.
          5    1    3    3  502    0 -0.42676627864E+02 -0.78270268612E+02 -0.87381976558E+02  0.12492089233E+03  0.47000000000E+01 0. -1.
         11    1    6    6    0    0  0.16790442756E+02  0.92312564431E+02  0.21095260273E+02  0.96169322165E+02  0.00000000000E+00 0. -1.
        -12    1    6    6    0    0 -0.13630643596E+02  0.82504935105E+02 -0.53271944843E+02  0.99150183404E+02  0.00000000000E+00 0.  1.
         -5    1    5    5    0  503  0.27784945246E+02 -0.18552588829E+02  0.22750657531E+02  0.40692556478E+02  0.47000000000E+01 0.  1.
<mgrwt>
<rscale>  2 0.23545280E+03</rscale>
<asrwt>0</asrwt>
<pdfrwt beam="1">  1       21 0.21545987E-01 0.23582376E+03</pdfrwt>
<pdfrwt beam="2">  1       21 0.97822666E-01 0.23582376E+03</pdfrwt>
<totfact> 0.16918070E+04</totfact>
</mgrwt>
</event>
<event>
12    1  0.2769346E-001  0.2199462E+03  0.7546771E-02  0.1134066E+00
         21   -1    0    0  504  503  0.00000000000E+00  0.00000000000E+00  0.37577416574E+03  0.37577416574E+03  0.00000000000E+00 0. -1.
         21   -1    0    0  502  504 -0.00000000000E+00 -0.00000000000E+00 -0.14414316477E+03  0.14414316477E+03  0.00000000000E+00 0. -1.
          6    2    1    2  502    0 -0.16971195994E+02 -0.13427217125E+03  0.20220522374E+03  0.29876964122E+03  0.17337620523E+03 0.  0.
         24    2    3    3    0    0  0.24966254250E+01 -0.12207442255E+03  0.66171345961E+02  0.16072947660E+03  0.80913038767E+02 0.  0.
         -6    2    1    2    0  503  0.16971195994E+02  0.13427217125E+03  0.29425777227E+02  0.22114768929E+03  0.17240471759E+03 0.  0.
        -24    2    5    5    0    0 -0.21395792499E+02  0.88942426812E+01 -0.79718797878E+01  0.84720692225E+02  0.81099675302E+02 0.  0.
          4    1    4    4  501    0  0.20760757348E+02 -0.82999551256E+02  0.78243219987E+02  0.11593936358E+03  0.00000000000E+00 0. -1.
         -3    1    4    4    0  501 -0.18264131923E+02 -0.39074871292E+02 -0.12071874026E+02  0.44790113015E+02  0.00000000000E+00 0.  1.
          5    1    3    3  502    0 -0.19467821419E+02 -0.12197748705E+02  0.13603387778E+03  0.13804016462E+03  0.47000000000E+01 0. -1.
         11    1    6    6    0    0 -0.12075368266E+02  0.17926920186E+02 -0.42583765778E+02  0.47755272944E+02  0.00000000000E+00 0. -1.
        -12    1    6    6    0    0 -0.93204242332E+01 -0.90326775053E+01  0.34611885990E+02  0.36965419281E+02  0.00000000000E+00 0.  1.
         -5    1    5    5    0  503  0.38366988494E+02  0.12537792857E+03  0.37397657015E+02  0.13642699707E+03  0.47000000000E+01 0.  1.
<mgrwt>
<rscale>  2 0.21975474E+03</rscale>
<asrwt>0</asrwt>
<pdfrwt beam="1">  1       21 0.57811410E-01 0.21994623E+03</pdfrwt>
<pdfrwt beam="2">  1       21 0.22175872E-01 0.21994623E+03</pdfrwt>
<totfact> 0.52671883E+04</totfact>
</mgrwt>
</event>
<event>
12    1  0.2769346E-001  0.1764954E+03  0.7546771E-02  0.1171993E+00
         21   -1    0    0  504  503  0.00000000000E+00  0.00000000000E+00  0.48096065467E+03  0.48096065467E+03  0.00000000000E+00 0.  1.
         21   -1    0    0  502  504 -0.00000000000E+00 -0.00000000000E+00 -0.12854420175E+03  0.12854420175E+03  0.00000000000E+00 0.  1.
          6    2    1    2  502    0  0.20106854931E+02  0.69041502856E+00 -0.39541602245E+02  0.18087055841E+03  0.17534496943E+03 0.  0.
         24    2    3    3    0    0  0.61923546563E+02 -0.44639013409E+02 -0.81042462686E+01  0.11148907578E+03  0.80851518682E+02 0.  0.
         -6    2    1    2    0  503 -0.20106854931E+02 -0.69041502856E+00  0.39195805516E+03  0.42863429801E+03  0.17231216479E+03 0.  0.
        -24    2    5    5    0    0 -0.68112493095E+02  0.14362362697E+02  0.16214438988E+03  0.19333122076E+03  0.78997269399E+02 0.  0.
          2    1    4    4  501    0  0.74359339134E+02 -0.21541389123E+02  0.12127661793E+02  0.78360850827E+02  0.00000000000E+00 0. -1.
         -1    1    4    4    0  501 -0.12435792571E+02 -0.23097624287E+02 -0.20231908062E+02  0.33128224951E+02  0.00000000000E+00 0.  1.
          5    1    3    3  502    0 -0.41816691632E+02  0.45329428438E+02 -0.31437355977E+02  0.69381482633E+02  0.47000000000E+01 0. -1.
         13    1    6    6    0    0  0.10963213467E+02  0.15254314095E+02  0.86884099480E+01  0.20697212746E+02  0.00000000000E+00 0. -1.
        -14    1    6    6    0    0 -0.79075706562E+02 -0.89195139771E+00  0.15345597993E+03  0.17263400801E+03  0.00000000000E+00 0.  1.
         -5    1    5    5    0  503  0.48005638163E+02 -0.15052777726E+02  0.22981366528E+03  0.23530307725E+03  0.47000000000E+01 0.  1.
<mgrwt>
<rscale>  2 0.17573734E+03</rscale>
<asrwt>0</asrwt>
<pdfrwt beam="1">  1       21 0.73993946E-01 0.17649538E+03</pdfrwt>
<pdfrwt beam="2">  1       21 0.19776031E-01 0.17649538E+03</pdfrwt>
<totfact> 0.38950182E+04</totfact>
</mgrwt>
</event>
<event>
12    1  0.2769346E-001  0.1783389E+03  0.7546771E-02  0.1169836E+00
         21   -1    0    0  504  503  0.00000000000E+00  0.00000000000E+00  0.11010877196E+03  0.11010877196E+03  0.00000000000E+00 0. -1.
         21   -1    0    0  502  504 -0.00000000000E+00 -0.00000000000E+00 -0.30375325649E+03  0.30375325649E+03  0.00000000000E+00 0. -1.
          6    2    1    2  502    0  0.29758831819E+02  0.23713867117E+02 -0.14624374301E+03  0.22933132070E+03  0.17250416436E+03 0.  0.
         24    2    3    3    0    0  0.19777516746E+02  0.10981846116E+02 -0.25925270340E+01  0.84695596000E+02  0.81577396825E+02 0.  0.
         -6    2    1    2    0  503 -0.29758831819E+02 -0.23713867117E+02 -0.47400741517E+02  0.18453070775E+03  0.17423207581E+03 0.  0.
        -24    2    5    5    0    0 -0.69479847180E+02 -0.18478990159E+02  0.16890517853E+02  0.10863196580E+03  0.79666129309E+02 0.  0.
          2    1    4    4  501    0 -0.20546935112E+02 -0.21978767829E+02  0.88706301251E+01  0.31367672158E+02  0.00000000000E+00 0. -1.
         -1    1    4    4    0  501  0.40324451858E+02  0.32960613945E+02 -0.11463157159E+02  0.53327923842E+02  0.00000000000E+00 0.  1.
          5    1    3    3  502    0  0.99813150733E+01  0.12732021001E+02 -0.14365121597E+03  0.14463572470E+03  0.47000000000E+01 0. -1.
         13    1    6    6    0    0 -0.11713667308E+02 -0.11325442662E+02  0.42142835073E+02  0.45182897221E+02  0.00000000000E+00 0. -1.
        -14    1    6    6    0    0 -0.57766179872E+02 -0.71535474975E+01 -0.25252317220E+02  0.63449068581E+02  0.00000000000E+00 0.  1.
         -5    1    5    5    0  503  0.39721015361E+02 -0.52348769572E+01 -0.64291259370E+02  0.75898741949E+02  0.47000000000E+01 0.  1.
<mgrwt>
<rscale>  2 0.17791543E+03</rscale>
<asrwt>0</asrwt>
<pdfrwt beam="1">  1       21 0.16939811E-01 0.17833887E+03</pdfrwt>
<pdfrwt beam="2">  1       21 0.46731271E-01 0.17833887E+03</pdfrwt>
<totfact> 0.13833435E+05</totfact>
</mgrwt>
</event>
<event>
12    1  0.2769346E-001  0.2246384E+03  0.7546771E-02  0.1130841E+00
         21   -1    0    0  504  503  0.00000000000E+00  0.00000000000E+00  0.23105816607E+03  0.23105816607E+03  0.00000000000E+00 0. -1.
         21   -1    0    0  502  504 -0.00000000000E+00 -0.00000000000E+00 -0.24243121947E+03  0.24243121947E+03  0.00000000000E+00 0. -1.
          6    2    1    2  502    0 -0.47933721212E+02  0.13487551974E+03 -0.83195088952E+02  0.23764870075E+03  0.17048881103E+03 0.  0.
         24    2    3    3    0    0 -0.97183109042E+02  0.10114347489E+03 -0.63598334704E+02  0.17464492444E+03  0.82350119983E+02 0.  0.
         -6    2    1    2    0  503  0.47933721212E+02 -0.13487551974E+03  0.71822035557E+02  0.23584068479E+03  0.17312820786E+03 0.  0.
        -24    2    5    5    0    0  0.94411162229E+02 -0.89472082015E+02  0.62707005209E+02  0.17006228059E+03  0.89834791498E+02 0.  0.
          4    1    4    4  501    0 -0.23945903292E+02  0.76885535314E+02 -0.53866669855E+02  0.96883486448E+02  0.00000000000E+00 0. -1.
         -3    1    4    4    0  501 -0.73237205750E+02  0.24257939575E+02 -0.97316648489E+01  0.77761437997E+02  0.00000000000E+00 0.  1.
          5    1    3    3  502    0  0.49249387830E+02  0.33732044855E+02 -0.19596754249E+02  0.63003776307E+02  0.47000000000E+01 0. -1.
         13    1    6    6    0    0  0.98961020379E+01  0.67599564345E+01  0.37711762683E+02  0.39570277876E+02  0.00000000000E+00 0. -1.
        -14    1    6    6    0    0  0.84515060191E+02 -0.96232038449E+02  0.24995242527E+02  0.13049200271E+03  0.00000000000E+00 0.  1.
         -5    1    5    5    0  503 -0.46477441017E+02 -0.45403437730E+02  0.91150303478E+01  0.65778404203E+02  0.47000000000E+01 0.  1.
<mgrwt>
<rscale>  2 0.22412975E+03</rscale>
<asrwt>0</asrwt>
<pdfrwt beam="1">  1       21 0.35547410E-01 0.22463843E+03</pdfrwt>
<pdfrwt beam="2">  1       21 0.37297111E-01 0.22463843E+03</pdfrwt>
<totfact> 0.52124112E+04</totfact>
</mgrwt>
</event>
<event>
12    1  0.2769346E-001  0.1946016E+03  0.7546771E-02  0.1154931E+00
         21   -1    0    0  504  503  0.00000000000E+00  0.00000000000E+00  0.18662411748E+03  0.18662411748E+03  0.00000000000E+00 0.  1.
         21   -1    0    0  502  504 -0.00000000000E+00 -0.00000000000E+00 -0.20428439101E+03  0.20428439101E+03  0.00000000000E+00 0.  1.
          6    2    1    2  502    0  0.58122556199E+02 -0.61997204366E+02 -0.36089895806E+02  0.19543621807E+03  0.17225257579E+03 0.  0.
         24    2    3    3    0    0  0.79953458725E+02  0.66026841013E+01 -0.46396321596E+02  0.12256067062E+03  0.80201922212E+02 0.  0.
         -6    2    1    2    0  503 -0.58122556199E+02  0.61997204366E+02  0.18429622270E+02  0.19547229042E+03  0.17506536053E+03 0.  0.
        -24    2    5    5    0    0  0.29041302195E+01 -0.28744508506E+02  0.35886644725E+02  0.84633883073E+02  0.70995507976E+02 0.  0.
          2    1    4    4  501    0  0.54351023125E+02 -0.97083053705E+01  0.12222332326E+02  0.56547947048E+02  0.00000000000E+00 0. -1.
         -1    1    4    4    0  501  0.25602435600E+02  0.16310989472E+02 -0.58618653921E+02  0.66012723575E+02  0.00000000000E+00 0.  1.
          5    1    3    3  502    0 -0.21830902525E+02 -0.68599888467E+02  0.10306425789E+02  0.72875547444E+02  0.47000000000E+01 0. -1.
         13    1    6    6    0    0 -0.29371053537E+01 -0.35223734426E+02 -0.10941016887E+02  0.37000593310E+02  0.00000000000E+00 0. -1.
        -14    1    6    6    0    0  0.58412355732E+01  0.64792259200E+01  0.46827661612E+02  0.47633289763E+02  0.00000000000E+00 0.  1.
         -5    1    5    5    0  503 -0.61026686419E+02  0.90741712872E+02 -0.17457022455E+02  0.11083840735E+03  0.47000000000E+01 0.  1.
<mgrwt>
<rscale>  2 0.19396684E+03</rscale>
<asrwt>0</asrwt>
<pdfrwt beam="1">  1       21 0.28711403E-01 0.19460156E+03</pdfrwt>
<pdfrwt beam="2">  1       21 0.31428368E-01 0.19460156E+03</pdfrwt>
<totfact> 0.11284807E+05</totfact>
</mgrwt>
</event>
<event>
12    1  0.2769346E-001  0.2378627E+03  0.7546771E-02  0.1121379E+00
         21   -1    0    0  504  503  0.00000000000E+00  0.00000000000E+00  0.10831587405E+04  0.10831587405E+04  0.00000000000E+00 0. -1.
         21   -1    0    0  502  504 -0.00000000000E+00 -0.00000000000E+00 -0.58743687424E+02  0.58743687424E+02  0.00000000000E+00 0. -1.
          6    2    1    2  502    0  0.87507039840E+02  0.13560951068E+03  0.70428188954E+03  0.74307427076E+03  0.17349054879E+03 0.  0.
         24    2    3    3    0    0  0.82124612858E+02  0.64455925428E+02  0.60914027883E+03  0.62405402331E+03  0.86559380511E+02 0.  0.
         -6    2    1    2    0  503 -0.87507039840E+02 -0.13560951068E+03  0.32013316354E+03  0.39882815717E+03  0.17473189505E+03 0.  0.
        -24    2    5    5    0    0 -0.69355092099E+02 -0.13084213642E+03  0.14398594063E+03  0.22162162456E+03  0.80339279978E+02 0.  0.
          2    1    4    4  501    0  0.68270386189E+02  0.18907209240E+02  0.20043824316E+03  0.21258837577E+03  0.00000000000E+00 0. -1.
         -1    1    4    4    0  501  0.13854226669E+02  0.45548716188E+02  0.40870203568E+03  0.41146564754E+03  0.00000000000E+00 0.  1.
          5    1    3    3  502    0  0.53824269816E+01  0.71153585250E+02  0.95141610710E+02  0.11902024745E+03  0.47000000000E+01 0. -1.
         11    1    6    6    0    0 -0.81685030809E+02 -0.73737484034E+02  0.92814958413E+02  0.14395929048E+03  0.00000000000E+00 0. -1.
        -12    1    6    6    0    0  0.12329938710E+02 -0.57104652389E+02  0.51170982221E+02  0.77662334079E+02  0.00000000000E+00 0.  1.
         -5    1    5    5    0  503 -0.18151947741E+02 -0.47673742548E+01  0.17614722291E+03  0.17720653262E+03  0.47000000000E+01 0.  1.
<mgrwt>
<rscale>  2 0.23763476E+03</rscale>
<asrwt>0</asrwt>
<pdfrwt beam="1">  1       21 0.16663979E+00 0.23786268E+03</pdfrwt>
<pdfrwt beam="2">  1       21 0.90374912E-02 0.23786268E+03</pdfrwt>
<totfact> 0.21227856E+04</totfact>
</mgrwt>
</event>
<event>
12    1  0.2769346E-001  0.1989166E+03  0.7546771E-02  0.1150795E+00
         21   -1    0    0  504  503  0.00000000000E+00  0.00000000000E+00  0.98303375949E+02  0.98303375949E+02  0.00000000000E+00 0.  1.
         21   -1    0    0  502  504 -0.00000000000E+00 -0.00000000000E+00 -0.65932120423E+03  0.65932120423E+03  0.00000000000E+00 0.  1.
          6    2    1    2  502    0  0.82291413315E+02  0.53872213148E+02 -0.51781367460E+03  0.55470605007E+03  0.17289797086E+03 0.  0.
         24    2    3    3    0    0  0.82469910052E+02  0.97043525607E+02 -0.34225258757E+03  0.37385368111E+03  0.80068778264E+02 0.  0.
         -6    2    1    2    0  503 -0.82291413315E+02 -0.53872213148E+02 -0.43204153677E+02  0.20291853010E+03  0.17214888588E+03 0.  0.
        -24    2    5    5    0    0  0.18401523040E+02  0.29271028957E+01 -0.35913047208E+02  0.86985446093E+02  0.77003486224E+02 0.  0.
          2    1    4    4  501    0  0.75324933458E+02  0.38804062903E+02 -0.14378768012E+03  0.16689666819E+03  0.00000000000E+00 0. -1.
         -1    1    4    4    0  501  0.71449765934E+01  0.58239462704E+02 -0.19846490745E+03  0.20695701292E+03  0.00000000000E+00 0.  1.
          5    1    3    3  502    0 -0.17849673708E+00 -0.43171312458E+02 -0.17556108703E+03  0.18085236897E+03  0.47000000000E+01 0. -1.
         13    1    6    6    0    0 -0.23397147464E+02  0.18047768504E+02  0.45681047362E+00  0.29552616352E+02  0.00000000000E+00 0. -1.
        -14    1    6    6    0    0  0.41798670504E+02 -0.15120665608E+02 -0.36369857681E+02  0.57432829741E+02  0.00000000000E+00 0.  1.
         -5    1    5    5    0  503 -0.10069293635E+03 -0.56799316044E+02 -0.72911064689E+01  0.11593308401E+03  0.47000000000E+01 0.  1.
<mgrwt>
<rscale>  2 0.19875368E+03</rscale>
<asrwt>0</asrwt>
<pdfrwt beam="1">  1       21 0.15123596E-01 0.19891657E+03</pdfrwt>
<pdfrwt beam="2">  1       21 0.10143403E+00 0.19891657E+03</pdfrwt>
<totfact> 0.30559721E+04</totfact>
</mgrwt>
</event>
<event>
12    1  0.2769346E-001  0.1925495E+03  0.7546771E-02  0.1156437E+00
         21   -1    0    0  504  503  0.00000000000E+00  0.00000000000E+00  0.94010010622E+02  0.94010010622E+02  0.00000000000E+00 0. -1.
         21   -1    0    0  502  504 -0.00000000000E+00 -0.00000000000E+00 -0.46989212100E+03  0.46989212100E+03  0.00000000000E+00 0. -1.
          6    2    1    2  502    0 -0.68805192488E+02  0.46850599455E+02 -0.30318132302E+03  0.35915768310E+03  0.17362659219E+03 0.  0.
         24    2    3    3    0    0  0.23398547787E+02 -0.27418339466E+00 -0.17692081748E+03  0.19579893635E+03  0.80552346968E+02 0.  0.
         -6    2    1    2    0  503  0.68805192488E+02 -0.46850599455E+02 -0.72700787360E+02  0.20474444853E+03  0.17235356549E+03 0.  0.
        -24    2    5    5    0    0  0.10803560030E+02 -0.15351663990E+02 -0.10508277699E+03  0.13107589652E+03  0.76066484946E+02 0.  0.
          2    1    4    4  501    0  0.39204916651E+02  0.26013247362E+01 -0.17530257596E+03  0.17965184530E+03  0.00000000000E+00 0. -1.
         -1    1    4    4    0  501 -0.15806368864E+02 -0.28755081309E+01 -0.16182415151E+01  0.16147091047E+02  0.00000000000E+00 0.  1.
          5    1    3    3  502    0 -0.92203740275E+02  0.47124782849E+02 -0.12626050554E+03  0.16335874675E+03  0.47000000000E+01 0. -1.
         11    1    6    6    0    0  0.37354536042E+02 -0.23941609265E+00 -0.89063652202E+02  0.96580292123E+02  0.00000000000E+00 0. -1.
        -12    1    6    6    0    0 -0.26550976012E+02 -0.15112247897E+02 -0.16019124786E+02  0.34495604396E+02  0.00000000000E+00 0.  1.
         -5    1    5    5    0  503  0.58001632458E+02 -0.31498935465E+02  0.32381989628E+02  0.73668552011E+02  0.47000000000E+01 0.  1.
<mgrwt>
<rscale>  2 0.19226212E+03</rscale>
<asrwt>0</asrwt>
<pdfrwt beam="1">  1       21 0.14463079E-01 0.19254954E+03</pdfrwt>
<pdfrwt beam="2">  1       21 0.72291094E-01 0.19254954E+03</pdfrwt>
<totfact> 0.72335971E+04</totfact>
</mgrwt>
</event>
<event>
12    1  0.2769346E-001  0.2322873E+03  0.7546771E-02  0.1125296E+00
         21   -1    0    0  504  503  0.00000000000E+00  0.00000000000E+00  0.10698482817E+03  0.10698482817E+03  0.00000000000E+00 0.  1.
         21   -1    0    0  502  504 -0.00000000000E+00 -0.00000000000E+00 -0.54814936367E+03  0.54814936367E+03  0.00000000000E+00 0. -1.
          6    2    1    2  502    0 -0.15130917677E+03  0.29519490664E+02 -0.12403503429E+03  0.26203302319E+03  0.17178692676E+03 0.  0.
         24    2    3    3    0    0 -0.10975865186E+03 -0.22536910989E+02 -0.23354278150E+02  0.14122317371E+03  0.82726588653E+02 0.  0.
         -6    2    1    2    0  503  0.15130917677E+03 -0.29519490664E+02 -0.31712950120E+03  0.39310116866E+03  0.17375713212E+03 0.  0.
        -24    2    5    5    0    0  0.17417493975E+03 -0.40580435034E+02 -0.22998635293E+03  0.30220999252E+03  0.80333527883E+02 0.  0.
          2    1    4    4  501    0 -0.55767031578E+02 -0.53116915640E+02 -0.16811945093E+02  0.78828992356E+02  0.00000000000E+00 0. -1.
         -1    1    4    4    0  501 -0.53991620283E+02  0.30580004651E+02 -0.65423330574E+01  0.62394181356E+02  0.00000000000E+00 0.  1.
          5    1    3    3  502    0 -0.41550524906E+02  0.52056401653E+02 -0.10068075614E+03  0.12080984947E+03  0.47000000000E+01 0. -1.
         13    1    6    6    0    0  0.44558515114E+02 -0.15819705889E+02 -0.12479905549E+03  0.13345609246E+03  0.00000000000E+00 0. -1.
        -14    1    6    6    0    0  0.12961642464E+03 -0.24760729145E+02 -0.10518729744E+03  0.16875390007E+03  0.00000000000E+00 0.  1.
         -5    1    5    5    0  503 -0.22865762988E+02  0.11060944370E+02 -0.87143148275E+02  0.90891176132E+02  0.47000000000E+01 0.  1.
<mgrwt>
<rscale>  2 0.23191895E+03</rscale>
<asrwt>0</asrwt>
<pdfrwt beam="1">  1       21 0.16459204E-01 0.23228734E+03</pdfrwt>
<pdfrwt beam="2">  1       21 0.84330671E-01 0.23228734E+03</pdfrwt>
<totfact> 0.39598116E+04</totfact>
</mgrwt>
</event>
<event>
12    1  0.2769346E-001  0.2148860E+03  0.7546771E-02  0.1140561E+00
         21   -1    0    0  504  503  0.00000000000E+00  0.00000000000E+00  0.74998197752E+03  0.74998197752E+03  0.00000000000E+00 0.  1.
         21   -1    0    0  502  504 -0.00000000000E+00 -0.00000000000E+00 -0.69685161667E+02  0.69685161667E+02  0.00000000000E+00 0.  1.
          6    2    1    2  502    0 -0.72181126865E+02 -0.70989449874E+02  0.17907727126E+03  0.27972245557E+03  0.18954251765E+03 0.  0.
         24    2    3    3    0    0 -0.64459427235E+02 -0.22440903726E+02  0.12835847202E+02  0.10630132925E+03  0.80477336612E+02 0.  0.
         -6    2    1    2    0  503  0.72181126865E+02  0.70989449874E+02  0.50121954459E+03  0.53994468362E+03  0.17340591806E+03 0.  0.
        -24    2    5    5    0    0  0.79070422300E+02  0.10407505636E+03  0.31072837302E+03  0.34642182658E+03  0.79826130397E+02 0.  0.
          2    1    4    4  501    0 -0.11982790398E+02  0.21712526029E+02 -0.18461380263E+02  0.30916720614E+02  0.00000000000E+00 0. -1.
         -1    1    4    4    0  501 -0.52476636836E+02 -0.44153429755E+02  0.31297227465E+02  0.75384608640E+02  0.00000000000E+00 0.  1.
          5    1    3    3  502    0 -0.77216996297E+01 -0.48548546147E+02  0.16624142406E+03  0.17342112631E+03  0.47000000000E+01 0. -1.
         13    1    6    6    0    0  0.28359104294E+02  0.31019733647E+00  0.23460845003E+02  0.36806877985E+02  0.00000000000E+00 0. -1.
        -14    1    6    6    0    0  0.50711318007E+02  0.10376485903E+03  0.28726752802E+03  0.30961494860E+03  0.00000000000E+00 0.  1.
         -5    1    5    5    0  503 -0.68892954360E+01 -0.33085606491E+02  0.19049117157E+03  0.19352285703E+03  0.47000000000E+01 0.  1.
<mgrwt>
<rscale>  2 0.21127353E+03</rscale>
<asrwt>0</asrwt>
<pdfrwt beam="1">  1       21 0.11538184E+00 0.21488598E+03</pdfrwt>
<pdfrwt beam="2">  1       21 0.10720795E-01 0.21488598E+03</pdfrwt>
<totfact> 0.41220840E+04</totfact>
</mgrwt>
</event>
<event>
12    1  0.2769346E-001  0.1921611E+03  0.7546771E-02  0.1159776E+00
         21   -1    0    0  504  503  0.00000000000E+00  0.00000000000E+00  0.43033338029E+03  0.43033338029E+03  0.00000000000E+00 0. -1.
         21   -1    0    0  502  504 -0.00000000000E+00 -0.00000000000E+00 -0.91056932729E+02  0.91056932729E+02  0.00000000000E+00 0. -1.
          6    2    1    2  502    0 -0.18855392939E+02  0.36752661943E+02  0.71806522285E+02  0.19204847420E+03  0.17326325577E+03 0.  0.
         24    2    3    3    0    0 -0.19014138570E+02  0.25191959212E+02  0.11693187462E+03  0.14522900741E+03  0.80138810932E+02 0.  0.
         -6    2    1    2    0  503  0.18855392939E+02 -0.36752661943E+02  0.26746992527E+03  0.32934183881E+03  0.18766886227E+03 0.  0.
        -24    2    5    5    0    0  0.65766974428E+02 -0.76027146368E+02  0.17282711454E+03  0.21654763139E+03  0.83175977482E+02 0.  0.
          4    1    4    4  501    0 -0.11448324512E+02  0.48224358963E+02  0.10896872507E+03  0.11971146969E+03  0.00000000000E+00 0. -1.
         -3    1    4    4    0  501 -0.75658140574E+01 -0.23032399751E+02  0.79631495448E+01  0.25517537721E+02  0.00000000000E+00 0.  1.
          5    1    3    3  502    0  0.15874563078E+00  0.11560702731E+02 -0.45125352332E+02  0.46819466794E+02  0.47000000000E+01 0. -1.
         13    1    6    6    0    0  0.32172730470E+02 -0.61323727091E+02  0.42711357782E+02  0.81363039360E+02  0.00000000000E+00 0. -1.
        -14    1    6    6    0    0  0.33594243958E+02 -0.14703419277E+02  0.13011575676E+03  0.13518459203E+03  0.00000000000E+00 0.  1.
         -5    1    5    5    0  503 -0.46911581489E+02  0.39274484425E+02  0.94642810731E+02  0.11279420742E+03  0.47000000000E+01 0.  1.
<mgrwt>
<rscale>  2 0.18855010E+03</rscale>
<asrwt>0</asrwt>
<pdfrwt beam="1">  1       21 0.66205134E-01 0.19216109E+03</pdfrwt>
<pdfrwt beam="2">  1       21 0.14008759E-01 0.19216109E+03</pdfrwt>
<totfact> 0.93022691E+04</totfact>
</mgrwt>
</event>
<event>
12    1  0.2769346E-001  0.2692436E+03  0.7546771E-02  0.1101737E+00
         21   -1    0    0  504  503  0.00000000000E+00  0.00000000000E+00  0.10840949472E+03  0.10840949472E+03  0.00000000000E+00 0.  1.
         21   -1    0    0  502  504 -0.00000000000E+00 -0.00000000000E+00 -0.70530406324E+03  0.70530406324E+03  0.00000000000E+00 0. -1.
          6    2    1    2  502    0 -0.16669441948E+03 -0.12103045614E+03 -0.20513413397E+03  0.33835227734E+03  0.17310935811E+03 0.  0.
         24    2    3    3    0    0 -0.93617710653E+02 -0.14200139278E+03 -0.14663747127E+03  0.24231095758E+03  0.91013080829E+02 0.  0.
         -6    2    1    2    0  503  0.16669441948E+03  0.12103045614E+03 -0.39176043456E+03  0.47536128061E+03  0.17336870601E+03 0.  0.
        -24    2    5    5    0    0  0.14167108121E+03  0.52588179708E+02 -0.16594949821E+03  0.23803622581E+03  0.79283018029E+02 0.  0.
          4    1    4    4  501    0 -0.50676695681E+02 -0.51968541910E+02 -0.10201507948E+02  0.73300256464E+02  0.00000000000E+00 0. -1.
         -3    1    4    4    0  501 -0.42941014972E+02 -0.90032850868E+02 -0.13643596332E+03  0.16901070111E+03  0.00000000000E+00 0.  1.
          5    1    3    3  502    0 -0.73076708824E+02  0.20970936634E+02 -0.58496662695E+02  0.96041319766E+02  0.47000000000E+01 0. -1.
         11    1    6    6    0    0  0.81918160537E+02 -0.10157652141E+02 -0.96532493359E+02  0.12701293319E+03  0.00000000000E+00 0. -1.
        -12    1    6    6    0    0  0.59752920671E+02  0.62745831848E+02 -0.69417004849E+02  0.11102329263E+03  0.00000000000E+00 0.  1.
         -5    1    5    5    0  503  0.25023338269E+02  0.68442276436E+02 -0.22581093635E+03  0.23732505480E+03  0.47000000000E+01 0.  1.
<mgrwt>
<rscale>  2 0.26920185E+03</rscale>
<asrwt>0</asrwt>
<pdfrwt beam="1">  1       21 0.16678384E-01 0.26924359E+03</pdfrwt>
<pdfrwt beam="2">  1       21 0.10850832E+00 0.26924359E+03</pdfrwt>
<totfact> 0.20922380E+04</totfact>
</mgrwt>
</event>
<event>
12    1  0.2769346E-001  0.1844847E+03  0.7546771E-02  0.1164024E+00
         21   -1    0    0  504  503  0.00000000000E+00  0.00000000000E+00  0.38053755294E+03  0.38053755294E+03  0.00000000000E+00 0.  1.
         21   -1    0    0  502  504 -0.00000000000E+00 -0.00000000000E+00 -0.10937836800E+03  0.10937836800E+03  0.00000000000E+00 0.  1.
          6    2    1    2  502    0 -0.47065515663E+01  0.65800333064E+02  0.27752289059E+02  0.18449570198E+03  0.17004893132E+03 0.  0.
         24    2    3    3    0    0 -0.78773023218E+01  0.94702961693E+02 -0.22356396496E+02  0.12637181731E+03  0.80245404228E+02 0.  0.
         -6    2    1    2    0  503  0.47065515663E+01 -0.65800333064E+02  0.24340689589E+03  0.30542021896E+03  0.17228684721E+03 0.  0.
        -24    2    5    5    0    0  0.64669780980E+02 -0.68980764660E+02  0.16041252565E+03  0.20287335397E+03  0.80528832737E+02 0.  0.
          4    1    4    4  501    0 -0.10428361276E+02 -0.65387667859E+01  0.14117656912E+02  0.18730040755E+02  0.00000000000E+00 0. -1.
         -3    1    4    4    0  501  0.25510589545E+01  0.10124172848E+03 -0.36474053408E+02  0.10764177655E+03  0.00000000000E+00 0.  1.
          5    1    3    3  502    0  0.31707507555E+01 -0.28902628629E+02  0.50108685555E+02  0.58123884678E+02  0.47000000000E+01 0. -1.
         11    1    6    6    0    0  0.34590319283E+02  0.25179557446E+01  0.95917105687E+02  0.10199471287E+03  0.00000000000E+00 0. -1.
        -12    1    6    6    0    0  0.30079461696E+02 -0.71498720404E+02  0.64495419960E+02  0.10087864111E+03  0.00000000000E+00 0.  1.
         -5    1    5    5    0  503 -0.59963229413E+02  0.31804315961E+01  0.82994370238E+02  0.10254686498E+03  0.47000000000E+01 0.  1.
<mgrwt>
<rscale>  2 0.18396039E+03</rscale>
<asrwt>0</asrwt>
<pdfrwt beam="1">  1       21 0.58544238E-01 0.18448467E+03</pdfrwt>
<pdfrwt beam="2">  1       21 0.16827441E-01 0.18448467E+03</pdfrwt>
<totfact> 0.87103063E+04</totfact>
</mgrwt>
</event>
<event>
12    1  0.2769346E-001  0.2087608E+03  0.7546771E-02  0.1142779E+00
         21   -1    0    0  504  503  0.00000000000E+00  0.00000000000E+00  0.10502413758E+03  0.10502413758E+03  0.00000000000E+00 0. -1.
         21   -1    0    0  502  504 -0.00000000000E+00 -0.00000000000E+00 -0.43657290362E+03  0.43657290362E+03  0.00000000000E+00 0. -1.
          6    2    1    2  502    0  0.38682108045E+02  0.10723702837E+03 -0.10202814138E+03  0.23133780521E+03  0.17352623073E+03 0.  0.
         24    2    3    3    0    0  0.43858781884E+02  0.25645636610E+02  0.83997787287E+01  0.93859193415E+02  0.78471016817E+02 0.  0.
         -6    2    1    2    0  503 -0.38682108045E+02 -0.10723702837E+03 -0.22952062466E+03  0.31025923599E+03  0.17488565016E+03 0.  0.
        -24    2    5    5    0    0 -0.80028802675E+02 -0.66748175547E+02 -0.17786524683E+03  0.23254653163E+03  0.10761930656E+03 0.  0.
          4    1    4    4  501    0  0.35750225260E+02  0.39129298758E+02  0.34601399723E+02  0.63296425572E+02  0.00000000000E+00 0. -1.
         -3    1    4    4    0  501  0.81085566246E+01 -0.13483662148E+02 -0.26201620995E+02  0.30562767843E+02  0.00000000000E+00 0.  1.
          5    1    3    3  502    0 -0.51766738397E+01  0.81591391762E+02 -0.11042792011E+03  0.13747861180E+03  0.47000000000E+01 0. -1.
         13    1    6    6    0    0  0.20243704429E+02 -0.29866960782E+02 -0.79569269866E+02  0.87367680651E+02  0.00000000000E+00 0. -1.
        -14    1    6    6    0    0 -0.10027250710E+03 -0.36881214765E+02 -0.98295976963E+02  0.14517885098E+03  0.00000000000E+00 0.  1.
         -5    1    5    5    0  503  0.41346694631E+02 -0.40488852825E+02 -0.51655377832E+02  0.77712704359E+02  0.47000000000E+01 0.  1.
<mgrwt>
<rscale>  2 0.20847585E+03</rscale>
<asrwt>0</asrwt>
<pdfrwt beam="1">  1       21 0.16157560E-01 0.20876081E+03</pdfrwt>
<pdfrwt beam="2">  1       21 0.67165061E-01 0.20876081E+03</pdfrwt>
<totfact> 0.68987181E+04</totfact>
</mgrwt>
</event>
<event>
12    1  0.2769346E-001  0.2089188E+03  0.7546771E-02  0.1142666E+00
         21   -1    0    0  504  503  0.00000000000E+00  0.00000000000E+00  0.70393172102E+03  0.70393172102E+03  0.00000000000E+00 0. -1.
         21   -1    0    0  502  504 -0.00000000000E+00 -0.00000000000E+00 -0.11697943752E+03  0.11697943752E+03  0.00000000000E+00 0.  1.
          6    2    1    2  502    0  0.83553670646E+02  0.80563818577E+02  0.11630856165E+02  0.20924226596E+03  0.17371040356E+03 0.  0.
         24    2    3    3    0    0  0.50554282405E+02  0.18145546048E+02 -0.56968326149E+02  0.11068802615E+03  0.78239712668E+02 0.  0.
         -6    2    1    2    0  503 -0.83553670646E+02 -0.80563818577E+02  0.57532142734E+03  0.61166889258E+03  0.17225662440E+03 0.  0.
        -24    2    5    5    0    0 -0.31665953616E+02 -0.56491564232E+02  0.14644080755E+03  0.17896520107E+03  0.79934996294E+02 0.  0.
          2    1    4    4  501    0  0.32963372087E+01  0.30616933252E+02  0.55933933832E+01  0.31297739380E+02  0.00000000000E+00 0. -1.
         -1    1    4    4    0  501  0.47257945196E+02 -0.12471387204E+02 -0.62561719532E+02  0.79390286772E+02  0.00000000000E+00 0.  1.
          5    1    3    3  502    0  0.32999388241E+02  0.62418272529E+02  0.68599182314E+02  0.98554239807E+02  0.47000000000E+01 0. -1.
         13    1    6    6    0    0 -0.71144854179E+01 -0.21119621141E+02  0.13152141172E+03  0.13339616202E+03  0.00000000000E+00 0. -1.
        -14    1    6    6    0    0 -0.24551468198E+02 -0.35371943091E+02  0.14919395826E+02  0.45569039056E+02  0.00000000000E+00 0.  1.
         -5    1    5    5    0  503 -0.51887717030E+02 -0.24072254346E+02  0.42888061980E+03  0.43270369151E+03  0.47000000000E+01 0.  1.
<mgrwt>
<rscale>  2 0.20861630E+03</rscale>
<asrwt>0</asrwt>
<pdfrwt beam="1">  1       21 0.10829719E+00 0.20891876E+03</pdfrwt>
<pdfrwt beam="2">  1       21 0.17996837E-01 0.20891876E+03</pdfrwt>
<totfact> 0.18853252E+04</totfact>
</mgrwt>
</event>
<event>
12    1  0.2769346E-001  0.1768735E+03  0.7546771E-02  0.1170964E+00
         21   -1    0    0  504  503  0.00000000000E+00  0.00000000000E+00  0.10715809707E+03  0.10715809707E+03  0.00000000000E+00 0. -1.
         21   -1    0    0  502  504 -0.00000000000E+00 -0.00000000000E+00 -0.33493342209E+03  0.33493342209E+03  0.00000000000E+00 0. -1.
          6    2    1    2  502    0 -0.28174758846E+02 -0.30049806132E+02 -0.34194907331E+02  0.18014860018E+03  0.17200993743E+03 0.  0.
         24    2    3    3    0    0 -0.84307677346E+02 -0.12289833659E+02 -0.13148666517E+02  0.11744807854E+03  0.79764273023E+02 0.  0.
         -6    2    1    2    0  503  0.28174758846E+02  0.30049806132E+02 -0.19358041769E+03  0.26194291899E+03  0.17159226909E+03 0.  0.
        -24    2    5    5    0    0  0.29705384815E+02  0.10681993872E+02 -0.21539041319E+03  0.23235878690E+03  0.81246913037E+02 0.  0.
          2    1    4    4  501    0  0.24433399138E+01 -0.25714940010E+02 -0.14562747478E+02  0.29653021157E+02  0.00000000000E+00 0. -1.
         -1    1    4    4    0  501 -0.86751017260E+02  0.13425106350E+02  0.14140809605E+01  0.87795057384E+02  0.00000000000E+00 0.  1.
          5    1    3    3  502    0  0.56132918500E+02 -0.17759972473E+02 -0.21046240814E+02  0.62700521640E+02  0.47000000000E+01 0. -1.
         13    1    6    6    0    0 -0.11351349146E+02  0.30918343652E+02 -0.44002390289E+02  0.54963692132E+02  0.00000000000E+00 0. -1.
        -14    1    6    6    0    0  0.41056733961E+02 -0.20236349780E+02 -0.17138802290E+03  0.17739509477E+03  0.00000000000E+00 0.  1.
         -5    1    5    5    0  503 -0.15306259689E+01  0.19367812261E+02  0.21809995497E+02  0.29584132085E+02  0.47000000000E+01 0.  1.
<mgrwt>
<rscale>  2 0.17677185E+03</rscale>
<asrwt>0</asrwt>
<pdfrwt beam="1">  1       21 0.16485861E-01 0.17687348E+03</pdfrwt>
<pdfrwt beam="2">  1       21 0.51528219E-01 0.17687348E+03</pdfrwt>
<totfact> 0.11877537E+05</totfact>
</mgrwt>
</event>
<event>
12    1  0.2769346E-001  0.1867006E+03  0.7546771E-02  0.1161521E+00
         21   -1    0    0  504  503  0.00000000000E+00  0.00000000000E+00  0.59134864001E+03  0.59134864001E+03  0.00000000000E+00 0.  1.
         21   -1    0    0  502  504 -0.00000000000E+00 -0.00000000000E+00 -0.86967880935E+02  0.86967880935E+02  0.00000000000E+00 0.  1.
          6    2    1    2  502    0 -0.27246440720E+02 -0.64835873047E+02  0.44504155846E+03  0.48261693997E+03  0.17294815126E+03 0.  0.
         24    2    3    3    0    0 -0.51167534592E+02  0.93979874120E+01  0.32801377927E+03  0.34190277625E+03  0.81228260168E+02 0.  0.
         -6    2    1    2    0  503  0.27246440720E+02  0.64835873047E+02  0.59339200619E+02  0.19569958098E+03  0.17271689639E+03 0.  0.
        -24    2    5    5    0    0  0.28551874575E+02  0.11114172726E+03  0.50927564895E+02  0.14838381292E+03  0.79097699016E+02 0.  0.
          4    1    4    4  501    0 -0.57077855541E+02  0.36370756208E+02  0.20720442236E+03  0.21797794876E+03  0.00000000000E+00 0. -1.
         -3    1    4    4    0  501  0.59103209492E+01 -0.26972768796E+02  0.12080935691E+03  0.12392482749E+03  0.00000000000E+00 0.  1.
          5    1    3    3  502    0  0.23921093872E+02 -0.74233860459E+02  0.11702777919E+03  0.14071416372E+03  0.47000000000E+01 0. -1.
         13    1    6    6    0    0 -0.30522981068E+01 -0.96521139293E+01  0.15645273120E+02  0.18634763160E+02  0.00000000000E+00 0. -1.
        -14    1    6    6    0    0  0.31604172681E+02  0.12079384119E+03  0.35282291775E+02  0.12974904976E+03  0.00000000000E+00 0.  1.
         -5    1    5    5    0  503 -0.13054338550E+01 -0.46305854211E+02  0.84116357238E+01  0.47315768062E+02  0.47000000000E+01 0.  1.
<mgrwt>
<rscale>  2 0.18664705E+03</rscale>
<asrwt>0</asrwt>
<pdfrwt beam="1">  1       21 0.90976711E-01 0.18670062E+03</pdfrwt>
<pdfrwt beam="2">  1       21 0.13379674E-01 0.18670062E+03</pdfrwt>
<totfact> 0.49593699E+04</totfact>
</mgrwt>
</event>
<event>
12    1  0.2769346E-001  0.1778588E+03  0.7546771E-02  0.1170151E+00
         21   -1    0    0  504  503  0.00000000000E+00  0.00000000000E+00  0.39944627463E+03  0.39944627463E+03  0.00000000000E+00 0.  1.
         21   -1    0    0  502  504 -0.00000000000E+00 -0.00000000000E+00 -0.49611000640E+03  0.49611000640E+03  0.00000000000E+00 0.  1.
          6    2    1    2  502    0 -0.25032865853E+02 -0.27587753229E+02 -0.45907028693E+03  0.49232031098E+03  0.17391386305E+03 0.  0.
         24    2    3    3    0    0 -0.28525002093E+02 -0.66547632102E+02 -0.42995095754E+03  0.44332957184E+03  0.80255967367E+02 0.  0.
         -6    2    1    2    0  503  0.25032865853E+02  0.27587753229E+02  0.36240655516E+03  0.40323597004E+03  0.17283809711E+03 0.  0.
        -24    2    5    5    0    0  0.64778607723E+02  0.56428499011E+02  0.30803665698E+03  0.32982147255E+03  0.80716653752E+02 0.  0.
          2    1    4    4  501    0 -0.41962087451E+02 -0.56354753197E+02 -0.18651559796E+03  0.19931067025E+03  0.00000000000E+00 0. -1.
         -1    1    4    4    0  501  0.13437085358E+02 -0.10192878905E+02 -0.24343535957E+03  0.24401890159E+03  0.00000000000E+00 0.  1.
          5    1    3    3  502    0  0.34921362392E+01  0.38959878873E+02 -0.29119329391E+02  0.48990739140E+02  0.47000000000E+01 0. -1.
         11    1    6    6    0    0 -0.14463721161E+02  0.10528999629E+02  0.16856128561E+02  0.24580238670E+02  0.00000000000E+00 0. -1.
        -12    1    6    6    0    0  0.79242328885E+02  0.45899499383E+02  0.29118052842E+03  0.30524123388E+03  0.00000000000E+00 0.  1.
         -5    1    5    5    0  503 -0.39745741870E+02 -0.28840745782E+02  0.54369898184E+02  0.73414497496E+02  0.47000000000E+01 0.  1.
<mgrwt>
<rscale>  2 0.17759530E+03</rscale>
<asrwt>0</asrwt>
<pdfrwt beam="1">  1       21 0.61453273E-01 0.17785882E+03</pdfrwt>
<pdfrwt beam="2">  1       21 0.76324616E-01 0.17785882E+03</pdfrwt>
<totfact> 0.38096888E+03</totfact>
</mgrwt>
</event>
<event>
12    1  0.2769346E-001  0.2983049E+03  0.7546771E-02  0.1086487E+00
         21   -1    0    0  504  503  0.00000000000E+00  0.00000000000E+00  0.27338417109E+03  0.27338417109E+03  0.00000000000E+00 0. -1.
         21   -1    0    0  502  504 -0.00000000000E+00 -0.00000000000E+00 -0.33878834153E+03  0.33878834153E+03  0.00000000000E+00 0.  1.
          6    2    1    2  502    0  0.23732649966E+03  0.23229899806E+02 -0.10047629973E+03  0.31181292190E+03  0.17397791748E+03 0.  0.
         24    2    3    3    0    0  0.25693365338E+03  0.27105885104E+02 -0.10809589605E+03  0.28991287653E+03  0.74934117641E+02 0.  0.
         -6    2    1    2    0  503 -0.23732649966E+03 -0.23229899806E+02  0.35072129291E+02  0.30035959073E+03  0.17922704540E+03 0.  0.
        -24    2    5    5    0    0 -0.92050043036E+02  0.46276475146E+02 -0.12318240618E+02  0.13241816592E+03  0.82268517902E+02 0.  0.
          2    1    4    4  501    0  0.15067322784E+03  0.18049334212E+02 -0.23012759011E+02  0.15348546228E+03  0.00000000000E+00 0. -1.
         -1    1    4    4    0  501  0.10626042554E+03  0.90565508921E+01 -0.85083137042E+02  0.13642741425E+03  0.00000000000E+00 0.  1.
          5    1    3    3  502    0 -0.19607153722E+02 -0.38759852977E+01  0.76195963198E+01  0.21900045370E+02  0.47000000000E+01 0. -1.
         11    1    6    6    0    0 -0.69794878919E+02  0.14328756008E+01  0.20258611213E+02  0.72689680039E+02  0.00000000000E+00 0. -1.
        -12    1    6    6    0    0 -0.22255164117E+02  0.44843599545E+02 -0.32576851830E+02  0.59728485877E+02  0.00000000000E+00 0.  1.
         -5    1    5    5    0  503 -0.14527645662E+03 -0.69506374952E+02  0.47390369909E+02  0.16794142481E+03  0.47000000000E+01 0.  1.
<mgrwt>
<rscale>  2 0.29752085E+03</rscale>
<asrwt>0</asrwt>
<pdfrwt beam="1">  1       21 0.42059103E-01 0.29830493E+03</pdfrwt>
<pdfrwt beam="2">  1       21 0.52121283E-01 0.29830493E+03</pdfrwt>
<totfact> 0.18018750E+04</totfact>
</mgrwt>
</event>
<event>
12    1  0.2769346E-001  0.2440282E+03  0.7546771E-02  0.1118159E+00
         21   -1    0    0  504  503  0.00000000000E+00  0.00000000000E+00  0.66272608528E+02  0.66272608528E+02  0.00000000000E+00 0.  1.
         21   -1    0    0  502  504 -0.00000000000E+00 -0.00000000000E+00 -0.12557221948E+04  0.12557221948E+04  0.00000000000E+00 0.  1.
          6    2    1    2  502    0 -0.10179159391E+03  0.13930360123E+03 -0.95289083594E+03  0.98212745387E+03  0.16372650525E+03 0.  0.
         24    2    3    3    0    0 -0.10710636476E+03  0.12026676935E+03 -0.54925516975E+03  0.57798083595E+03  0.80279113379E+02 0.  0.
         -6    2    1    2    0  503  0.10179159391E+03 -0.13930360123E+03 -0.23655875035E+03  0.33986734948E+03  0.17257679730E+03 0.  0.
        -24    2    5    5    0    0  0.88614360044E+02 -0.37319332502E+02 -0.18777819032E+03  0.22595482341E+03  0.80930192598E+02 0.  0.
          4    1    4    4  501    0 -0.45570425360E+02  0.44827713697E+02 -0.10295125298E+03  0.12118229273E+03  0.00000000000E+00 0. -1.
         -3    1    4    4    0  501 -0.61535939398E+02  0.75439055649E+02 -0.44630391677E+03  0.45679854321E+03  0.00000000000E+00 0.  1.
          5    1    3    3  502    0  0.53147708457E+01  0.19036831880E+02 -0.40363566620E+03  0.40414661793E+03  0.47000000000E+01 0. -1.
         13    1    6    6    0    0 -0.14656459517E+02  0.77883675519E+00 -0.14232421488E+02  0.20444564404E+02  0.00000000000E+00 0. -1.
        -14    1    6    6    0    0  0.10327081956E+03 -0.38098169257E+02 -0.17354576884E+03  0.20551025900E+03  0.00000000000E+00 0.  1.
         -5    1    5    5    0  503  0.13177233868E+02 -0.10198426872E+03 -0.48780560023E+02  0.11391252607E+03  0.47000000000E+01 0.  1.
<mgrwt>
<rscale>  2 0.24246919E+03</rscale>
<asrwt>0</asrwt>
<pdfrwt beam="1">  1       21 0.10195785E-01 0.24402822E+03</pdfrwt>
<pdfrwt beam="2">  1       21 0.19318804E+00 0.24402822E+03</pdfrwt>
<totfact> 0.11217656E+04</totfact>
</mgrwt>
</event>
<event>
12    1  0.2769346E-001  0.1750307E+03  0.7546771E-02  0.1172783E+00
         21   -1    0    0  504  503  0.00000000000E+00  0.00000000000E+00  0.57535957580E+03  0.57535957580E+03  0.00000000000E+00 0.  1.
         21   -1    0    0  502  504 -0.00000000000E+00 -0.00000000000E+00 -0.86550908334E+02  0.86550908334E+02  0.00000000000E+00 0.  1.
          6    2    1    2  502    0 -0.23264784302E+02 -0.84010002367E+01  0.38940028996E+02  0.17931003647E+03  0.17327416521E+03 0.  0.
         24    2    3    3    0    0 -0.11793442792E+02 -0.11806225152E+02 -0.44897046085E+02  0.94492983995E+02  0.81453710976E+02 0.  0.
         -6    2    1    2    0  503  0.23264784302E+02  0.84010002367E+01  0.44986863847E+03  0.48260044766E+03  0.17294384410E+03 0.  0.
        -24    2    5    5    0    0  0.65268303673E+02 -0.28531909928E+02  0.36947424182E+03  0.38455104937E+03  0.79336453498E+02 0.  0.
          4    1    4    4  501    0  0.16269224855E+01  0.32446231315E+02 -0.33914956434E+02  0.46964125386E+02  0.00000000000E+00 0. -1.
         -3    1    4    4    0  501 -0.13420365278E+02 -0.44252456467E+02 -0.10982089651E+02  0.47528858609E+02  0.00000000000E+00 0.  1.
          5    1    3    3  502    0 -0.11471341510E+02  0.34052249156E+01  0.83837075081E+02  0.84817052477E+02  0.47000000000E+01 0. -1.
         13    1    6    6    0    0  0.24540441355E+02 -0.17036698348E+02  0.29610185676E+02  0.42062399459E+02  0.00000000000E+00 0. -1.
        -14    1    6    6    0    0  0.40727862318E+02 -0.11495211581E+02  0.33986405615E+03  0.34248864991E+03  0.00000000000E+00 0.  1.
         -5    1    5    5    0  503 -0.42003519371E+02  0.36932910165E+02  0.80394396646E+02  0.98049398290E+02  0.47000000000E+01 0.  1.
<mgrwt>
<rscale>  2 0.17494894E+03</rscale>
<asrwt>0</asrwt>
<pdfrwt beam="1">  1       21 0.88516855E-01 0.17503075E+03</pdfrwt>
<pdfrwt beam="2">  1       21 0.13315525E-01 0.17503075E+03</pdfrwt>
<totfact> 0.53601946E+04</totfact>
</mgrwt>
</event>
<event>
12    1  0.2769346E-001  0.3125714E+03  0.7546771E-02  0.1079144E+00
         21   -1    0    0  504  503  0.00000000000E+00  0.00000000000E+00  0.10942994029E+03  0.10942994029E+03  0.00000000000E+00 0. -1.
         21   -1    0    0  502  504 -0.00000000000E+00 -0.00000000000E+00 -0.89457640400E+03  0.89457640400E+03  0.00000000000E+00 0. -1.
          6    2    1    2  502    0 -0.25642132816E+03  0.43586049686E+02 -0.36674841122E+03  0.48174411702E+03  0.17297790579E+03 0.  0.
         24    2    3    3    0    0 -0.97676530205E+02  0.43952034407E+02 -0.25382743125E+03  0.28687677101E+03  0.79983942217E+02 0.  0.
         -6    2    1    2    0  503  0.25642132816E+03 -0.43586049686E+02 -0.41839805249E+03  0.52226222727E+03  0.17334723085E+03 0.  0.
        -24    2    5    5    0    0  0.90601927305E+02 -0.59442133356E+02 -0.11999051543E+03  0.18047773776E+03  0.80202329061E+02 0.  0.
          2    1    4    4  501    0 -0.10427825601E+03  0.46567851288E+02 -0.25525069278E+03  0.27963446786E+03  0.00000000000E+00 0. -1.
         -1    1    4    4    0  501  0.66017258027E+01 -0.26158168805E+01  0.14232615383E+01  0.72423031512E+01  0.00000000000E+00 0.  1.
          5    1    3    3  502    0 -0.15874479796E+03 -0.36598472127E+00 -0.11292097997E+03  0.19486734601E+03  0.47000000000E+01 0. -1.
         11    1    6    6    0    0  0.36193761878E+02  0.38574047637E+01 -0.80067055680E+02  0.87952267598E+02  0.00000000000E+00 0. -1.
        -12    1    6    6    0    0  0.54408165427E+02 -0.63299538120E+02 -0.39923459747E+02  0.92525470166E+02  0.00000000000E+00 0.  1.
         -5    1    5    5    0  503  0.16581940086E+03  0.15856083670E+02 -0.29840753707E+03  0.34178448951E+03  0.47000000000E+01 0.  1.
<mgrwt>
<rscale>  2 0.31252026E+03</rscale>
<asrwt>0</asrwt>
<pdfrwt beam="1">  1       21 0.16835376E-01 0.31257144E+03</pdfrwt>
<pdfrwt beam="2">  1       21 0.13762713E+00 0.31257144E+03</pdfrwt>
<totfact> 0.11077792E+04</totfact>
</mgrwt>
</event>
<event>
12    1  0.2769346E-001  0.2321549E+03  0.7546771E-02  0.1125521E+00
         21   -1    0    0  504  503  0.00000000000E+00  0.00000000000E+00  0.33084343058E+03  0.33084343058E+03  0.00000000000E+00 0.  1.
         21   -1    0    0  502  504 -0.00000000000E+00 -0.00000000000E+00 -0.33800669915E+03  0.33800669915E+03  0.00000000000E+00 0.  1.
          6    2    1    2  502    0  0.99265702777E+01 -0.15087508500E+03 -0.24534391421E+03  0.33624534846E+03  0.17322087072E+03 0.  0.
         24    2    3    3    0    0 -0.31028695017E+02 -0.12209536638E+03 -0.94341315111E+02  0.17709296585E+03  0.81188523872E+02 0.  0.
         -6    2    1    2    0  503 -0.99265702777E+01  0.15087508500E+03  0.23818064564E+03  0.33260478127E+03  0.17616495818E+03 0.  0.
        -24    2    5    5    0    0  0.24588361719E+02  0.78630133302E+02  0.22421145477E+03  0.25119322269E+03  0.77717264996E+02 0.  0.
          2    1    4    4  501    0 -0.54336499349E+02 -0.51064299649E+02 -0.54683595219E+02  0.92467904952E+02  0.00000000000E+00 0. -1.
         -1    1    4    4    0  501  0.23307804333E+02 -0.71031066734E+02 -0.39657719891E+02  0.84625060893E+02  0.00000000000E+00 0.  1.
          5    1    3    3  502    0  0.40955265294E+02 -0.28779718620E+02 -0.15100259910E+03  0.15915238262E+03  0.47000000000E+01 0. -1.
         11    1    6    6    0    0  0.57572111671E+01  0.13322255748E+01 -0.55134052655E+01  0.80819516843E+01  0.00000000000E+00 0. -1.
        -12    1    6    6    0    0  0.18831150552E+02  0.77297907727E+02  0.22972486003E+03  0.24311127100E+03  0.00000000000E+00 0.  1.
         -5    1    5    5    0  503 -0.34514931997E+02  0.72244951702E+02  0.13969190875E+02  0.81411558582E+02  0.47000000000E+01 0.  1.
<mgrwt>
<rscale>  2 0.23159642E+03</rscale>
<asrwt>0</asrwt>
<pdfrwt beam="1">  1       21 0.50898989E-01 0.23215495E+03</pdfrwt>
<pdfrwt beam="2">  1       21 0.52001031E-01 0.23215495E+03</pdfrwt>
<totfact> 0.12574097E+04</totfact>
</mgrwt>
</event>
<event>
12    1  0.2769346E-001  0.2535853E+03  0.7546771E-02  0.1111854E+00
         21   -1    0    0  504  503  0.00000000000E+00  0.00000000000E+00  0.31608697917E+03  0.31608697917E+03  0.00000000000E+00 0.  1.
         21   -1    0    0  502  504 -0.00000000000E+00 -0.00000000000E+00 -0.21213764360E+03  0.21213764360E+03  0.00000000000E+00 0. -1.
          6    2    1    2  502    0  0.13817318669E+03 -0.11560908899E+03  0.11718090200E+03  0.27935077606E+03  0.17846064360E+03 0.  0.
         24    2    3    3    0    0  0.66315221823E+02 -0.94665123589E+02  0.14274315445E+03  0.20011861370E+03  0.79452231800E+02 0.  0.
         -6    2    1    2    0  503 -0.13817318669E+03  0.11560908899E+03 -0.13231566430E+02  0.24887384672E+03  0.17118944551E+03 0.  0.
        -24    2    5    5    0    0 -0.43323334094E+02  0.84193617011E+02 -0.60248576816E+02  0.13834730836E+03  0.80898765741E+02 0.  0.
          2    1    4    4  501    0 -0.88532022129E+01 -0.53974748679E+02  0.59121584529E+02  0.80542004207E+02  0.00000000000E+00 0. -1.
         -1    1    4    4    0  501  0.75168424036E+02 -0.40690374910E+02  0.83621569922E+02  0.11957660950E+03  0.00000000000E+00 0.  1.
          5    1    3    3  502    0  0.71857964868E+02 -0.20943965396E+02 -0.25562252451E+02  0.79232162357E+02  0.47000000000E+01 0. -1.
         13    1    6    6    0    0 -0.62233182224E+02  0.68739125481E+02 -0.65296476386E+02  0.11340928608E+03  0.00000000000E+00 0. -1.
        -14    1    6    6    0    0  0.18909848130E+02  0.15454491530E+02  0.50478995706E+01  0.24938022271E+02  0.00000000000E+00 0.  1.
         -5    1    5    5    0  503 -0.94849852596E+02  0.31415471974E+02  0.47017010386E+02  0.11052653836E+03  0.47000000000E+01 0.  1.
<mgrwt>
<rscale>  2 0.25230983E+03</rscale>
<asrwt>0</asrwt>
<pdfrwt beam="1">  1       21 0.48628766E-01 0.25358528E+03</pdfrwt>
<pdfrwt beam="2">  1       21 0.32636561E-01 0.25358528E+03</pdfrwt>
<totfact> 0.35432089E+04</totfact>
</mgrwt>
</event>
<event>
12    1  0.2769346E-001  0.1877364E+03  0.7546771E-02  0.1163210E+00
         21   -1    0    0  504  503  0.00000000000E+00  0.00000000000E+00  0.60702937591E+03  0.60702937591E+03  0.00000000000E+00 0.  1.
         21   -1    0    0  502  504 -0.00000000000E+00 -0.00000000000E+00 -0.13551264063E+03  0.13551264063E+03  0.00000000000E+00 0.  1.
          6    2    1    2  502    0  0.41042709951E+02  0.38265767215E+01 -0.48106088878E+02  0.19380179341E+03  0.18315510535E+03 0.  0.
         24    2    3    3    0    0 -0.20501214406E+02  0.48606679748E+02 -0.61998245183E+02  0.11629054095E+03  0.83046965025E+02 0.  0.
         -6    2    1    2    0  503 -0.41042709951E+02 -0.38265767215E+01  0.51962282416E+03  0.54874022312E+03  0.17148995992E+03 0.  0.
        -24    2    5    5    0    0  0.13239923646E+02  0.41307986490E+02  0.17922344528E+03  0.20106571982E+03  0.80154444800E+02 0.  0.
          4    1    4    4  501    0 -0.18031395504E+02  0.61120843452E+02 -0.12197195198E+02  0.64881895000E+02  0.00000000000E+00 0. -1.
         -3    1    4    4    0  501 -0.24698189022E+01 -0.12514163704E+02 -0.49801049985E+02  0.51408645948E+02  0.00000000000E+00 0.  1.
          5    1    3    3  502    0  0.61543924357E+02 -0.44780103026E+02  0.13892156305E+02  0.77511252467E+02  0.47000000000E+01 0. -1.
         13    1    6    6    0    0  0.14889050600E+02  0.65297562862E+02  0.12722221181E+03  0.14377394313E+03  0.00000000000E+00 0. -1.
        -14    1    6    6    0    0 -0.16491269543E+01 -0.23989576372E+02  0.52001233468E+02  0.57291776691E+02  0.00000000000E+00 0.  1.
         -5    1    5    5    0  503 -0.54282633597E+02 -0.45134563212E+02  0.34039937888E+03  0.34767450330E+03  0.47000000000E+01 0.  1.
<mgrwt>
<rscale>  2 0.18482904E+03</rscale>
<asrwt>0</asrwt>
<pdfrwt beam="1">  1       21 0.93389133E-01 0.18773636E+03</pdfrwt>
<pdfrwt beam="2">  1       21 0.20848099E-01 0.18773636E+03</pdfrwt>
<totfact> 0.20651925E+04</totfact>
</mgrwt>
</event>
<event>
12    1  0.2769346E-001  0.2986124E+03  0.7546771E-02  0.1085958E+00
         21   -1    0    0  504  503  0.00000000000E+00  0.00000000000E+00  0.68619613156E+03  0.68619613156E+03  0.00000000000E+00 0.  1.
         21   -1    0    0  502  504 -0.00000000000E+00 -0.00000000000E+00 -0.14303704690E+03  0.14303704690E+03  0.00000000000E+00 0. -1.
          6    2    1    2  502    0 -0.17926889570E+03 -0.16444978161E+03  0.14586808855E+03  0.33233545754E+03  0.17317127199E+03 0.  0.
         24    2    3    3    0    0 -0.38044163496E+02 -0.90158665970E+01  0.27392311258E+02  0.91165959620E+02  0.77667555973E+02 0.  0.
         -6    2    1    2    0  503  0.17926889570E+03  0.16444978161E+03  0.39729099610E+03  0.49689772092E+03  0.17287608810E+03 0.  0.
        -24    2    5    5    0    0  0.19337635554E+03  0.10531055986E+03  0.28284311776E+03  0.36721782722E+03  0.79774522672E+02 0.  0.
          4    1    4    4  501    0 -0.20655043627E+01  0.23755799265E+02 -0.13674083445E+02  0.27487903978E+02  0.00000000000E+00 0. -1.
         -3    1    4    4    0  501 -0.35978659134E+02 -0.32771665862E+02  0.41066394703E+02  0.63678055642E+02  0.00000000000E+00 0.  1.
          5    1    3    3  502    0 -0.14122473220E+03 -0.15543391501E+03  0.11847577730E+03  0.24116949792E+03  0.47000000000E+01 0. -1.
         13    1    6    6    0    0  0.69104142325E+02  0.25194455462E+02  0.42256318381E+02  0.84827704882E+02  0.00000000000E+00 0. -1.
        -14    1    6    6    0    0  0.12427221322E+03  0.80116104397E+02  0.24058679937E+03  0.28239012234E+03  0.00000000000E+00 0.  1.
         -5    1    5    5    0  503 -0.14107459840E+02  0.59139221749E+02  0.11444787835E+03  0.12967989370E+03  0.47000000000E+01 0.  1.
<mgrwt>
<rscale>  2 0.29856961E+03</rscale>
<asrwt>0</asrwt>
<pdfrwt beam="1">  1       21 0.10556863E+00 0.29861239E+03</pdfrwt>
<pdfrwt beam="2">  1       21 0.22005700E-01 0.29861239E+03</pdfrwt>
<totfact> 0.13119811E+04</totfact>
</mgrwt>
</event>
<event>
12    1  0.2769346E-001  0.1835756E+03  0.7546771E-02  0.1165434E+00
         21   -1    0    0  504  503  0.00000000000E+00  0.00000000000E+00  0.18972745845E+03  0.18972745845E+03  0.00000000000E+00 0.  1.
         21   -1    0    0  502  504 -0.00000000000E+00 -0.00000000000E+00 -0.21132613326E+03  0.21132613326E+03  0.00000000000E+00 0.  1.
          6    2    1    2  502    0 -0.59144333016E+02  0.85567495228E+01  0.74244223423E+02  0.19396453070E+03  0.16893420130E+03 0.  0.
         24    2    3    3    0    0 -0.48186891813E+02  0.64665328656E+02  0.21003534563E+02  0.11570279599E+03  0.80264607788E+02 0.  0.
         -6    2    1    2    0  503  0.59144333016E+02 -0.85567495228E+01 -0.95842898224E+02  0.20708906100E+03  0.17357634619E+03 0.  0.
        -24    2    5    5    0    0  0.66707910096E+01  0.57678410780E+02 -0.49117045585E+02  0.11041453294E+03  0.80047400926E+02 0.  0.
          4    1    4    4  501    0 -0.69822099397E+02  0.57604763222E+02  0.12355703229E+02  0.91356979550E+02  0.00000000000E+00 0. -1.
         -3    1    4    4    0  501  0.21635207584E+02  0.70605654334E+01  0.86478313344E+01  0.24345816442E+02  0.00000000000E+00 0.  1.
          5    1    3    3  502    0 -0.10957441202E+02 -0.56108579133E+02  0.53240688860E+02  0.78261734713E+02  0.47000000000E+01 0. -1.
         13    1    6    6    0    0 -0.31639136677E+02  0.27433736454E+01 -0.12925830161E+02  0.34287580171E+02  0.00000000000E+00 0. -1.
        -14    1    6    6    0    0  0.38309927687E+02  0.54935037135E+02 -0.36191215424E+02  0.76126952771E+02  0.00000000000E+00 0.  1.
         -5    1    5    5    0  503  0.52473542006E+02 -0.66235160303E+02 -0.46725852640E+02  0.96674528062E+02  0.47000000000E+01 0.  1.
<mgrwt>
<rscale>  2 0.18246997E+03</rscale>
<asrwt>0</asrwt>
<pdfrwt beam="1">  1       21 0.29188840E-01 0.18357565E+03</pdfrwt>
<pdfrwt beam="2">  1       21 0.32511713E-01 0.18357565E+03</pdfrwt>
<totfact> 0.10267296E+05</totfact>
</mgrwt>
</event>
<event>
12    1  0.2769346E-001  0.2785210E+03  0.7546771E-02  0.1096508E+00
         21   -1    0    0  504  503  0.00000000000E+00  0.00000000000E+00  0.39348586433E+03  0.39348586433E+03  0.00000000000E+00 0.  1.
         21   -1    0    0  502  504 -0.00000000000E+00 -0.00000000000E+00 -0.31835009782E+03  0.31835009782E+03  0.00000000000E+00 0.  1.
          6    2    1    2  502    0 -0.21231665846E+03  0.46834401014E+02 -0.18208599201E+03  0.33270937352E+03  0.17397814278E+03 0.  0.
         24    2    3    3    0    0 -0.15823442227E+03 -0.28529492460E+02 -0.15140382057E+03  0.23489275758E+03  0.79996414591E+02 0.  0.
         -6    2    1    2    0  503  0.21231665846E+03 -0.46834401014E+02  0.25722175852E+03  0.37912658863E+03  0.17407501995E+03 0.  0.
        -24    2    5    5    0    0  0.81009356138E+02 -0.76398420446E+02  0.11552266189E+03  0.18363653038E+03  0.89317721937E+02 0.  0.
          4    1    4    4  501    0 -0.52309885275E+02 -0.31133928547E+02 -0.15966138606E+02  0.62933005539E+02  0.00000000000E+00 0. -1.
         -3    1    4    4    0  501 -0.10592453700E+03  0.26044360870E+01 -0.13543768196E+03  0.17195975204E+03  0.00000000000E+00 0.  1.
          5    1    3    3  502    0 -0.54082236185E+02  0.75363893473E+02 -0.30682171443E+02  0.97816615944E+02  0.47000000000E+01 0. -1.
         11    1    6    6    0    0  0.66928679314E+02 -0.54358966293E+01  0.36230497113E+02  0.76299711716E+02  0.00000000000E+00 0. -1.
        -12    1    6    6    0    0  0.14080676824E+02 -0.70962523817E+02  0.79292164778E+02  0.10733681867E+03  0.00000000000E+00 0.  1.
         -5    1    5    5    0  503  0.13130730232E+03  0.29564019433E+02  0.14169909663E+03  0.19549005825E+03  0.47000000000E+01 0.  1.
<mgrwt>
<rscale>  2 0.27850585E+03</rscale>
<asrwt>0</asrwt>
<pdfrwt beam="1">  1       21 0.60536286E-01 0.27852098E+03</pdfrwt>
<pdfrwt beam="2">  1       21 0.48976939E-01 0.27852098E+03</pdfrwt>
<totfact> 0.96120448E+03</totfact>
</mgrwt>
</event>
<event>
12    1  0.2769346E-001  0.2533531E+03  0.7546771E-02  0.1111206E+00
         21   -1    0    0  504  503  0.00000000000E+00  0.00000000000E+00  0.10947635813E+04  0.10947635813E+04  0.00000000000E+00 0. -1.
         21   -1    0    0  502  504 -0.00000000000E+00 -0.00000000000E+00 -0.65212710170E+02  0.65212710170E+02  0.00000000000E+00 0.  1.
          6    2    1    2  502    0 -0.11132710431E+03  0.14831810209E+03  0.69908273805E+03  0.74357547519E+03  0.17261468390E+03 0.  0.
         24    2    3    3    0    0 -0.33741614672E+01  0.10497898165E+03  0.29466021062E+03  0.32272896169E+03  0.79355979210E+02 0.  0.
         -6    2    1    2    0  503  0.11132710431E+03 -0.14831810209E+03  0.33046813308E+03  0.41640081628E+03  0.17259336389E+03 0.  0.
        -24    2    5    5    0    0  0.55063770342E+02 -0.16637264284E+03  0.23307191066E+03  0.30238483788E+03  0.80013745988E+02 0.  0.
          2    1    4    4  501    0 -0.22903141183E+02  0.10859434857E+03  0.23590083433E+03  0.26070383590E+03  0.00000000000E+00 0. -1.
         -1    1    4    4    0  501  0.19528979716E+02 -0.36153669188E+01  0.58759376287E+02  0.62025125783E+02  0.00000000000E+00 0.  1.
          5    1    3    3  502    0 -0.10795294284E+03  0.43339120441E+02  0.40442252744E+03  0.42084651350E+03  0.47000000000E+01 0. -1.
         11    1    6    6    0    0 -0.16810877054E+02 -0.35790408962E+02  0.77061500855E+02  0.86614282165E+02  0.00000000000E+00 0. -1.
        -12    1    6    6    0    0  0.71874647396E+02 -0.13058223388E+03  0.15601040981E+03  0.21577055571E+03  0.00000000000E+00 0.  1.
         -5    1    5    5    0  503  0.56263333969E+02  0.18054540750E+02  0.97396222413E+02  0.11401597840E+03  0.47000000000E+01 0.  1.
<mgrwt>
<rscale>  2 0.25334951E+03</rscale>
<asrwt>0</asrwt>
<pdfrwt beam="1">  1       21 0.16842515E+00 0.25335314E+03</pdfrwt>
<pdfrwt beam="2">  1       21 0.10032725E-01 0.25335314E+03</pdfrwt>
<totfact> 0.16979725E+04</totfact>
</mgrwt>
</event>
<event>
12    1  0.2769346E-001  0.2000976E+03  0.7546771E-02  0.1150039E+00
         21   -1    0    0  504  503  0.00000000000E+00  0.00000000000E+00  0.68413569135E+03  0.68413569135E+03  0.00000000000E+00 0.  1.
         21   -1    0    0  502  504 -0.00000000000E+00 -0.00000000000E+00 -0.58001854451E+02  0.58001854451E+02  0.00000000000E+00 0.  1.
          6    2    1    2  502    0  0.34787812839E+02  0.95343393237E+02  0.31726124070E+03  0.37509167022E+03  0.17244857686E+03 0.  0.
         24    2    3    3    0    0 -0.44584162445E+02  0.30148617318E+02  0.16808079196E+03  0.19390898464E+03  0.80329664696E+02 0.  0.
         -6    2    1    2    0  503 -0.34787812839E+02 -0.95343393237E+02  0.30887259620E+03  0.36704587559E+03  0.17035210461E+03 0.  0.
        -24    2    5    5    0    0  0.45762083545E+02 -0.60440425271E+02  0.15607008765E+03  0.19075861116E+03  0.79270184649E+02 0.  0.
          2    1    4    4  501    0 -0.64854566972E+02  0.13407419482E+02  0.91578327578E+02  0.11301532567E+03  0.00000000000E+00 0. -1.
         -1    1    4    4    0  501  0.20270404527E+02  0.16741197836E+02  0.76502464382E+02  0.80893658967E+02  0.00000000000E+00 0.  1.
          5    1    3    3  502    0  0.79371975284E+02  0.65194775919E+02  0.14918044874E+03  0.18118268558E+03  0.47000000000E+01 0. -1.
         11    1    6    6    0    0 -0.29723017208E+01  0.12477810896E+02  0.57084555515E+02  0.58507921008E+02  0.00000000000E+00 0. -1.
        -12    1    6    6    0    0  0.48734385266E+02 -0.72918236167E+02  0.98985532132E+02  0.13225069015E+03  0.00000000000E+00 0.  1.
         -5    1    5    5    0  503 -0.80549896384E+02 -0.34902967965E+02  0.15280250855E+03  0.17628726443E+03  0.47000000000E+01 0.  1.
<mgrwt>
<rscale>  2 0.19964513E+03</rscale>
<asrwt>0</asrwt>
<pdfrwt beam="1">  1       21 0.10525164E+00 0.20009764E+03</pdfrwt>
<pdfrwt beam="2">  1       21 0.89233627E-02 0.20009764E+03</pdfrwt>
<totfact> 0.71776320E+04</totfact>
</mgrwt>
</event>
<event>
12    1  0.2769346E-001  0.2259517E+03  0.7546771E-02  0.1129746E+00
         21   -1    0    0  504  503  0.00000000000E+00  0.00000000000E+00  0.23084417585E+03  0.23084417585E+03  0.00000000000E+00 0. -1.
         21   -1    0    0  502  504 -0.00000000000E+00 -0.00000000000E+00 -0.22496587519E+03  0.22496587519E+03  0.00000000000E+00 0.  1.
          6    2    1    2  502    0 -0.12028131232E+02  0.14336252434E+03 -0.31104492930E+02  0.22685173635E+03  0.17261729773E+03 0.  0.
         24    2    3    3    0    0 -0.30009595872E+01  0.44659350524E+01 -0.33716789895E+02  0.87558281943E+02  0.80626797541E+02 0.  0.
         -6    2    1    2    0  503  0.12028131232E+02 -0.14336252434E+03  0.36982793588E+02  0.22895831469E+03  0.17423172363E+03 0.  0.
        -24    2    5    5    0    0  0.56492855860E+02 -0.35762255184E+02  0.37841532660E+02  0.11243468150E+03  0.82092596206E+02 0.  0.
          2    1    4    4  501    0  0.28260103715E+02 -0.17248195979E+02  0.47455399458E+01  0.33446283440E+02  0.00000000000E+00 0. -1.
         -1    1    4    4    0  501 -0.31261063302E+02  0.21714131032E+02 -0.38462329841E+02  0.54111998503E+02  0.00000000000E+00 0.  1.
          5    1    3    3  502    0 -0.90271716445E+01  0.13889658929E+03  0.26122969646E+01  0.13929345440E+03  0.47000000000E+01 0. -1.
         13    1    6    6    0    0  0.26136400019E+01  0.24683149541E+02  0.70273926680E+01  0.25796767879E+02  0.00000000000E+00 0. -1.
        -14    1    6    6    0    0  0.53879215858E+02 -0.60445404725E+02  0.30814139992E+02  0.86637913625E+02  0.00000000000E+00 0.  1.
         -5    1    5    5    0  503 -0.44464724628E+02 -0.10760026916E+03 -0.85873907262E+00  0.11652363319E+03  0.47000000000E+01 0.  1.
<mgrwt>
<rscale>  2 0.22564045E+03</rscale>
<asrwt>0</asrwt>
<pdfrwt beam="1">  1       21 0.35514489E-01 0.22595173E+03</pdfrwt>
<pdfrwt beam="2">  1       21 0.34610135E-01 0.22595173E+03</pdfrwt>
<totfact> 0.60605132E+04</totfact>
</mgrwt>
</event>
<event>
12    1  0.2769346E-001  0.2226923E+03  0.7546771E-02  0.1132110E+00
         21   -1    0    0  504  503  0.00000000000E+00  0.00000000000E+00  0.92355985536E+02  0.92355985536E+02  0.00000000000E+00 0. -1.
         21   -1    0    0  502  504 -0.00000000000E+00 -0.00000000000E+00 -0.68906484069E+03  0.68906484069E+03  0.00000000000E+00 0. -1.
          6    2    1    2  502    0 -0.11784028639E+03  0.74935407894E+02 -0.48424986790E+03  0.53300073043E+03  0.17346525769E+03 0.  0.
         24    2    3    3    0    0 -0.13896511442E+03  0.72203145345E+02 -0.47959598291E+03  0.51069664418E+03  0.79209584803E+02 0.  0.
         -6    2    1    2    0  503  0.11784028639E+03 -0.74935407894E+02 -0.11245898726E+03  0.24842009580E+03  0.17194147763E+03 0.  0.
        -24    2    5    5    0    0  0.14993929614E+03 -0.64541420399E+02 -0.11278772150E+03  0.21435281723E+03  0.81109017125E+02 0.  0.
          4    1    4    4  501    0 -0.61795644282E+02  0.75380779842E+02 -0.29133644952E+03  0.30720984757E+03  0.00000000000E+00 0. -1.
         -3    1    4    4    0  501 -0.77169470141E+02 -0.31776344964E+01 -0.18825953339E+03  0.20348679661E+03  0.00000000000E+00 0.  1.
          5    1    3    3  502    0  0.21124828031E+02  0.27322625488E+01 -0.46538849820E+01  0.22304086249E+02  0.47000000000E+01 0. -1.
         13    1    6    6    0    0  0.96485975423E+02 -0.75548438713E+02 -0.10032358356E+03  0.15837276112E+03  0.00000000000E+00 0. -1.
        -14    1    6    6    0    0  0.53453320718E+02  0.11007018314E+02 -0.12464137940E+02  0.55980056114E+02  0.00000000000E+00 0.  1.
         -5    1    5    5    0  503 -0.32099009749E+02 -0.10393987495E+02  0.32873423918E+00  0.34067278569E+02  0.47000000000E+01 0.  1.
<mgrwt>
<rscale>  2 0.22239545E+03</rscale>
<asrwt>0</asrwt>
<pdfrwt beam="1">  1       21 0.14208614E-01 0.22269226E+03</pdfrwt>
<pdfrwt beam="2">  1       21 0.10600997E+00 0.22269226E+03</pdfrwt>
<totfact> 0.30395399E+04</totfact>
</mgrwt>
</event>
<event>
12    1  0.2769346E-001  0.2370161E+03  0.7546771E-02  0.1121805E+00
         21   -1    0    0  504  503  0.00000000000E+00  0.00000000000E+00  0.15821985954E+04  0.15821985954E+04  0.00000000000E+00 0.  1.
         21   -1    0    0  502  504 -0.00000000000E+00 -0.00000000000E+00 -0.55200205613E+02  0.55200205613E+02  0.00000000000E+00 0.  1.
          6    2    1    2  502    0 -0.14070360664E+03 -0.79384793968E+02  0.27433437938E+03  0.36250910483E+03  0.17336103640E+03 0.  0.
         24    2    3    3    0    0 -0.14981599864E+03 -0.71940479113E+02  0.28942185996E+03  0.34280693282E+03  0.78302708650E+02 0.  0.
         -6    2    1    2    0  503  0.14070360664E+03  0.79384793968E+02  0.12526640104E+04  0.12748896961E+04  0.17342769106E+03 0.  0.
        -24    2    5    5    0    0  0.19758937970E+01  0.46910238920E+02  0.49014765027E+03  0.49916212512E+03  0.81936764721E+02 0.  0.
          4    1    4    4  501    0 -0.15029608336E+03 -0.47829926295E+02  0.23210052504E+03  0.28061943668E+03  0.00000000000E+00 0. -1.
         -3    1    4    4    0  501  0.48008471207E+00 -0.24110552818E+02  0.57321334918E+02  0.62187496134E+02  0.00000000000E+00 0.  1.
          5    1    3    3  502    0  0.91123920079E+01 -0.74443148550E+01 -0.15087480579E+02  0.19702172012E+02  0.47000000000E+01 0. -1.
         11    1    6    6    0    0 -0.12768001269E+01  0.23558485178E+02  0.28878250725E+02  0.37290559226E+02  0.00000000000E+00 0. -1.
        -12    1    6    6    0    0  0.32526939238E+01  0.23351753741E+02  0.46126939955E+03  0.46187156589E+03  0.00000000000E+00 0.  1.
         -5    1    5    5    0  503  0.13872771284E+03  0.32474555048E+02  0.76251636010E+03  0.77572757103E+03  0.47000000000E+01 0.  1.
<mgrwt>
<rscale>  2 0.23700387E+03</rscale>
<asrwt>0</asrwt>
<pdfrwt beam="1">  1       21 0.24341513E+00 0.23701606E+03</pdfrwt>
<pdfrwt beam="2">  1       21 0.84923405E-02 0.23701606E+03</pdfrwt>
<totfact> 0.75568411E+03</totfact>
</mgrwt>
</event>
<event>
12    1  0.2769346E-001  0.1806266E+03  0.7546771E-02  0.1167231E+00
         21   -1    0    0  504  503  0.00000000000E+00  0.00000000000E+00  0.25321770750E+03  0.25321770750E+03  0.00000000000E+00 0. -1.
         21   -1    0    0  502  504 -0.00000000000E+00 -0.00000000000E+00 -0.17314619746E+03  0.17314619746E+03  0.00000000000E+00 0. -1.
          6    2    1    2  502    0 -0.28484083594E+02  0.43269619429E+02 -0.67902826181E+02  0.19296830809E+03  0.17303864060E+03 0.  0.
         24    2    3    3    0    0 -0.66937179743E+02 -0.19025592111E+02 -0.51741469854E+02  0.11785097705E+03  0.79806728421E+02 0.  0.
         -6    2    1    2    0  503  0.28484083594E+02 -0.43269619429E+02  0.14797433623E+03  0.23339559687E+03  0.17289736109E+03 0.  0.
        -24    2    5    5    0    0  0.28535386452E+02  0.36308539379E+02  0.38876291871E+02  0.98276540947E+02  0.77552138069E+02 0.  0.
          2    1    4    4  501    0 -0.32829016006E+02 -0.23879474970E+02 -0.68433610365E+02  0.79568414866E+02  0.00000000000E+00 0. -1.
         -1    1    4    4    0  501 -0.34108163738E+02  0.48538828589E+01  0.16692140511E+02  0.38282562182E+02  0.00000000000E+00 0.  1.
          5    1    3    3  502    0  0.38453096149E+02  0.62295211540E+02 -0.16161356327E+02  0.75117331040E+02  0.47000000000E+01 0. -1.
         13    1    6    6    0    0  0.38262122776E+02  0.14785648293E+02  0.55775158306E+02  0.69234916905E+02  0.00000000000E+00 0. -1.
        -14    1    6    6    0    0 -0.97267363235E+01  0.21522891086E+02 -0.16898866435E+02  0.29041624042E+02  0.00000000000E+00 0.  1.
         -5    1    5    5    0  503 -0.51302857929E-01 -0.79578158807E+02  0.10909804436E+03  0.13511905592E+03  0.47000000000E+01 0.  1.
<mgrwt>
<rscale>  2 0.18059277E+03</rscale>
<asrwt>0</asrwt>
<pdfrwt beam="1">  1       21 0.38956570E-01 0.18062662E+03</pdfrwt>
<pdfrwt beam="2">  1       21 0.26637877E-01 0.18062662E+03</pdfrwt>
<totfact> 0.85624228E+04</totfact>
</mgrwt>
</event>
<event>
12    1  0.2769346E-001  0.1902690E+03  0.7546771E-02  0.1158745E+00
         21   -1    0    0  504  503  0.00000000000E+00  0.00000000000E+00  0.12381067731E+04  0.12381067731E+04  0.00000000000E+00 0. -1.
         21   -1    0    0  502  504 -0.00000000000E+00 -0.00000000000E+00 -0.40262603161E+02  0.40262603161E+02  0.00000000000E+00 0. -1.
          6    2    1    2  502    0  0.63990993954E+02 -0.46243763171E+02  0.26176986072E+03  0.32361357811E+03  0.17311543842E+03 0.  0.
         24    2    3    3    0    0  0.72930056275E+02 -0.78092880163E+02  0.25746884801E+03  0.28992586821E+03  0.79683814680E+02 0.  0.
         -6    2    1    2    0  503 -0.63990993954E+02  0.46243763171E+02  0.93607430921E+03  0.95475579813E+03  0.17055846147E+03 0.  0.
        -24    2    5    5    0    0 -0.93732102312E+02  0.50986121112E+02  0.88798512424E+03  0.89782001680E+03  0.78599682886E+02 0.  0.
          2    1    4    4  501    0  0.24631345572E+02 -0.27688471887E+02  0.19393429355E+02  0.41826543752E+02  0.00000000000E+00 0. -1.
         -1    1    4    4    0  501  0.48298710703E+02 -0.50404408275E+02  0.23807541865E+03  0.24809932446E+03  0.00000000000E+00 0.  1.
          5    1    3    3  502    0 -0.89390623209E+01  0.31849116992E+02  0.43010127139E+01  0.33687709906E+02  0.47000000000E+01 0. -1.
         13    1    6    6    0    0 -0.19671330792E+02 -0.17669108541E+02  0.30579341406E+03  0.30693447303E+03  0.00000000000E+00 0. -1.
        -14    1    6    6    0    0 -0.74060771521E+02  0.68655229653E+02  0.58219171018E+03  0.59088554377E+03  0.00000000000E+00 0.  1.
         -5    1    5    5    0  503  0.29741108358E+02 -0.47423579414E+01  0.48089184964E+02  0.56935781331E+02  0.47000000000E+01 0.  1.
<mgrwt>
<rscale>  2 0.18968544E+03</rscale>
<asrwt>0</asrwt>
<pdfrwt beam="1">  1       21 0.19047794E+00 0.19026899E+03</pdfrwt>
<pdfrwt beam="2">  1       21 0.61942476E-02 0.19026899E+03</pdfrwt>
<totfact> 0.28958279E+04</totfact>
</mgrwt>
</event>
<event>
12    1  0.2769346E-001  0.2077076E+03  0.7546771E-02  0.1145004E+00
         21   -1    0    0  504  503  0.00000000000E+00  0.00000000000E+00  0.34335579831E+03  0.34335579831E+03  0.00000000000E+00 0.  1.
         21   -1    0    0  502  504 -0.00000000000E+00 -0.00000000000E+00 -0.12450506890E+03  0.12450506890E+03  0.00000000000E+00 0. -1.
          6    2    1    2  502    0 -0.98219407079E+02  0.50462349171E+02  0.71920744651E+02  0.21980679548E+03  0.17592308893E+03 0.  0.
         24    2    3    3    0    0 -0.18726565373E+02  0.45311771361E+02  0.98020209384E+02  0.13584899422E+03  0.80269215189E+02 0.  0.
         -6    2    1    2    0  503  0.98219407079E+02 -0.50462349171E+02  0.14692998475E+03  0.24805407172E+03  0.16658001521E+03 0.  0.
        -24    2    5    5    0    0  0.29657611669E+02 -0.86459725891E+02  0.95480232721E+02  0.15496434133E+03  0.80886427244E+02 0.  0.
          4    1    4    4  501    0 -0.14884394622E+02  0.32115144079E+02 -0.14570495893E+01  0.35426694398E+02  0.00000000000E+00 0. -1.
         -3    1    4    4    0  501 -0.38421707508E+01  0.13196627282E+02  0.99477258973E+02  0.10042229982E+03  0.00000000000E+00 0.  1.
          5    1    3    3  502    0 -0.79492841706E+02  0.51505778108E+01 -0.26099464733E+02  0.83957801268E+02  0.47000000000E+01 0. -1.
         11    1    6    6    0    0  0.52892276265E+02 -0.75641312438E+02  0.56203398607E+02  0.10806490203E+03  0.00000000000E+00 0. -1.
        -12    1    6    6    0    0 -0.23234664596E+02 -0.10818413453E+02  0.39276834115E+02  0.46899439300E+02  0.00000000000E+00 0.  1.
         -5    1    5    5    0  503  0.68561795410E+02  0.35997376719E+02  0.51449752033E+02  0.93089730394E+02  0.47000000000E+01 0.  1.
<mgrwt>
<rscale>  2 0.20571621E+03</rscale>
<asrwt>0</asrwt>
<pdfrwt beam="1">  1       21 0.52823969E-01 0.20770757E+03</pdfrwt>
<pdfrwt beam="2">  1       21 0.19154626E-01 0.20770757E+03</pdfrwt>
<totfact> 0.84430481E+04</totfact>
</mgrwt>
</event>
<event>
12    1  0.2769346E-001  0.1778218E+03  0.7546771E-02  0.1170229E+00
         21   -1    0    0  504  503  0.00000000000E+00  0.00000000000E+00  0.60185875688E+03  0.60185875688E+03  0.00000000000E+00 0. -1.
         21   -1    0    0  502  504 -0.00000000000E+00 -0.00000000000E+00 -0.70392711906E+02  0.70392711906E+02  0.00000000000E+00 0. -1.
          6    2    1    2  502    0 -0.34411285927E+02 -0.18649439148E+01  0.94073758426E+02  0.20009409003E+03  0.17320553751E+03 0.  0.
         24    2    3    3    0    0 -0.67509935640E+02 -0.16447789485E+02  0.11492691330E+03  0.15808071042E+03  0.83385816650E+02 0.  0.
         -6    2    1    2    0  503  0.34411285927E+02  0.18649439148E+01  0.43739228655E+03  0.47215737876E+03  0.17445046107E+03 0.  0.
        -24    2    5    5    0    0 -0.13315225974E+02 -0.44840716446E+02  0.14901065741E+03  0.17610790203E+03  0.81374640031E+02 0.  0.
          2    1    4    4  501    0 -0.38218894148E+02 -0.45628905370E+02  0.37622915366E+02  0.70414236031E+02  0.00000000000E+00 0. -1.
         -1    1    4    4    0  501 -0.29291041493E+02  0.29181115885E+02  0.77303997933E+02  0.87666474393E+02  0.00000000000E+00 0.  1.
          5    1    3    3  502    0  0.33098649713E+02  0.14582845570E+02 -0.20853154873E+02  0.42013379606E+02  0.47000000000E+01 0. -1.
         11    1    6    6    0    0 -0.17599704109E+02  0.20208384516E+02  0.60608621938E+02  0.66268646000E+02  0.00000000000E+00 0. -1.
        -12    1    6    6    0    0  0.42844781345E+01 -0.65049100962E+02  0.88402035474E+02  0.10983925603E+03  0.00000000000E+00 0.  1.
         -5    1    5    5    0  503  0.47726511902E+02  0.46705660361E+02  0.28838162914E+03  0.29604947673E+03  0.47000000000E+01 0.  1.
<mgrwt>
<rscale>  2 0.17751568E+03</rscale>
<asrwt>0</asrwt>
<pdfrwt beam="1">  1       21 0.92593652E-01 0.17782176E+03</pdfrwt>
<pdfrwt beam="2">  1       21 0.10829648E-01 0.17782176E+03</pdfrwt>
<totfact> 0.69766557E+04</totfact>
</mgrwt>
</event>
<event>
12    1  0.2769346E-001  0.2502366E+03  0.7546771E-02  0.1113957E+00
         21   -1    0    0  504  503  0.00000000000E+00  0.00000000000E+00  0.10370061232E+03  0.10370061232E+03  0.00000000000E+00 0. -1.
         21   -1    0    0  502  504 -0.00000000000E+00 -0.00000000000E+00 -0.61846536648E+03  0.61846536648E+03  0.00000000000E+00 0. -1.
          6    2    1    2  502    0 -0.77456611268E+02 -0.16077338175E+03 -0.32989045680E+03  0.41104405176E+03  0.16817220962E+03 0.  0.
         24    2    3    3    0    0 -0.91513052974E+02 -0.12489868366E+03 -0.18688043661E+03  0.26285993186E+03  0.10097884007E+03 0.  0.
         -6    2    1    2    0  503  0.77456611268E+02  0.16077338175E+03 -0.18487429735E+03  0.31112192705E+03  0.17541590794E+03 0.  0.
        -24    2    5    5    0    0  0.95591658601E+02  0.17829466151E+03 -0.18521221807E+03  0.28546886920E+03  0.79133798369E+02 0.  0.
          4    1    4    4  501    0 -0.89971755295E+02 -0.37986618748E+02 -0.10589867268E+03  0.14405703325E+03  0.00000000000E+00 0. -1.
         -3    1    4    4    0  501 -0.15412976790E+01 -0.86912064917E+02 -0.80981763934E+02  0.11880289860E+03  0.00000000000E+00 0.  1.
          5    1    3    3  502    0  0.14056441706E+02 -0.35874698083E+02 -0.14301002019E+03  0.14818411990E+03  0.47000000000E+01 0. -1.
         11    1    6    6    0    0  0.22464591616E+02  0.10411292931E+03 -0.58776714028E+02  0.12165057352E+03  0.00000000000E+00 0. -1.
        -12    1    6    6    0    0  0.73127066985E+02  0.74181732202E+02 -0.12643550404E+03  0.16381829568E+03  0.00000000000E+00 0.  1.
         -5    1    5    5    0  503 -0.18135047333E+02 -0.17521279764E+02  0.33792071552E+00  0.25653057844E+02  0.47000000000E+01 0.  1.
<mgrwt>
<rscale>  2 0.24897116E+03</rscale>
<asrwt>0</asrwt>
<pdfrwt beam="1">  1       21 0.15953940E-01 0.25023658E+03</pdfrwt>
<pdfrwt beam="2">  1       21 0.95148519E-01 0.25023658E+03</pdfrwt>
<totfact> 0.31411187E+04</totfact>
</mgrwt>
</event>
<event>
12    1  0.2769346E-001  0.2273635E+03  0.7546771E-02  0.1128755E+00
         21   -1    0    0  504  503  0.00000000000E+00  0.00000000000E+00  0.49105508834E+03  0.49105508834E+03  0.00000000000E+00 0. -1.
         21   -1    0    0  502  504 -0.00000000000E+00 -0.00000000000E+00 -0.12253407989E+03  0.12253407989E+03  0.00000000000E+00 0. -1.
          6    2    1    2  502    0 -0.13350120850E+03 -0.60190709425E+02  0.30198178834E+03  0.37800417734E+03  0.17392142888E+03 0.  0.
         24    2    3    3    0    0 -0.77079395537E+02 -0.86213173504E+02  0.11171240212E+03  0.17779149306E+03  0.75869689033E+02 0.  0.
         -6    2    1    2    0  503  0.13350120850E+03  0.60190709425E+02  0.66539220103E+02  0.23558499089E+03  0.17212590144E+03 0.  0.
        -24    2    5    5    0    0  0.10907051991E+03  0.10042539582E+03  0.79728063373E+02  0.18647568300E+03  0.80218313498E+02 0.  0.
          2    1    4    4  501    0 -0.77834811704E+02 -0.58272436972E+02  0.11389775551E+03  0.14975524543E+03  0.00000000000E+00 0. -1.
         -1    1    4    4    0  501  0.75541616750E+00 -0.27940736532E+02 -0.21853533894E+01  0.28036247627E+02  0.00000000000E+00 0.  1.
          5    1    3    3  502    0 -0.56421812965E+02  0.26022464079E+02  0.19026938622E+03  0.20021268428E+03  0.47000000000E+01 0. -1.
         13    1    6    6    0    0  0.82160990128E+02  0.82860497241E+02  0.95399866168E+02  0.15072300676E+03  0.00000000000E+00 0. -1.
        -14    1    6    6    0    0  0.26909529783E+02  0.17564898583E+02 -0.15671802795E+02  0.35752676239E+02  0.00000000000E+00 0.  1.
         -5    1    5    5    0  503  0.24430688590E+02 -0.40234686399E+02 -0.13188843270E+02  0.49109307889E+02  0.47000000000E+01 0.  1.
<mgrwt>
<rscale>  2 0.22702008E+03</rscale>
<asrwt>0</asrwt>
<pdfrwt beam="1">  1       21 0.75546936E-01 0.22736349E+03</pdfrwt>
<pdfrwt beam="2">  1       21 0.18851397E-01 0.22736349E+03</pdfrwt>
<totfact> 0.39618827E+04</totfact>
</mgrwt>
</event>
<event>
12    1  0.2769346E-001  0.2028750E+03  0.7546771E-02  0.1147602E+00
         21   -1    0    0  504  503  0.00000000000E+00  0.00000000000E+00  0.48509437356E+03  0.48509437356E+03  0.00000000000E+00 0. -1.
         21   -1    0    0  502  504 -0.00000000000E+00 -0.00000000000E+00 -0.53248414339E+03  0.53248414339E+03  0.00000000000E+00 0. -1.
          6    2    1    2  502    0  0.14693698604E+02 -0.10338812642E+03 -0.49045793973E+03  0.53027196122E+03  0.17243651803E+03 0.  0.
         24    2    3    3    0    0 -0.31618156284E+02 -0.98698081343E+01 -0.31328601539E+03  0.32459638043E+03  0.78214844069E+02 0.  0.
         -6    2    1    2    0  503 -0.14693698604E+02  0.10338812642E+03  0.44306816990E+03  0.48730655573E+03  0.17393466191E+03 0.  0.
        -24    2    5    5    0    0  0.46358511771E+02  0.12478670133E+02  0.22879306215E+03  0.24662458001E+03  0.78565828171E+02 0.  0.
          2    1    4    4  501    0  0.96204802723E+01  0.12785670013E+02 -0.21535298312E+03  0.21594660066E+03  0.00000000000E+00 0. -1.
         -1    1    4    4    0  501 -0.41238636557E+02 -0.22655478147E+02 -0.97933032265E+02  0.10864977977E+03  0.00000000000E+00 0.  1.
          5    1    3    3  502    0  0.46311854888E+02 -0.93518318281E+02 -0.17717192434E+03  0.20567558079E+03  0.47000000000E+01 0. -1.
         11    1    6    6    0    0  0.50981491312E+02 -0.12628552722E+02  0.80289848566E+02  0.95942965260E+02  0.00000000000E+00 0. -1.
        -12    1    6    6    0    0 -0.46229795408E+01  0.25107222855E+02  0.14850321359E+03  0.15068161475E+03  0.00000000000E+00 0.  1.
         -5    1    5    5    0  503 -0.61052210375E+02  0.90909456282E+02  0.21427510775E+03  0.24068197571E+03  0.47000000000E+01 0.  1.
<mgrwt>
<rscale>  2 0.20255352E+03</rscale>
<asrwt>0</asrwt>
<pdfrwt beam="1">  1       21 0.74629904E-01 0.20287503E+03</pdfrwt>
<pdfrwt beam="2">  1       21 0.81920637E-01 0.20287503E+03</pdfrwt>
<totfact> 0.20762156E+03</totfact>
</mgrwt>
</event>
<event>
12    1  0.2769346E-001  0.1994436E+03  0.7546771E-02  0.1150317E+00
         21   -1    0    0  504  503  0.00000000000E+00  0.00000000000E+00  0.32544338198E+03  0.32544338198E+03  0.00000000000E+00 0. -1.
         21   -1    0    0  502  504 -0.00000000000E+00 -0.00000000000E+00 -0.15813373389E+03  0.15813373389E+03  0.00000000000E+00 0. -1.
          6    2    1    2  502    0 -0.33594853421E+02 -0.91761422157E+02 -0.32143875175E+02  0.20151422109E+03  0.17328006180E+03 0.  0.
         24    2    3    3    0    0 -0.52531883335E+02 -0.88386360656E+02  0.31331224740E+02  0.13502226329E+03  0.81716696116E+02 0.  0.
         -6    2    1    2    0  503  0.33594853421E+02  0.91761422157E+02  0.19945352326E+03  0.28206289478E+03  0.17386487829E+03 0.  0.
        -24    2    5    5    0    0 -0.40338128490E+02  0.16427603307E+02  0.78329967329E+02  0.12133245001E+03  0.81785994420E+02 0.  0.
          4    1    4    4  501    0  0.80733406451E+01 -0.43966686058E+02  0.39220830507E+02  0.59468662821E+02  0.00000000000E+00 0. -1.
         -3    1    4    4    0  501 -0.60605223980E+02 -0.44419674598E+02 -0.78896057663E+01  0.75553600471E+02  0.00000000000E+00 0.  1.
          5    1    3    3  502    0  0.18937029913E+02 -0.33750615011E+01 -0.63475099915E+02  0.66491957794E+02  0.47000000000E+01 0. -1.
         13    1    6    6    0    0 -0.21829738306E+02  0.48341979538E+02  0.60171794073E+02  0.80213024268E+02  0.00000000000E+00 0. -1.
        -14    1    6    6    0    0 -0.18508390184E+02 -0.31914376231E+02  0.18158173256E+02  0.41119425743E+02  0.00000000000E+00 0.  1.
         -5    1    5    5    0  503  0.73932981911E+02  0.75333818851E+02  0.12112355593E+03  0.16073044477E+03  0.47000000000E+01 0.  1.
<mgrwt>
<rscale>  2 0.19931612E+03</rscale>
<asrwt>0</asrwt>
<pdfrwt beam="1">  1       21 0.50068213E-01 0.19944365E+03</pdfrwt>
<pdfrwt beam="2">  1       21 0.24328267E-01 0.19944365E+03</pdfrwt>
<totfact> 0.60427679E+04</totfact>
</mgrwt>
</event>
<event>
12    1  0.2769346E-001  0.2877137E+03  0.7546771E-02  0.1091643E+00
         21   -1    0    0  504  503  0.00000000000E+00  0.00000000000E+00  0.83443847613E+02  0.83443847613E+02  0.00000000000E+00 0.  1.
         21   -1    0    0  502  504 -0.00000000000E+00 -0.00000000000E+00 -0.13713807303E+04  0.13713807303E+04  0.00000000000E+00 0.  1.
          6    2    1    2  502    0  0.15877753620E+03 -0.16552052892E+03 -0.10283602375E+04  0.10678501479E+04  0.17370034231E+03 0.  0.
         24    2    3    3    0    0  0.48007475465E+02 -0.10654614329E+02 -0.28475930874E+03  0.30024485283E+03  0.81491528557E+02 0.  0.
         -6    2    1    2    0  503 -0.15877753620E+03  0.16552052892E+03 -0.25957664524E+03  0.38697443001E+03  0.17251615354E+03 0.  0.
        -24    2    5    5    0    0 -0.73508148692E+02  0.15824836353E+03 -0.22312066821E+03  0.29383538827E+03  0.78169113680E+02 0.  0.
          4    1    4    4  501    0 -0.15629770951E+02  0.19227894142E+02 -0.80273432618E+02  0.84010866187E+02  0.00000000000E+00 0. -1.
         -3    1    4    4    0  501  0.63637246416E+02 -0.29882508471E+02 -0.20448587613E+03  0.21623398664E+03  0.00000000000E+00 0.  1.
          5    1    3    3  502    0  0.11077006074E+03 -0.15486591459E+03 -0.74360092874E+03  0.76760529511E+03  0.47000000000E+01 0. -1.
         11    1    6    6    0    0  0.11086952164E+02  0.14930024602E+02 -0.45982900520E+01  0.19156471865E+02  0.00000000000E+00 0. -1.
        -12    1    6    6    0    0 -0.84595100856E+02  0.14331833892E+03 -0.21852237816E+03  0.27467891640E+03  0.00000000000E+00 0.  1.
         -5    1    5    5    0  503 -0.85269387509E+02  0.72721653987E+01 -0.36455977031E+02  0.93139041744E+02  0.47000000000E+01 0.  1.
<mgrwt>
<rscale>  2 0.28753517E+03</rscale>
<asrwt>0</asrwt>
<pdfrwt beam="1">  1       21 0.12837516E-01 0.28771368E+03</pdfrwt>
<pdfrwt beam="2">  1       21 0.21098164E+00 0.28771368E+03</pdfrwt>
<totfact> 0.55267910E+03</totfact>
</mgrwt>
</event>
<event>
12    1  0.2769346E-001  0.2729467E+03  0.7546771E-02  0.1099729E+00
         21   -1    0    0  504  503  0.00000000000E+00  0.00000000000E+00  0.29575891471E+03  0.29575891471E+03  0.00000000000E+00 0. -1.
         21   -1    0    0  502  504 -0.00000000000E+00 -0.00000000000E+00 -0.43593693085E+03  0.43593693085E+03  0.00000000000E+00 0. -1.
          6    2    1    2  502    0 -0.16524111147E+03 -0.12631828595E+03 -0.30825629453E+03  0.41114912988E+03  0.17538737014E+03 0.  0.
         24    2    3    3    0    0 -0.16925010821E+03 -0.12983505243E+03 -0.32097071283E+03  0.39658251963E+03  0.93556167154E+02 0.  0.
         -6    2    1    2    0  503  0.16524111147E+03  0.12631828595E+03  0.16807827840E+03  0.32054671568E+03  0.17674545250E+03 0.  0.
        -24    2    5    5    0    0  0.10066045030E+02  0.29287213295E+02  0.28051857076E+02  0.90060666268E+02  0.79780641751E+02 0.  0.
          4    1    4    4  501    0 -0.16336575453E+03 -0.90552901969E+02 -0.22315203019E+03  0.29100691811E+03  0.00000000000E+00 0. -1.
         -3    1    4    4    0  501 -0.58843536762E+01 -0.39282150460E+02 -0.97818682642E+02  0.10557560152E+03  0.00000000000E+00 0.  1.
          5    1    3    3  502    0  0.40089967384E+01  0.35167664796E+01  0.12714418308E+02  0.14566610252E+02  0.47000000000E+01 0. -1.
         13    1    6    6    0    0  0.15180903499E+02  0.14578765624E+02  0.55026084014E+02  0.58914091354E+02  0.00000000000E+00 0. -1.
        -14    1    6    6    0    0 -0.51148584682E+01  0.14708447670E+02 -0.26974226938E+02  0.31146574914E+02  0.00000000000E+00 0.  1.
         -5    1    5    5    0  503  0.15517506644E+03  0.97031072655E+02  0.14002642132E+03  0.23048604941E+03  0.47000000000E+01 0.  1.
<mgrwt>
<rscale>  2 0.27272705E+03</rscale>
<asrwt>0</asrwt>
<pdfrwt beam="1">  1       21 0.45501372E-01 0.27294668E+03</pdfrwt>
<pdfrwt beam="2">  1       21 0.67067220E-01 0.27294668E+03</pdfrwt>
<totfact> 0.89808906E+03</totfact>
</mgrwt>
</event>
<event>
12    1  0.2769346E-001  0.2221761E+03  0.7546771E-02  0.1132606E+00
         21   -1    0    0  504  503  0.00000000000E+00  0.00000000000E+00  0.54743808929E+03  0.54743808929E+03  0.00000000000E+00 0. -1.
         21   -1    0    0  502  504 -0.00000000000E+00 -0.00000000000E+00 -0.10248175281E+03  0.10248175281E+03  0.00000000000E+00 0. -1.
          6    2    1    2  502    0 -0.88720865339E+02 -0.10758940426E+03  0.33921977035E+03  0.40550248121E+03  0.17296050941E+03 0.  0.
         24    2    3    3    0    0 -0.73562385231E+02 -0.13243213505E+02  0.25918632526E+03  0.28076906322E+03  0.77890361628E+02 0.  0.
         -6    2    1    2    0  503  0.88720865339E+02  0.10758940426E+03  0.10573656613E+03  0.24441736089E+03  0.17062459679E+03 0.  0.
        -24    2    5    5    0    0  0.40245788552E+02  0.60202994507E+02 -0.10094312701E+02  0.11012593380E+03  0.82351090473E+02 0.  0.
          4    1    4    4  501    0  0.16217567085E+01  0.23395887114E+02  0.43208389884E+02  0.49162613693E+02  0.00000000000E+00 0. -1.
         -3    1    4    4    0  501 -0.75184141940E+02 -0.36639100619E+02  0.21597793538E+03  0.23160644953E+03  0.00000000000E+00 0.  1.
          5    1    3    3  502    0 -0.15158480108E+02 -0.94346190760E+02  0.80033445086E+02  0.12473341799E+03  0.47000000000E+01 0. -1.
         13    1    6    6    0    0 -0.15971310028E+02  0.49798898813E+02 -0.15590381323E+01  0.52320585498E+02  0.00000000000E+00 0. -1.
        -14    1    6    6    0    0  0.56217098580E+02  0.10404095694E+02 -0.85352745683E+01  0.57805348299E+02  0.00000000000E+00 0.  1.
         -5    1    5    5    0  503  0.48475076787E+02  0.47386409757E+02  0.11583087883E+03  0.13429142709E+03  0.47000000000E+01 0.  1.
<mgrwt>
<rscale>  2 0.22172129E+03</rscale>
<asrwt>0</asrwt>
<pdfrwt beam="1">  1       21 0.84221243E-01 0.22217608E+03</pdfrwt>
<pdfrwt beam="2">  1       21 0.15766424E-01 0.22217608E+03</pdfrwt>
<totfact> 0.43187769E+04</totfact>
</mgrwt>
</event>
<event>
12    1  0.2769346E-001  0.3303935E+03  0.7546771E-02  0.1070985E+00
         21   -1    0    0  504  503  0.00000000000E+00  0.00000000000E+00  0.28068478325E+03  0.28068478325E+03  0.00000000000E+00 0. -1.
         21   -1    0    0  502  504 -0.00000000000E+00 -0.00000000000E+00 -0.68493026439E+03  0.68493026439E+03  0.00000000000E+00 0.  1.
          6    2    1    2  502    0  0.24491834203E+03 -0.13894183668E+03 -0.51969041743E+03  0.61582300263E+03  0.17282943139E+03 0.  0.
         24    2    3    3    0    0  0.18630185312E+03 -0.16654667325E+03 -0.44674207049E+03  0.51814254862E+03  0.80293513435E+02 0.  0.
         -6    2    1    2    0  503 -0.24491834203E+03  0.13894183668E+03  0.11544493630E+03  0.34979204501E+03  0.17244452208E+03 0.  0.
        -24    2    5    5    0    0 -0.16381930354E+03  0.34036442535E+02  0.19462209720E+02  0.18603316871E+03  0.78957701479E+02 0.  0.
          4    1    4    4  501    0  0.12550914391E+03 -0.88529838711E+02 -0.33734203676E+03  0.37066120287E+03  0.00000000000E+00 0. -1.
         -3    1    4    4    0  501  0.60792709213E+02 -0.78016834542E+02 -0.10940003373E+03  0.14748134576E+03  0.00000000000E+00 0.  1.
          5    1    3    3  502    0  0.58616488901E+02  0.27604836571E+02 -0.72948346946E+02  0.97680454009E+02  0.47000000000E+01 0. -1.
         11    1    6    6    0    0 -0.11851621647E+03 -0.11443368870E+02  0.24784612706E+02  0.12161957607E+03  0.00000000000E+00 0. -1.
        -12    1    6    6    0    0 -0.45303087066E+02  0.45479811405E+02 -0.53224029868E+01  0.64413592639E+02  0.00000000000E+00 0.  1.
         -5    1    5    5    0  503 -0.81099038490E+02  0.10490539415E+03  0.95982726576E+02  0.16375887630E+03  0.47000000000E+01 0.  1.
<mgrwt>
<rscale>  2 0.33034316E+03</rscale>
<asrwt>0</asrwt>
<pdfrwt beam="1">  1       21 0.43182275E-01 0.33039346E+03</pdfrwt>
<pdfrwt beam="2">  1       21 0.10537389E+00 0.33039346E+03</pdfrwt>
<totfact> 0.34169285E+03</totfact>
</mgrwt>
</event>
<event>
12    1  0.2769346E-001  0.2672911E+03  0.7546771E-02  0.1102924E+00
         21   -1    0    0  504  503  0.00000000000E+00  0.00000000000E+00  0.16259108768E+03  0.16259108768E+03  0.00000000000E+00 0. -1.
         21   -1    0    0  502  504 -0.00000000000E+00 -0.00000000000E+00 -0.55053106964E+03  0.55053106964E+03  0.00000000000E+00 0. -1.
          6    2    1    2  502    0  0.17673374460E+03  0.99504639591E+02 -0.32931476198E+02  0.26873990738E+03  0.17320700308E+03 0.  0.
         24    2    3    3    0    0  0.21445773691E+02  0.58188128522E+02 -0.39846421288E+02  0.10783212491E+03  0.78703560037E+02 0.  0.
         -6    2    1    2    0  503 -0.17673374460E+03 -0.99504639591E+02 -0.35500850576E+03  0.44438224993E+03  0.17409352403E+03 0.  0.
        -24    2    5    5    0    0 -0.11905069960E+03 -0.60430753224E+02 -0.11356901665E+03  0.19304737535E+03  0.80897605516E+02 0.  0.
          4    1    4    4  501    0  0.70075482385E+01  0.49064201347E+02 -0.62307163976E+02  0.79615226363E+02  0.00000000000E+00 0. -1.
         -3    1    4    4    0  501  0.14438225452E+02  0.91239271755E+01  0.22460742689E+02  0.28216898544E+02  0.00000000000E+00 0.  1.
          5    1    3    3  502    0  0.15528797091E+03  0.41316511069E+02  0.69149450896E+01  0.16090778248E+03  0.47000000000E+01 0. -1.
         13    1    6    6    0    0 -0.65768246030E+02  0.77355952237E+01 -0.29794630215E+02  0.72615574149E+02  0.00000000000E+00 0. -1.
        -14    1    6    6    0    0 -0.53282453566E+02 -0.68166348448E+02 -0.83774386432E+02  0.12043180120E+03  0.00000000000E+00 0.  1.
         -5    1    5    5    0  503 -0.57683045004E+02 -0.39073886367E+02 -0.24143948911E+03  0.25133487458E+03  0.47000000000E+01 0.  1.
<mgrwt>
<rscale>  2 0.26714687E+03</rscale>
<asrwt>0</asrwt>
<pdfrwt beam="1">  1       21 0.25014014E-01 0.26729112E+03</pdfrwt>
<pdfrwt beam="2">  1       21 0.84697087E-01 0.26729112E+03</pdfrwt>
<totfact> 0.17545635E+04</totfact>
</mgrwt>
</event>
<event>
12    1  0.2769346E-001  0.1944644E+03  0.7546771E-02  0.1154524E+00
         21   -1    0    0  504  503  0.00000000000E+00  0.00000000000E+00  0.17556389469E+03  0.17556389469E+03  0.00000000000E+00 0.  1.
         21   -1    0    0  502  504 -0.00000000000E+00 -0.00000000000E+00 -0.26415680506E+03  0.26415680506E+03  0.00000000000E+00 0. -1.
          6    2    1    2  502    0  0.35560980573E+02 -0.81108520672E+02 -0.13888070413E+03  0.23885937717E+03  0.17298201241E+03 0.  0.
         24    2    3    3    0    0  0.24902464812E+02  0.13030028999E+02 -0.19709348917E+02  0.86545318736E+02  0.79446330003E+02 0.  0.
         -6    2    1    2    0  503 -0.35560980573E+02  0.81108520672E+02  0.50287793760E+02  0.20086132259E+03  0.17312779455E+03 0.  0.
        -24    2    5    5    0    0 -0.57790452095E+02  0.10686742245E+03  0.72921115391E+01  0.14583052108E+03  0.80330465284E+02 0.  0.
          4    1    4    4  501    0 -0.19755890145E+02 -0.19777773893E+02 -0.12649568437E+02  0.30683336149E+02  0.00000000000E+00 0. -1.
         -3    1    4    4    0  501  0.44658354957E+02  0.32807802892E+02 -0.70597804804E+01  0.55861982586E+02  0.00000000000E+00 0.  1.
          5    1    3    3  502    0  0.10658515762E+02 -0.94138549671E+02 -0.11917135521E+03  0.15231405843E+03  0.47000000000E+01 0. -1.
         13    1    6    6    0    0 -0.50663484736E+02  0.10118560258E+03  0.33555181670E+02  0.11803078019E+03  0.00000000000E+00 0. -1.
        -14    1    6    6    0    0 -0.71269673592E+01  0.56818198687E+01 -0.26263070131E+02  0.27799740888E+02  0.00000000000E+00 0.  1.
         -5    1    5    5    0  503  0.22229471522E+02 -0.25758901777E+02  0.42995682221E+02  0.55030801507E+02  0.47000000000E+01 0.  1.
<mgrwt>
<rscale>  2 0.19443196E+03</rscale>
<asrwt>0</asrwt>
<pdfrwt beam="1">  1       21 0.27009830E-01 0.19446442E+03</pdfrwt>
<pdfrwt beam="2">  1       21 0.40639508E-01 0.19446442E+03</pdfrwt>
<totfact> 0.76128187E+04</totfact>
</mgrwt>
</event>
<event>
12    1  0.2769346E-001  0.2014575E+03  0.7546771E-02  0.1148632E+00
         21   -1    0    0  504  503  0.00000000000E+00  0.00000000000E+00  0.14392603752E+03  0.14392603752E+03  0.00000000000E+00 0. -1.
         21   -1    0    0  502  504 -0.00000000000E+00 -0.00000000000E+00 -0.34208351927E+03  0.34208351927E+03  0.00000000000E+00 0. -1.
          6    2    1    2  502    0  0.82522967120E+02 -0.60132619605E+02 -0.20170846291E+03  0.28508141668E+03  0.17366386521E+03 0.  0.
         24    2    3    3    0    0  0.30997750962E+02 -0.44243203690E+02 -0.24361652322E+02  0.99659458255E+02  0.80126124818E+02 0.  0.
         -6    2    1    2    0  503 -0.82522967120E+02  0.60132619605E+02  0.35509811557E+01  0.20092814012E+03  0.17301310927E+03 0.  0.
        -24    2    5    5    0    0 -0.82687782786E+02  0.98052338979E+02  0.30971172198E+02  0.15389741443E+03  0.79206502639E+02 0.  0.
          4    1    4    4  501    0 -0.90767644746E+01 -0.39629303551E+02 -0.39393783021E+02  0.56610418599E+02  0.00000000000E+00 0. -1.
         -3    1    4    4    0  501  0.40074515436E+02 -0.46139001396E+01  0.15032130699E+02  0.43049039656E+02  0.00000000000E+00 0.  1.
          5    1    3    3  502    0  0.51525216158E+02 -0.15889415915E+02 -0.17734681059E+03  0.18542195842E+03  0.47000000000E+01 0. -1.
         11    1    6    6    0    0 -0.18998573600E+02  0.58273798460E+02  0.46848377585E+02  0.77146301714E+02  0.00000000000E+00 0. -1.
        -12    1    6    6    0    0 -0.63689209186E+02  0.39778540518E+02 -0.15877205388E+02  0.76751112718E+02  0.00000000000E+00 0.  1.
         -5    1    5    5    0  503  0.16481566610E+00 -0.37919719374E+02 -0.27420191042E+02  0.47030725684E+02  0.47000000000E+01 0.  1.
<mgrwt>
<rscale>  2 0.20131714E+03</rscale>
<asrwt>0</asrwt>
<pdfrwt beam="1">  1       21 0.22142468E-01 0.20145746E+03</pdfrwt>
<pdfrwt beam="2">  1       21 0.52628233E-01 0.20145746E+03</pdfrwt>
<totfact> 0.65012027E+04</totfact>
</mgrwt>
</event>
<event>
12    1  0.2769346E-001  0.3445049E+03  0.7546771E-02  0.1064967E+00
         21   -1    0    0  504  503  0.00000000000E+00  0.00000000000E+00  0.58891972793E+02  0.58891972793E+02  0.00000000000E+00 0. -1.
         21   -1    0    0  502  504 -0.00000000000E+00 -0.00000000000E+00 -0.21818012703E+04  0.21818012703E+04  0.00000000000E+00 0. -1.
          6    2    1    2  502    0  0.29702754762E+03 -0.14156576190E+02 -0.13737568565E+04  0.14161248546E+04  0.17255703561E+03 0.  0.
         24    2    3    3    0    0  0.13292750205E+03 -0.25037928514E+02 -0.92300801302E+03  0.93628755028E+03  0.79962278884E+02 0.  0.
         -6    2    1    2    0  503 -0.29702754762E+03  0.14156576190E+02 -0.74915244107E+03  0.82456838848E+03  0.17394790780E+03 0.  0.
        -24    2    5    5    0    0 -0.26038028849E+03  0.70497778967E+02 -0.62686133447E+03  0.68494547673E+03  0.58543504920E+02 0.  0.
          2    1    4    4  501    0  0.11793195642E+03  0.10142105177E+02 -0.66323840025E+03  0.67371803020E+03  0.00000000000E+00 0. -1.
         -1    1    4    4    0  501  0.14995545628E+02 -0.35180033692E+02 -0.25976961276E+03  0.26256952008E+03  0.00000000000E+00 0.  1.
          5    1    3    3  502    0  0.16410004558E+03  0.10881352324E+02 -0.45074884344E+03  0.47983730436E+03  0.47000000000E+01 0. -1.
         13    1    6    6    0    0 -0.20870105515E+03  0.34262346973E+02 -0.45175585625E+03  0.49881198111E+03  0.00000000000E+00 0. -1.
        -14    1    6    6    0    0 -0.51679233340E+02  0.36235431993E+02 -0.17510547822E+03  0.18613349563E+03  0.00000000000E+00 0.  1.
         -5    1    5    5    0  503 -0.36647259135E+02 -0.56341202777E+02 -0.12229110660E+03  0.13962291175E+03  0.47000000000E+01 0.  1.
<mgrwt>
<rscale>  2 0.34432975E+03</rscale>
<asrwt>0</asrwt>
<pdfrwt beam="1">  1       21 0.90603034E-02 0.34450493E+03</pdfrwt>
<pdfrwt beam="2">  1       21 0.33566174E+00 0.34450493E+03</pdfrwt>
<totfact> 0.17633715E+03</totfact>
</mgrwt>
</event>
<event>
12    1  0.2769346E-001  0.2706735E+03  0.7546771E-02  0.1101261E+00
         21   -1    0    0  504  503  0.00000000000E+00  0.00000000000E+00  0.25085419804E+03  0.25085419804E+03  0.00000000000E+00 0. -1.
         21   -1    0    0  502  504 -0.00000000000E+00 -0.00000000000E+00 -0.28978254982E+03  0.28978254982E+03  0.00000000000E+00 0. -1.
          6    2    1    2  502    0  0.12391302714E+03 -0.16696563625E+03 -0.30347300068E+02  0.26982730147E+03  0.16927448719E+03 0.  0.
         24    2    3    3    0    0  0.13166403461E+03 -0.76860919957E+02 -0.42614107817E+02  0.17844074564E+03  0.82353618582E+02 0.  0.
         -6    2    1    2    0  503 -0.12391302714E+03  0.16696563625E+03 -0.85810517089E+01  0.27080944639E+03  0.17329789329E+03 0.  0.
        -24    2    5    5    0    0 -0.12949166278E+03  0.13311758707E+03 -0.57379428319E+02  0.21097481453E+03  0.82034083511E+02 0.  0.
          4    1    4    4  501    0  0.72159854974E+01 -0.21357773521E+02  0.18439061518E+02  0.29124284131E+02  0.00000000000E+00 0. -1.
         -3    1    4    4    0  501  0.12444804911E+03 -0.55503146436E+02 -0.61053169334E+02  0.14931646151E+03  0.00000000000E+00 0.  1.
          5    1    3    3  502    0 -0.77510074622E+01 -0.90104716294E+02  0.12266807749E+02  0.91386555835E+02  0.47000000000E+01 0. -1.
         13    1    6    6    0    0 -0.34212414639E+02  0.88086192660E+02 -0.45630261386E+02  0.10493706403E+03  0.00000000000E+00 0. -1.
        -14    1    6    6    0    0 -0.95279248142E+02  0.45031394406E+02 -0.11749166933E+02  0.10603775051E+03  0.00000000000E+00 0.  1.
         -5    1    5    5    0  503  0.55786356360E+01  0.33848049185E+02  0.48798376610E+02  0.59834631853E+02  0.47000000000E+01 0.  1.
<mgrwt>
<rscale>  2 0.27003164E+03</rscale>
<asrwt>0</asrwt>
<pdfrwt beam="1">  1       21 0.38592954E-01 0.27067346E+03</pdfrwt>
<pdfrwt beam="2">  1       21 0.44581930E-01 0.27067346E+03</pdfrwt>
<totfact> 0.30126394E+04</totfact>
</mgrwt>
</event>
<event>
12    1  0.2769346E-001  0.1754123E+03  0.7546771E-02  0.1172955E+00
         21   -1    0    0  504  503  0.00000000000E+00  0.00000000000E+00  0.15803869926E+02  0.15803869926E+02  0.00000000000E+00 0. -1.
         21   -1    0    0  502  504 -0.00000000000E+00 -0.00000000000E+00 -0.19441934617E+04  0.19441934617E+04  0.00000000000E+00 0. -1.
          6    2    1    2  502    0 -0.11004579280E+02 -0.11422042591E+02 -0.10687870806E+04  0.10826798648E+04  0.17215778264E+03 0.  0.
         24    2    3    3    0    0  0.21371724436E+02  0.32607319294E+02 -0.33557478082E+03  0.34741856681E+03  0.81050843074E+02 0.  0.
         -6    2    1    2    0  503  0.11004579280E+02  0.11422042591E+02 -0.85960251119E+03  0.87731746686E+03  0.17469372225E+03 0.  0.
        -24    2    5    5    0    0 -0.37259008684E+02 -0.46065022124E+02 -0.45620712912E+03  0.46697119746E+03  0.80168164561E+02 0.  0.
          2    1    4    4  501    0  0.22271474109E+02 -0.23869701727E+02 -0.14614094767E+03  0.14974297247E+03  0.00000000000E+00 0. -1.
         -1    1    4    4    0  501 -0.89974967269E+00  0.56477021022E+02 -0.18943383315E+03  0.19767559434E+03  0.00000000000E+00 0.  1.
          5    1    3    3  502    0 -0.32376303717E+02 -0.44029361885E+02 -0.73321229977E+03  0.73526129797E+03  0.47000000000E+01 0. -1.
         13    1    6    6    0    0  0.58844488828E+01 -0.18794948058E+01  0.41569818269E+00  0.61912877786E+01  0.00000000000E+00 0. -1.
        -14    1    6    6    0    0 -0.43143457567E+02 -0.44185527318E+02 -0.45662282730E+03  0.46077990968E+03  0.00000000000E+00 0.  1.
         -5    1    5    5    0  503  0.48263587965E+02  0.57487064715E+02 -0.40339538207E+03  0.41034626940E+03  0.47000000000E+01 0.  1.
<mgrwt>
<rscale>  2 0.17477747E+03</rscale>
<asrwt>0</asrwt>
<pdfrwt beam="1">  1       21 0.24313662E-02 0.17541226E+03</pdfrwt>
<pdfrwt beam="2">  1       21 0.29910648E+00 0.17541226E+03</pdfrwt>
<totfact> 0.31427582E+04</totfact>
</mgrwt>
</event>
<event>
12    1  0.2769346E-001  0.2297354E+03  0.7546771E-02  0.1126913E+00
         21   -1    0    0  504  503  0.00000000000E+00  0.00000000000E+00  0.34635432914E+02  0.34635432914E+02  0.00000000000E+00 0. -1.
         21   -1    0    0  502  504 -0.00000000000E+00 -0.00000000000E+00 -0.15296754746E+04  0.15296754746E+04  0.00000000000E+00 0. -1.
          6    2    1    2  502    0  0.12357543746E+03 -0.85480634947E+02 -0.68640135074E+03  0.72367133338E+03  0.17313450484E+03 0.  0.
         24    2    3    3    0    0  0.35131492315E+02 -0.38530850427E+01 -0.44871425694E+03  0.45720814099E+03  0.80285314948E+02 0.  0.
         -6    2    1    2    0  503 -0.12357543746E+03  0.85480634947E+02 -0.80863869090E+03  0.84063957409E+03  0.17378300667E+03 0.  0.
        -24    2    5    5    0    0 -0.13585386123E+03  0.83877026068E+02 -0.45386373658E+03  0.48561747694E+03  0.65881829151E+02 0.  0.
          4    1    4    4  501    0  0.41721752536E+01 -0.34950892344E+02 -0.30278471339E+03  0.30482380908E+03  0.00000000000E+00 0. -1.
         -3    1    4    4    0  501  0.30959317061E+02  0.31097807301E+02 -0.14592954355E+03  0.15238433191E+03  0.00000000000E+00 0.  1.
          5    1    3    3  502    0  0.88443945148E+02 -0.81627549904E+02 -0.23768709380E+03  0.26646319239E+03  0.47000000000E+01 0. -1.
         13    1    6    6    0    0 -0.10732200059E+03  0.65989403017E+02 -0.41732419721E+03  0.43592671253E+03  0.00000000000E+00 0. -1.
        -14    1    6    6    0    0 -0.28531860641E+02  0.17887623051E+02 -0.36539539372E+02  0.49690764409E+02  0.00000000000E+00 0.  1.
         -5    1    5    5    0  503  0.12278423767E+02  0.16036088786E+01 -0.35477495432E+03  0.35502209715E+03  0.47000000000E+01 0.  1.
<mgrwt>
<rscale>  2 0.22961278E+03</rscale>
<asrwt>0</asrwt>
<pdfrwt beam="1">  1       21 0.53285298E-02 0.22973542E+03</pdfrwt>
<pdfrwt beam="2">  1       21 0.23533462E+00 0.22973542E+03</pdfrwt>
<totfact> 0.19041668E+04</totfact>
</mgrwt>
</event>
<event>
12    1  0.2769346E-001  0.2020508E+03  0.7546771E-02  0.1148276E+00
         21   -1    0    0  504  503  0.00000000000E+00  0.00000000000E+00  0.29378391007E+03  0.29378391007E+03  0.00000000000E+00 0.  1.
         21   -1    0    0  502  504 -0.00000000000E+00 -0.00000000000E+00 -0.19774694361E+03  0.19774694361E+03  0.00000000000E+00 0.  1.
          6    2    1    2  502    0  0.89507294601E+02  0.45328584273E+02 -0.87038282088E+02  0.21887526035E+03  0.17396689543E+03 0.  0.
         24    2    3    3    0    0  0.22198083715E+02 -0.40000614552E+02 -0.45705288594E+02  0.10250469537E+03  0.79532603900E+02 0.  0.
         -6    2    1    2    0  503 -0.89507294601E+02 -0.45328584273E+02  0.18307524854E+03  0.27265559332E+03  0.17538041396E+03 0.  0.
        -24    2    5    5    0    0 -0.10205386526E+03  0.12579816189E+02  0.16723047198E+03  0.21114180443E+03  0.77727650360E+02 0.  0.
          2    1    4    4  501    0  0.15641150957E+02 -0.47655136026E+02  0.53713402437E+01  0.50443125289E+02  0.00000000000E+00 0. -1.
         -1    1    4    4    0  501  0.65569327577E+01  0.76545214746E+01 -0.51076628838E+02  0.52061570085E+02  0.00000000000E+00 0.  1.
          5    1    3    3  502    0  0.67309210886E+02  0.85329198824E+02 -0.41332993493E+02  0.11637056498E+03  0.47000000000E+01 0. -1.
         11    1    6    6    0    0 -0.12411884796E+02 -0.25386835002E+02  0.19934181087E+02  0.34582045215E+02  0.00000000000E+00 0. -1.
        -12    1    6    6    0    0 -0.89641980462E+02  0.37966651191E+02  0.14729629089E+03  0.17655975922E+03  0.00000000000E+00 0.  1.
         -5    1    5    5    0  503  0.12546570658E+02 -0.57908400462E+02  0.15844776564E+02  0.61513788891E+02  0.47000000000E+01 0.  1.
<mgrwt>
<rscale>  2 0.20174367E+03</rscale>
<asrwt>0</asrwt>
<pdfrwt beam="1">  1       21 0.45197525E-01 0.20205080E+03</pdfrwt>
<pdfrwt beam="2">  1       21 0.30422607E-01 0.20205080E+03</pdfrwt>
<totfact> 0.48472026E+04</totfact>
</mgrwt>
</event>
<event>
12    1  0.2769346E-001  0.3220481E+03  0.7546771E-02  0.1074958E+00
         21   -1    0    0  504  503  0.00000000000E+00  0.00000000000E+00  0.96824521016E+03  0.96824521016E+03  0.00000000000E+00 0.  1.
         21   -1    0    0  502  504 -0.00000000000E+00 -0.00000000000E+00 -0.16659046238E+03  0.16659046238E+03  0.00000000000E+00 0.  1.
          6    2    1    2  502    0 -0.24408020979E+03  0.11932041621E+03  0.58893982165E+02  0.32526262289E+03  0.16886314631E+03 0.  0.
         24    2    3    3    0    0 -0.14246070398E+03  0.22517694404E+02  0.49681966722E+01  0.17483865123E+03  0.98700416642E+02 0.  0.
         -6    2    1    2    0  503  0.24408020979E+03 -0.11932041621E+03  0.74276076562E+03  0.80957304964E+03  0.17292326977E+03 0.  0.
        -24    2    5    5    0    0  0.81441585210E+02 -0.96447268221E+02  0.44120790851E+03  0.46616262649E+03  0.81904630206E+02 0.  0.
          4    1    4    4  501    0 -0.36772643787E+02 -0.84417704820E+01 -0.40806005299E+02  0.55575362242E+02  0.00000000000E+00 0. -1.
         -3    1    4    4    0  501 -0.10568806020E+03  0.30959464885E+02  0.45774201971E+02  0.11926328899E+03  0.00000000000E+00 0.  1.
          5    1    3    3  502    0 -0.10161950580E+03  0.96802721810E+02  0.53925785493E+02  0.15042397166E+03  0.47000000000E+01 0. -1.
         11    1    6    6    0    0  0.80184058219E+02 -0.56423000853E+02  0.21318868607E+03  0.23465390277E+03  0.00000000000E+00 0. -1.
        -12    1    6    6    0    0  0.12575269915E+01 -0.40024267368E+02  0.22801922244E+03  0.23150872371E+03  0.00000000000E+00 0.  1.
         -5    1    5    5    0  503  0.16263862458E+03 -0.22873147992E+02  0.30155285711E+03  0.34341042316E+03  0.47000000000E+01 0.  1.
<mgrwt>
<rscale>  2 0.32150628E+03</rscale>
<asrwt>0</asrwt>
<pdfrwt beam="1">  1       21 0.14896080E+00 0.32204808E+03</pdfrwt>
<pdfrwt beam="2">  1       21 0.25629303E-01 0.32204808E+03</pdfrwt>
<totfact> 0.40297712E+03</totfact>
</mgrwt>
</event>
<event>
12    1  0.2769346E-001  0.1815725E+03  0.7546771E-02  0.1166506E+00
         21   -1    0    0  504  503  0.00000000000E+00  0.00000000000E+00  0.69445318051E+02  0.69445318051E+02  0.00000000000E+00 0. -1.
         21   -1    0    0  502  504 -0.00000000000E+00 -0.00000000000E+00 -0.18431944010E+04  0.18431944010E+04  0.00000000000E+00 0. -1.
          6    2    1    2  502    0  0.50627893981E+02 -0.72816839107E+01 -0.17110270529E+04  0.17205391468E+04  0.17327773459E+03 0.  0.
         24    2    3    3    0    0  0.95340971584E+02  0.17260630482E+02 -0.13581770766E+04  0.13639907205E+04  0.80236425738E+02 0.  0.
         -6    2    1    2    0  503 -0.50627893981E+02  0.72816839107E+01 -0.62722030014E+02  0.19210057223E+03  0.17421931647E+03 0.  0.
        -24    2    5    5    0    0 -0.12096222920E+02  0.64242157433E+02 -0.68770239953E+02  0.12290623675E+03  0.78123131841E+02 0.  0.
          4    1    4    4  501    0  0.99763749062E+02  0.36190914981E+02 -0.11159671850E+04  0.11210019384E+04  0.00000000000E+00 0. -1.
         -3    1    4    4    0  501 -0.44227774777E+01 -0.18930284500E+02 -0.24220989158E+03  0.24298878207E+03  0.00000000000E+00 0.  1.
          5    1    3    3  502    0 -0.44713077603E+02 -0.24542314392E+02 -0.35284997635E+03  0.35654842632E+03  0.47000000000E+01 0. -1.
         11    1    6    6    0    0 -0.42718212927E+02  0.34467102739E+02 -0.20854020119E+02  0.58717263577E+02  0.00000000000E+00 0. -1.
        -12    1    6    6    0    0  0.30621990007E+02  0.29775054694E+02 -0.47916219834E+02  0.64188973175E+02  0.00000000000E+00 0.  1.
         -5    1    5    5    0  503 -0.38531671061E+02 -0.56960473523E+02  0.60482099393E+01  0.69194335477E+02  0.47000000000E+01 0.  1.
<mgrwt>
<rscale>  2 0.18134627E+03</rscale>
<asrwt>0</asrwt>
<pdfrwt beam="1">  1       21 0.10683894E-01 0.18157251E+03</pdfrwt>
<pdfrwt beam="2">  1       21 0.28356840E+00 0.18157251E+03</pdfrwt>
<totfact> 0.31048297E+03</totfact>
</mgrwt>
</event>
<event>
12    1  0.2769346E-001  0.1946755E+03  0.7546771E-02  0.1154821E+00
         21   -1    0    0  504  503  0.00000000000E+00  0.00000000000E+00  0.22100697756E+03  0.22100697756E+03  0.00000000000E+00 0. -1.
         21   -1    0    0  502  504 -0.00000000000E+00 -0.00000000000E+00 -0.22534714783E+03  0.22534714783E+03  0.00000000000E+00 0. -1.
          6    2    1    2  502    0  0.54114763458E+02  0.65207854065E+02 -0.11333741614E+03  0.22526407505E+03  0.17526568903E+03 0.  0.
         24    2    3    3    0    0  0.12343322188E+02  0.10197608439E+03 -0.10610128650E+03  0.16895059851E+03  0.82069131531E+02 0.  0.
         -6    2    1    2    0  503 -0.54114763458E+02 -0.65207854065E+02  0.10899724588E+03  0.22109005034E+03  0.17268450682E+03 0.  0.
        -24    2    5    5    0    0  0.23438459997E+02 -0.76017797035E+02  0.75670698456E+02  0.13586032490E+03  0.80024411309E+02 0.  0.
          4    1    4    4  501    0  0.28011766569E+02  0.87285614097E+02 -0.11380422005E+03  0.14613294631E+03  0.00000000000E+00 0. -1.
         -3    1    4    4    0  501 -0.15668444382E+02  0.14690470295E+02  0.77029335530E+01  0.22817652205E+02  0.00000000000E+00 0.  1.
          5    1    3    3  502    0  0.41771441270E+02 -0.36768230327E+02 -0.72361296465E+01  0.56313476535E+02  0.47000000000E+01 0. -1.
         13    1    6    6    0    0 -0.13120332253E+01 -0.86069006857E+02  0.59337402419E+02  0.10454914011E+03  0.00000000000E+00 0. -1.
        -14    1    6    6    0    0  0.24750493222E+02  0.10051209822E+02  0.16333296038E+02  0.31311184792E+02  0.00000000000E+00 0.  1.
         -5    1    5    5    0  503 -0.77553223455E+02  0.10809942970E+02  0.33326547420E+02  0.85229725438E+02  0.47000000000E+01 0.  1.
<mgrwt>
<rscale>  2 0.19409271E+03</rscale>
<asrwt>0</asrwt>
<pdfrwt beam="1">  1       21 0.34001074E-01 0.19467546E+03</pdfrwt>
<pdfrwt beam="2">  1       21 0.34668792E-01 0.19467546E+03</pdfrwt>
<totfact> 0.66775361E+04</totfact>
</mgrwt>
</event>
<event>
12    1  0.2769346E-001  0.1928784E+03  0.7546771E-02  0.1156238E+00
         21   -1    0    0  504  503  0.00000000000E+00  0.00000000000E+00  0.92957193317E+02  0.92957193317E+02  0.00000000000E+00 0. -1.
         21   -1    0    0  502  504 -0.00000000000E+00 -0.00000000000E+00 -0.43592658500E+03  0.43592658500E+03  0.00000000000E+00 0.  1.
          6    2    1    2  502    0 -0.40608694179E+02 -0.68941386591E+02 -0.24990485747E+03  0.31472705188E+03  0.17377772748E+03 0.  0.
         24    2    3    3    0    0 -0.83371578523E+02 -0.65363806191E+02 -0.12495657703E+03  0.18253164294E+03  0.80500976799E+02 0.  0.
         -6    2    1    2    0  503  0.40608694179E+02  0.68941386591E+02 -0.93064534212E+02  0.21415672644E+03  0.17549961574E+03 0.  0.
        -24    2    5    5    0    0  0.30345921385E+02  0.43188154128E+02 -0.13373605364E+03  0.16471164599E+03  0.80364809963E+02 0.  0.
          4    1    4    4  501    0 -0.59224773867E+02 -0.52431949338E+02 -0.31495043107E+02  0.85138833039E+02  0.00000000000E+00 0. -1.
         -3    1    4    4    0  501 -0.24146804657E+02 -0.12931856853E+02 -0.93461533926E+02  0.97392809902E+02  0.00000000000E+00 0.  1.
          5    1    3    3  502    0  0.42762884344E+02 -0.35775803998E+01 -0.12494828044E+03  0.13219540894E+03  0.47000000000E+01 0. -1.
         13    1    6    6    0    0  0.31557598713E+02  0.12045972075E+02 -0.73885701003E+01  0.34577137648E+02  0.00000000000E+00 0. -1.
        -14    1    6    6    0    0 -0.12116773281E+01  0.31142182053E+02 -0.12634748354E+03  0.13013450835E+03  0.00000000000E+00 0.  1.
         -5    1    5    5    0  503  0.10262772794E+02  0.25753232463E+02  0.40671519431E+02  0.49445080449E+02  0.47000000000E+01 0.  1.
<mgrwt>
<rscale>  2 0.19248590E+03</rscale>
<asrwt>0</asrwt>
<pdfrwt beam="1">  1       21 0.14301107E-01 0.19287845E+03</pdfrwt>
<pdfrwt beam="2">  1       21 0.67065627E-01 0.19287845E+03</pdfrwt>
<totfact> 0.87087004E+04</totfact>
</mgrwt>
</event>
<event>
12    1  0.2769346E-001  0.1988118E+03  0.7546771E-02  0.1150981E+00
         21   -1    0    0  504  503  0.00000000000E+00  0.00000000000E+00  0.98350481548E+03  0.98350481548E+03  0.00000000000E+00 0. -1.
         21   -1    0    0  502  504 -0.00000000000E+00 -0.00000000000E+00 -0.51608989583E+03  0.51608989583E+03  0.00000000000E+00 0. -1.
          6    2    1    2  502    0  0.96696160460E+02  0.62507639954E+01 -0.48652346048E+03  0.52515920888E+03  0.17233077954E+03 0.  0.
         24    2    3    3    0    0 -0.35296750090E+01 -0.68457293013E+01 -0.11872709906E+03  0.14369755981E+03  0.80582516905E+02 0.  0.
         -6    2    1    2    0  503 -0.96696160460E+02 -0.62507639954E+01  0.95393838013E+03  0.97443550244E+03  0.17359981517E+03 0.  0.
        -24    2    5    5    0    0 -0.50668130784E+01  0.34998403016E+02  0.59947460096E+03  0.60597371090E+03  0.81140497253E+02 0.  0.
          2    1    4    4  501    0 -0.16665444915E+02 -0.37748024028E+02 -0.37317443920E+02  0.55634899056E+02  0.00000000000E+00 0. -1.
         -1    1    4    4    0  501  0.13135769906E+02  0.30902294726E+02 -0.81409655137E+02  0.88062660759E+02  0.00000000000E+00 0.  1.
          5    1    3    3  502    0  0.10022583547E+03  0.13096493297E+02 -0.36779636142E+03  0.38146164907E+03  0.47000000000E+01 0. -1.
         11    1    6    6    0    0  0.18569741805E+01 -0.67983169422E+01  0.46346102179E+03  0.46351459975E+03  0.00000000000E+00 0. -1.
        -12    1    6    6    0    0 -0.69237872589E+01  0.41796719958E+02  0.13601357917E+03  0.14245911115E+03  0.00000000000E+00 0.  1.
         -5    1    5    5    0  503 -0.91629347381E+02 -0.41249167011E+02  0.35446377917E+03  0.36846179154E+03  0.47000000000E+01 0.  1.
<mgrwt>
<rscale>  2 0.19853439E+03</rscale>
<asrwt>0</asrwt>
<pdfrwt beam="1">  1       21 0.15130843E+00 0.19881176E+03</pdfrwt>
<pdfrwt beam="2">  1       21 0.79398446E-01 0.19881176E+03</pdfrwt>
<totfact> 0.40578388E+02</totfact>
</mgrwt>
</event>
<event>
12    1  0.2769346E-001  0.1805916E+03  0.7546771E-02  0.1167541E+00
         21   -1    0    0  504  503  0.00000000000E+00  0.00000000000E+00  0.15346109331E+03  0.15346109331E+03  0.00000000000E+00 0.  1.
         21   -1    0    0  502  504 -0.00000000000E+00 -0.00000000000E+00 -0.26356560669E+03  0.26356560669E+03  0.00000000000E+00 0.  1.
          6    2    1    2  502    0 -0.29124782061E+02 -0.39419969133E+02 -0.14800043086E+03  0.23250181907E+03  0.17248414837E+03 0.  0.
         24    2    3    3    0    0 -0.56289248318E+02 -0.58745280650E+02 -0.15991869055E+03  0.19678752493E+03  0.80819891765E+02 0.  0.
         -6    2    1    2    0  503  0.29124782061E+02  0.39419969133E+02  0.37895917477E+02  0.18452488092E+03  0.17381353290E+03 0.  0.
        -24    2    5    5    0    0  0.38165379166E+02  0.33374424074E+02 -0.40839486381E+02  0.10490305708E+03  0.82257761869E+02 0.  0.
          2    1    4    4  501    0  0.17973362368E+02 -0.29569330926E+00 -0.41900603859E+02  0.45593747302E+02  0.00000000000E+00 0. -1.
         -1    1    4    4    0  501 -0.74262610686E+02 -0.58449587340E+02 -0.11801808669E+03  0.15119377762E+03  0.00000000000E+00 0.  1.
          5    1    3    3  502    0  0.27164466257E+02  0.19325311517E+02  0.11918259690E+02  0.35714294145E+02  0.47000000000E+01 0. -1.
         13    1    6    6    0    0  0.15683934799E+02 -0.18394858873E+02  0.12528074279E+02  0.27226995591E+02  0.00000000000E+00 0. -1.
        -14    1    6    6    0    0  0.22481444366E+02  0.51769282947E+02 -0.53367560660E+02  0.77676061489E+02  0.00000000000E+00 0.  1.
         -5    1    5    5    0  503 -0.90405971040E+01  0.60455450587E+01  0.78735403858E+02  0.79621823841E+02  0.47000000000E+01 0.  1.
<mgrwt>
<rscale>  2 0.18027098E+03</rscale>
<asrwt>0</asrwt>
<pdfrwt beam="1">  1       21 0.23609399E-01 0.18059161E+03</pdfrwt>
<pdfrwt beam="2">  1       21 0.40548554E-01 0.18059161E+03</pdfrwt>
<totfact> 0.99424214E+04</totfact>
</mgrwt>
</event>
<event>
12    1  0.2769346E-001  0.2193568E+03  0.7546771E-02  0.1135116E+00
         21   -1    0    0  504  503  0.00000000000E+00  0.00000000000E+00  0.79657541497E+03  0.79657541497E+03  0.00000000000E+00 0.  1.
         21   -1    0    0  502  504 -0.00000000000E+00 -0.00000000000E+00 -0.11711111385E+03  0.11711111385E+03  0.00000000000E+00 0.  1.
          6    2    1    2  502    0  0.69243809302E+02  0.11651557156E+03  0.17223602531E+02  0.21606189289E+03  0.16737833054E+03 0.  0.
         24    2    3    3    0    0  0.94097952175E+02  0.90959597386E+02 -0.30290764017E+02  0.15647547445E+03  0.80243197598E+02 0.  0.
         -6    2    1    2    0  503 -0.69243809302E+02 -0.11651557156E+03  0.66224069858E+03  0.69762463593E+03  0.17247262464E+03 0.  0.
        -24    2    5    5    0    0 -0.25374878096E+02 -0.91799942434E+02  0.21374434570E+03  0.24628616649E+03  0.76805706917E+02 0.  0.
          4    1    4    4  501    0  0.58235714715E+02  0.53800491888E+02  0.22713610014E+02  0.82473022715E+02  0.00000000000E+00 0. -1.
         -3    1    4    4    0  501  0.35862237460E+02  0.37159105498E+02 -0.53004374031E+02  0.74002451739E+02  0.00000000000E+00 0.  1.
          5    1    3    3  502    0 -0.24854142873E+02  0.25555974179E+02  0.47514366548E+02  0.59586418441E+02  0.47000000000E+01 0. -1.
         13    1    6    6    0    0  0.34800257513E+01 -0.78272061574E+02  0.19290456189E+03  0.20820854017E+03  0.00000000000E+00 0. -1.
        -14    1    6    6    0    0 -0.28854903847E+02 -0.13527880860E+02  0.20839783810E+02  0.38077626316E+02  0.00000000000E+00 0.  1.
         -5    1    5    5    0  503 -0.43868931206E+02 -0.24715629131E+02  0.44849635288E+03  0.45133846944E+03  0.47000000000E+01 0.  1.
<mgrwt>
<rscale>  2 0.21835430E+03</rscale>
<asrwt>0</asrwt>
<pdfrwt beam="1">  1       21 0.12255006E+00 0.21935676E+03</pdfrwt>
<pdfrwt beam="2">  1       21 0.18017095E-01 0.21935676E+03</pdfrwt>
<totfact> 0.13799888E+04</totfact>
</mgrwt>
</event>
<event>
12    1  0.2769346E-001  0.2589496E+03  0.7546771E-02  0.1107779E+00
         21   -1    0    0  504  503  0.00000000000E+00  0.00000000000E+00  0.14696652680E+03  0.14696652680E+03  0.00000000000E+00 0. -1.
         21   -1    0    0  502  504 -0.00000000000E+00 -0.00000000000E+00 -0.50938438328E+03  0.50938438328E+03  0.00000000000E+00 0. -1.
          6    2    1    2  502    0 -0.26832074506E+02  0.19102263701E+03 -0.28722588782E+03  0.38672158612E+03  0.17275782607E+03 0.  0.
         24    2    3    3    0    0 -0.50971084773E+02  0.13223207918E+03 -0.10518056109E+03  0.19384439076E+03  0.80183060259E+02 0.  0.
         -6    2    1    2    0  503  0.26832074506E+02 -0.19102263701E+03 -0.75191968660E+02  0.26962932395E+03  0.17273254502E+03 0.  0.
        -24    2    5    5    0    0 -0.26658868588E+02 -0.17048722086E+03 -0.34069876621E+02  0.19894622298E+03  0.92963731594E+02 0.  0.
          2    1    4    4  501    0 -0.26490569487E+02  0.12396455890E+03 -0.10966803784E+03  0.16761873600E+03  0.00000000000E+00 0. -1.
         -1    1    4    4    0  501 -0.24480515286E+02  0.82675202836E+01  0.44874767496E+01  0.26225654766E+02  0.00000000000E+00 0.  1.
          5    1    3    3  502    0  0.24139010267E+02  0.58790557829E+02 -0.18204532673E+03  0.19287719536E+03  0.47000000000E+01 0. -1.
         13    1    6    6    0    0 -0.13674009239E+02 -0.18208293457E+02 -0.39969473292E+02  0.46000861671E+02  0.00000000000E+00 0. -1.
        -14    1    6    6    0    0 -0.12984859349E+02 -0.15227892740E+03  0.58995966705E+01  0.15294536130E+03  0.00000000000E+00 0.  1.
         -5    1    5    5    0  503  0.53490943094E+02 -0.20535416147E+02 -0.41122092039E+02  0.70683100972E+02  0.47000000000E+01 0.  1.
<mgrwt>
<rscale>  2 0.25894534E+03</rscale>
<asrwt>0</asrwt>
<pdfrwt beam="1">  1       21 0.22610234E-01 0.25894956E+03</pdfrwt>
<pdfrwt beam="2">  1       21 0.78366830E-01 0.25894956E+03</pdfrwt>
<totfact> 0.25525091E+04</totfact>
</mgrwt>
</event>
<event>
12    1  0.2769346E-001  0.2332182E+03  0.7546771E-02  0.1124399E+00
         21   -1    0    0  504  503  0.00000000000E+00  0.00000000000E+00  0.84923312270E+02  0.84923312270E+02  0.00000000000E+00 0. -1.
         21   -1    0    0  502  504 -0.00000000000E+00 -0.00000000000E+00 -0.98864497531E+03  0.98864497531E+03  0.00000000000E+00 0.  1.
          6    2    1    2  502    0 -0.10733404405E+03 -0.11489018937E+03 -0.77042509338E+03  0.80494456864E+03  0.17222247659E+03 0.  0.
         24    2    3    3    0    0 -0.68267808410E+02 -0.51697202631E+02 -0.66980214772E+03  0.67977831307E+03  0.78297786712E+02 0.  0.
         -6    2    1    2    0  503  0.10733404405E+03  0.11489018937E+03 -0.13329656965E+03  0.26862371894E+03  0.17225090499E+03 0.  0.
        -24    2    5    5    0    0  0.11225006158E+03  0.12063810150E+03 -0.57007463277E+02  0.19181666539E+03  0.79938441278E+02 0.  0.
          4    1    4    4  501    0 -0.18703881572E+02 -0.49042071322E+02 -0.18083264702E+03  0.18829605990E+03  0.00000000000E+00 0. -1.
         -3    1    4    4    0  501 -0.49563926838E+02 -0.26551313084E+01 -0.48896950070E+03  0.49148225317E+03  0.00000000000E+00 0.  1.
          5    1    3    3  502    0 -0.39066235642E+02 -0.63192986736E+02 -0.10062294567E+03  0.12516625557E+03  0.47000000000E+01 0. -1.
         11    1    6    6    0    0  0.53614095962E+02  0.18240526995E+02  0.78430889289E+01  0.57172564704E+02  0.00000000000E+00 0. -1.
        -12    1    6    6    0    0  0.58635965623E+02  0.10239757451E+03 -0.64850552206E+02  0.13464410069E+03  0.00000000000E+00 0.  1.
         -5    1    5    5    0  503 -0.49160175331E+01 -0.57479121333E+01 -0.76289106375E+02  0.76807053542E+02  0.47000000000E+01 0.  1.
<mgrwt>
<rscale>  2 0.23321295E+03</rscale>
<asrwt>0</asrwt>
<pdfrwt beam="1">  1       21 0.13065126E-01 0.23321820E+03</pdfrwt>
<pdfrwt beam="2">  1       21 0.15209922E+00 0.23321820E+03</pdfrwt>
<totfact> 0.14122458E+04</totfact>
</mgrwt>
</event>
<event>
12    1  0.2769346E-001  0.2023220E+03  0.7546771E-02  0.1148893E+00
         21   -1    0    0  504  503  0.00000000000E+00  0.00000000000E+00  0.31537576546E+03  0.31537576546E+03  0.00000000000E+00 0. -1.
         21   -1    0    0  502  504 -0.00000000000E+00 -0.00000000000E+00 -0.14761807458E+03  0.14761807458E+03  0.00000000000E+00 0. -1.
          6    2    1    2  502    0 -0.57118303824E+02  0.75857280468E+02 -0.27957132856E+01  0.20234132227E+03  0.17865432280E+03 0.  0.
         24    2    3    3    0    0  0.23611456966E+02  0.21408557682E+02 -0.43700788246E+02  0.96618700059E+02  0.80059896738E+02 0.  0.
         -6    2    1    2    0  503  0.57118303824E+02 -0.75857280468E+02  0.17055340417E+03  0.26065251778E+03  0.17272649976E+03 0.  0.
        -24    2    5    5    0    0  0.71523991570E+02 -0.51185852332E+02  0.18992802511E+03  0.22581476322E+03  0.84758360767E+02 0.  0.
          2    1    4    4  501    0  0.23837233003E+02 -0.11017754511E+02 -0.56068203526E+02  0.61913229914E+02  0.00000000000E+00 0. -1.
         -1    1    4    4    0  501 -0.22577603684E+00  0.32426312193E+02  0.12367415280E+02  0.34705470145E+02  0.00000000000E+00 0.  1.
          5    1    3    3  502    0 -0.80729760790E+02  0.54448722786E+02  0.40905074961E+02  0.10572262221E+03  0.47000000000E+01 0. -1.
         11    1    6    6    0    0  0.26255672753E+02 -0.41944384991E+02  0.16711508556E+03  0.17428753142E+03  0.00000000000E+00 0. -1.
        -12    1    6    6    0    0  0.45268318817E+02 -0.92414673403E+01  0.22812939541E+02  0.51527231807E+02  0.00000000000E+00 0.  1.
         -5    1    5    5    0  503 -0.14405687746E+02 -0.24671428137E+02 -0.19374620940E+02  0.34837754553E+02  0.47000000000E+01 0.  1.
<mgrwt>
<rscale>  2 0.20100553E+03</rscale>
<asrwt>0</asrwt>
<pdfrwt beam="1">  1       21 0.48519349E-01 0.20232201E+03</pdfrwt>
<pdfrwt beam="2">  1       21 0.22710473E-01 0.20232201E+03</pdfrwt>
<totfact> 0.73425370E+04</totfact>
</mgrwt>
</event>
<event>
12    1  0.2769346E-001  0.1796426E+03  0.7546771E-02  0.1171220E+00
         21   -1    0    0  504  503  0.00000000000E+00  0.00000000000E+00  0.11276006055E+03  0.11276006055E+03  0.00000000000E+00 0.  1.
         21   -1    0    0  502  504 -0.00000000000E+00 -0.00000000000E+00 -0.48520745326E+03  0.48520745326E+03  0.00000000000E+00 0.  1.
          6    2    1    2  502    0  0.47090366948E+02 -0.29823310272E+01 -0.38301007445E+03  0.41801461306E+03  0.16066456562E+03 0.  0.
         24    2    3    3    0    0  0.27822389098E+02  0.24539151026E+02 -0.37438431510E+03  0.38301203217E+03  0.71821627154E+02 0.  0.
         -6    2    1    2    0  503 -0.47090366948E+02  0.29823310272E+01  0.10562681737E+02  0.17995290075E+03  0.17333516459E+03 0.  0.
        -24    2    5    5    0    0 -0.73057037513E+02 -0.38406849759E+02 -0.26762490015E+02  0.11828775084E+03  0.80394927011E+02 0.  0.
          2    1    4    4  501    0  0.44972058690E+02  0.24731794257E+02 -0.16198537974E+03  0.16992177895E+03  0.00000000000E+00 0. -1.
         -1    1    4    4    0  501 -0.17149669592E+02 -0.19264323076E+00 -0.21239893536E+03  0.21309025323E+03  0.00000000000E+00 0.  1.
          5    1    3    3  502    0  0.19267977850E+02 -0.27521482053E+02 -0.86257593543E+01  0.35002580895E+02  0.47000000000E+01 0. -1.
         13    1    6    6    0    0 -0.13519048855E+02 -0.19326118142E+02 -0.46989530314E+02  0.52576415658E+02  0.00000000000E+00 0. -1.
        -14    1    6    6    0    0 -0.59537988658E+02 -0.19080731618E+02  0.20227040299E+02  0.65711335185E+02  0.00000000000E+00 0.  1.
         -5    1    5    5    0  503  0.25966670565E+02  0.41389180786E+02  0.37325171752E+02  0.61665149904E+02  0.47000000000E+01 0.  1.
<mgrwt>
<rscale>  2 0.17651367E+03</rscale>
<asrwt>0</asrwt>
<pdfrwt beam="1">  1       21 0.17347702E-01 0.17964263E+03</pdfrwt>
<pdfrwt beam="2">  1       21 0.74647300E-01 0.17964263E+03</pdfrwt>
<totfact> 0.48596720E+04</totfact>
</mgrwt>
</event>
<event>
12    1  0.2769346E-001  0.1984017E+03  0.7546771E-02  0.1151393E+00
         21   -1    0    0  504  503  0.00000000000E+00  0.00000000000E+00  0.33687066705E+03  0.33687066705E+03  0.00000000000E+00 0.  1.
         21   -1    0    0  502  504 -0.00000000000E+00 -0.00000000000E+00 -0.19347622928E+03  0.19347622928E+03  0.00000000000E+00 0.  1.
          6    2    1    2  502    0  0.49739867520E+02 -0.78291935169E+02 -0.96224899212E+02  0.21925100259E+03  0.17380474497E+03 0.  0.
         24    2    3    3    0    0 -0.28131280302E+02 -0.24215223779E+02 -0.84085159848E+02  0.12355528874E+03  0.82570268703E+02 0.  0.
         -6    2    1    2    0  503 -0.49739867520E+02  0.78291935169E+02  0.23961933698E+03  0.31109589375E+03  0.17538399846E+03 0.  0.
        -24    2    5    5    0    0 -0.96550308809E+02  0.57040165778E+02  0.19155961895E+03  0.24056447087E+03  0.92739605287E+02 0.  0.
          2    1    4    4  501    0 -0.16124116433E+02 -0.54764066673E+02 -0.46296099532E+02  0.73501149387E+02  0.00000000000E+00 0. -1.
         -1    1    4    4    0  501 -0.12007163870E+02  0.30548842894E+02 -0.37789060316E+02  0.50054139349E+02  0.00000000000E+00 0.  1.
          5    1    3    3  502    0  0.77871147822E+02 -0.54076711390E+02 -0.12139739364E+02  0.95695713852E+02  0.47000000000E+01 0. -1.
         13    1    6    6    0    0 -0.13122625438E+01  0.28092059198E+02  0.42411216790E+01  0.28440691554E+02  0.00000000000E+00 0. -1.
        -14    1    6    6    0    0 -0.95238046265E+02  0.28948106580E+02  0.18731849727E+03  0.21212377931E+03  0.00000000000E+00 0.  1.
         -5    1    5    5    0  503  0.46810441289E+02  0.21251769391E+02  0.48059718032E+02  0.70531422878E+02  0.47000000000E+01 0.  1.
<mgrwt>
<rscale>  2 0.19805210E+03</rscale>
<asrwt>0</asrwt>
<pdfrwt beam="1">  1       21 0.51826256E-01 0.19840168E+03</pdfrwt>
<pdfrwt beam="2">  1       21 0.29765574E-01 0.19840168E+03</pdfrwt>
<totfact> 0.38136265E+04</totfact>
</mgrwt>
</event>
<event>
12    1  0.2769346E-001  0.1988996E+03  0.7546771E-02  0.1150748E+00
         21   -1    0    0  504  503  0.00000000000E+00  0.00000000000E+00  0.73889366107E+03  0.73889366107E+03  0.00000000000E+00 0.  1.
         21   -1    0    0  502  504 -0.00000000000E+00 -0.00000000000E+00 -0.88199004345E+02  0.88199004345E+02  0.00000000000E+00 0.  1.
          6    2    1    2  502    0 -0.35607179930E+02  0.91021608156E+02  0.58512743436E+03  0.61800903093E+03  0.17322887593E+03 0.  0.
         24    2    3    3    0    0 -0.77249131426E+02  0.10716378679E+03  0.38038858311E+03  0.40840294976E+03  0.68161497206E+02 0.  0.
         -6    2    1    2    0  503  0.35607179930E+02 -0.91021608156E+02  0.65567222365E+02  0.20908363449E+03  0.17281232927E+03 0.  0.
        -24    2    5    5    0    0 -0.53332254372E+01 -0.21222984502E+02  0.91843575483E+02  0.12387505869E+03  0.80193076035E+02 0.  0.
          4    1    4    4  501    0 -0.80235306432E+02  0.10982858658E+03  0.38081674496E+03  0.40437781352E+03  0.00000000000E+00 0. -1.
         -3    1    4    4    0  501  0.29861750062E+01 -0.26647997961E+01 -0.42816184524E+00  0.40251362320E+01  0.00000000000E+00 0.  1.
          5    1    3    3  502    0  0.41641951497E+02 -0.16142178632E+02  0.20473885125E+03  0.20960608118E+03  0.47000000000E+01 0. -1.
         13    1    6    6    0    0  0.37744324332E+01 -0.20350213810E+02 -0.90343185990E+01  0.22583101090E+02  0.00000000000E+00 0. -1.
        -14    1    6    6    0    0 -0.91076578704E+01 -0.87277069173E+00  0.10087789408E+03  0.10129195760E+03  0.00000000000E+00 0.  1.
         -5    1    5    5    0  503  0.40940405367E+02 -0.69798623654E+02 -0.26276353117E+02  0.85208575793E+02  0.47000000000E+01 0.  1.
<mgrwt>
<rscale>  2 0.19880886E+03</rscale>
<asrwt>0</asrwt>
<pdfrwt beam="1">  1       21 0.11367594E+00 0.19889959E+03</pdfrwt>
<pdfrwt beam="2">  1       21 0.13569078E-01 0.19889959E+03</pdfrwt>
<totfact> 0.28268359E+04</totfact>
</mgrwt>
</event>
<event>
12    1  0.2769346E-001  0.2116395E+03  0.7546771E-02  0.1140543E+00
         21   -1    0    0  504  503  0.00000000000E+00  0.00000000000E+00  0.10858645989E+03  0.10858645989E+03  0.00000000000E+00 0.  1.
         21   -1    0    0  502  504 -0.00000000000E+00 -0.00000000000E+00 -0.50479969508E+03  0.50479969508E+03  0.00000000000E+00 0.  1.
          6    2    1    2  502    0  0.10884702692E+03 -0.51523013498E+02 -0.33165263116E+03  0.39342691713E+03  0.17403728100E+03 0.  0.
         24    2    3    3    0    0  0.84035545862E+02 -0.52960692389E+02 -0.34456518301E+03  0.36502796454E+03  0.68216139197E+02 0.  0.
         -6    2    1    2    0  503 -0.10884702692E+03  0.51523013498E+02 -0.64560604027E+02  0.21995923784E+03  0.17237081693E+03 0.  0.
        -24    2    5    5    0    0 -0.48170690483E+02 -0.53043134545E+02 -0.40391915756E+02  0.96582122406E+02  0.50622227984E+02 0.  0.
          4    1    4    4  501    0  0.28590400947E+02 -0.10313573196E+02 -0.22064433220E+03  0.22272786568E+03  0.00000000000E+00 0. -1.
         -3    1    4    4    0  501  0.55445144915E+02 -0.42647119193E+02 -0.12392085081E+03  0.14230009886E+03  0.00000000000E+00 0.  1.
          5    1    3    3  502    0  0.24811481060E+02  0.14376788911E+01  0.12912551849E+02  0.28398952591E+02  0.47000000000E+01 0. -1.
         11    1    6    6    0    0  0.10149118752E+02 -0.14908526921E+02 -0.90062810164E+01  0.20158915749E+02  0.00000000000E+00 0. -1.
        -12    1    6    6    0    0 -0.58319809235E+02 -0.38134607624E+02 -0.31385634739E+02  0.76423206657E+02  0.00000000000E+00 0.  1.
         -5    1    5    5    0  503 -0.60676336440E+02  0.10456614804E+03 -0.24168688271E+02  0.12337711543E+03  0.47000000000E+01 0.  1.
<mgrwt>
<rscale>  2 0.21129659E+03</rscale>
<asrwt>0</asrwt>
<pdfrwt beam="1">  1       21 0.16705610E-01 0.21163948E+03</pdfrwt>
<pdfrwt beam="2">  1       21 0.77661490E-01 0.21163948E+03</pdfrwt>
<totfact> 0.46923861E+04</totfact>
</mgrwt>
</event>
<event>
12    1  0.2769346E-001  0.4284170E+03  0.7546771E-02  0.1034504E+00
         21   -1    0    0  504  503  0.00000000000E+00  0.00000000000E+00  0.11060083712E+04  0.11060083712E+04  0.00000000000E+00 0.  1.
         21   -1    0    0  502  504 -0.00000000000E+00 -0.00000000000E+00 -0.94847915647E+03  0.94847915647E+03  0.00000000000E+00 0. -1.
          6    2    1    2  502    0  0.65642825579E+02 -0.38600482959E+03 -0.85468219969E+03  0.95604540182E+03  0.17387477926E+03 0.  0.
         24    2    3    3    0    0 -0.24965846810E+02 -0.19320995740E+03 -0.49525482630E+03  0.53820581419E+03  0.80217044972E+02 0.  0.
         -6    2    1    2    0  503 -0.65642825579E+02  0.38600482959E+03  0.10122114144E+04  0.10984421258E+04  0.16939435447E+03 0.  0.
        -24    2    5    5    0    0 -0.63656124507E+02  0.14112025592E+03  0.50039174640E+03  0.53103234096E+03  0.87386603474E+02 0.  0.
          2    1    4    4  501    0 -0.19057510792E+02 -0.18962697985E+03 -0.49590464379E+03  0.53126546654E+03  0.00000000000E+00 0. -1.
         -1    1    4    4    0  501 -0.59083360184E+01 -0.35829775561E+01  0.64981749255E+00  0.69403476460E+01  0.00000000000E+00 0.  1.
          5    1    3    3  502    0  0.90608672389E+02 -0.19279487218E+03 -0.35942737339E+03  0.41783958764E+03  0.47000000000E+01 0. -1.
         11    1    6    6    0    0  0.12270694067E+02  0.45025545017E+01  0.10593538446E+03  0.10673869313E+03  0.00000000000E+00 0. -1.
        -12    1    6    6    0    0 -0.75926818574E+02  0.13661770142E+03  0.39445636194E+03  0.42429364784E+03  0.00000000000E+00 0.  1.
         -5    1    5    5    0  503 -0.19867010722E+01  0.24488457367E+03  0.51181966800E+03  0.56740978486E+03  0.47000000000E+01 0.  1.
<mgrwt>
<rscale>  2 0.42796663E+03</rscale>
<asrwt>0</asrwt>
<pdfrwt beam="1">  1       21 0.17015513E+00 0.42841703E+03</pdfrwt>
<pdfrwt beam="2">  1       21 0.14591987E+00 0.42841703E+03</pdfrwt>
<totfact> 0.54534796E+01</totfact>
</mgrwt>
</event>
<event>
12    1  0.2769346E-001  0.2705657E+03  0.7546771E-02  0.1101175E+00
         21   -1    0    0  504  503  0.00000000000E+00  0.00000000000E+00  0.64897108899E+03  0.64897108899E+03  0.00000000000E+00 0.  1.
         21   -1    0    0  502  504 -0.00000000000E+00 -0.00000000000E+00 -0.26264040087E+03  0.26264040087E+03  0.00000000000E+00 0. -1.
          6    2    1    2  502    0 -0.12337123407E+03 -0.16661253328E+03 -0.15207611889E+03  0.30904392035E+03  0.17146661810E+03 0.  0.
         24    2    3    3    0    0 -0.49246269943E+02 -0.16813778216E+03 -0.92093228713E+02  0.21356159840E+03  0.80199031430E+02 0.  0.
         -6    2    1    2    0  503  0.12337123407E+03  0.16661253328E+03  0.53840680702E+03  0.60256756951E+03  0.17385507856E+03 0.  0.
        -24    2    5    5    0    0  0.11564869365E+03  0.11277442722E+03  0.24025980897E+03  0.29946378903E+03  0.76557777907E+02 0.  0.
          2    1    4    4  501    0 -0.59457124945E+02 -0.74266837458E+02 -0.65366164921E+02  0.11542724275E+03  0.00000000000E+00 0. -1.
         -1    1    4    4    0  501  0.10210855002E+02 -0.93870944701E+02 -0.26727063792E+02  0.98134355645E+02  0.00000000000E+00 0.  1.
          5    1    3    3  502    0 -0.74124964129E+02  0.15252488761E+01 -0.59982890178E+02  0.95482321952E+02  0.47000000000E+01 0. -1.
         11    1    6    6    0    0  0.28338067527E+02  0.29455532519E+02  0.14316826784E+02  0.43308728870E+02  0.00000000000E+00 0. -1.
        -12    1    6    6    0    0  0.87310626121E+02  0.83318894705E+02  0.22594298219E+03  0.25615506016E+03  0.00000000000E+00 0.  1.
         -5    1    5    5    0  503  0.77225404245E+01  0.53838106059E+02  0.29814699805E+03  0.30310378048E+03  0.47000000000E+01 0.  1.
<mgrwt>
<rscale>  2 0.27018274E+03</rscale>
<asrwt>0</asrwt>
<pdfrwt beam="1">  1       21 0.99841706E-01 0.27056568E+03</pdfrwt>
<pdfrwt beam="2">  1       21 0.40406216E-01 0.27056568E+03</pdfrwt>
<totfact> 0.46083724E+03</totfact>
</mgrwt>
</event>
<event>
12    1  0.2769346E-001  0.2087351E+03  0.7546771E-02  0.1142802E+00
         21   -1    0    0  504  503  0.00000000000E+00  0.00000000000E+00  0.32027661029E+03  0.32027661029E+03  0.00000000000E+00 0.  1.
         21   -1    0    0  502  504 -0.00000000000E+00 -0.00000000000E+00 -0.44151895847E+03  0.44151895847E+03  0.00000000000E+00 0.  1.
          6    2    1    2  502    0  0.80880720385E+02 -0.82426618681E+02 -0.37788982598E+03  0.43170712942E+03  0.17388066775E+03 0.  0.
         24    2    3    3    0    0  0.11402710964E+03 -0.51979714922E+02 -0.20210119627E+03  0.25018735253E+03  0.77747960320E+02 0.  0.
         -6    2    1    2    0  503 -0.80880720385E+02  0.82426618681E+02  0.25664747779E+03  0.33008843934E+03  0.17249525075E+03 0.  0.
        -24    2    5    5    0    0 -0.73311947836E+02  0.81459181280E+01  0.70183342034E+02  0.12917583964E+03  0.79496530558E+02 0.  0.
          2    1    4    4  501    0  0.48367509716E+02  0.17614057715E+02 -0.62959955648E+02  0.81324209436E+02  0.00000000000E+00 0. -1.
         -1    1    4    4    0  501  0.65659599922E+02 -0.69593772637E+02 -0.13914124063E+03  0.16886314309E+03  0.00000000000E+00 0.  1.
          5    1    3    3  502    0 -0.33146389253E+02 -0.30446903759E+02 -0.17578862970E+03  0.18151977689E+03  0.47000000000E+01 0. -1.
         11    1    6    6    0    0 -0.97353613085E+01 -0.31783636272E+02  0.18655060808E+02  0.38118080857E+02  0.00000000000E+00 0. -1.
        -12    1    6    6    0    0 -0.63576586528E+02  0.39929554400E+02  0.51528281226E+02  0.91057758786E+02  0.00000000000E+00 0.  1.
         -5    1    5    5    0  503 -0.75687725483E+01  0.74280700553E+02  0.18646413576E+03  0.20091259970E+03  0.47000000000E+01 0.  1.
<mgrwt>
<rscale>  2 0.20844629E+03</rscale>
<asrwt>0</asrwt>
<pdfrwt beam="1">  1       21 0.49273325E-01 0.20873506E+03</pdfrwt>
<pdfrwt beam="2">  1       21 0.67925994E-01 0.20873506E+03</pdfrwt>
<totfact> 0.76876528E+03</totfact>
</mgrwt>
</event>
<event>
12    1  0.2769346E-001  0.1803569E+03  0.7546771E-02  0.1168336E+00
         21   -1    0    0  504  503  0.00000000000E+00  0.00000000000E+00  0.26501209289E+03  0.26501209289E+03  0.00000000000E+00 0.  1.
         21   -1    0    0  502  504 -0.00000000000E+00 -0.00000000000E+00 -0.13354483195E+03  0.13354483195E+03  0.00000000000E+00 0.  1.
          6    2    1    2  502    0  0.21511740803E+01 -0.42005114721E+02  0.23988791022E+01  0.17677493979E+03  0.17168158755E+03 0.  0.
         24    2    3    3    0    0 -0.13521073271E+02  0.12890080771E+01  0.61103473563E+02  0.10201987429E+03  0.80560159539E+02 0.  0.
         -6    2    1    2    0  503 -0.21511740803E+01  0.42005114721E+02  0.12906838184E+03  0.22178198506E+03  0.17538399156E+03 0.  0.
        -24    2    5    5    0    0  0.25097336132E+02  0.66747713994E+02  0.14618207204E+03  0.18092068406E+03  0.79233592187E+02 0.  0.
          4    1    4    4  501    0 -0.29682559055E+02  0.33394182401E+02  0.25577073714E+02  0.51482156424E+02  0.00000000000E+00 0. -1.
         -3    1    4    4    0  501  0.16161485784E+02 -0.32105174324E+02  0.35526399849E+02  0.50537717869E+02  0.00000000000E+00 0.  1.
          5    1    3    3  502    0  0.15672247351E+02 -0.43294122798E+02 -0.58704594461E+02  0.74755065492E+02  0.47000000000E+01 0. -1.
         13    1    6    6    0    0  0.92849153744E+01 -0.21832373943E+01  0.90255539169E+02  0.90758132031E+02  0.00000000000E+00 0. -1.
        -14    1    6    6    0    0  0.15812420757E+02  0.68930951388E+02  0.55926532866E+02  0.90162552027E+02  0.00000000000E+00 0.  1.
         -5    1    5    5    0  503 -0.27248510212E+02 -0.24742599273E+02 -0.17113690198E+02  0.40861301004E+02  0.47000000000E+01 0.  1.
<mgrwt>
<rscale>  2 0.17945051E+03</rscale>
<asrwt>0</asrwt>
<pdfrwt beam="1">  1       21 0.40771091E-01 0.18035687E+03</pdfrwt>
<pdfrwt beam="2">  1       21 0.20545359E-01 0.18035687E+03</pdfrwt>
<totfact> 0.12774663E+05</totfact>
</mgrwt>
</event>
<event>
12    1  0.2769346E-001  0.2079022E+03  0.7546771E-02  0.1143456E+00
         21   -1    0    0  504  503  0.00000000000E+00  0.00000000000E+00  0.78995840715E+02  0.78995840715E+02  0.00000000000E+00 0.  1.
         21   -1    0    0  502  504 -0.00000000000E+00 -0.00000000000E+00 -0.56012522422E+03  0.56012522422E+03  0.00000000000E+00 0. -1.
          6    2    1    2  502    0  0.68807379610E+02  0.89544299852E+02 -0.18748190390E+03  0.27995143692E+03  0.17455860225E+03 0.  0.
         24    2    3    3    0    0  0.20067199498E+02  0.42290792261E+02 -0.10126610470E+02  0.89989626958E+02  0.76186489056E+02 0.  0.
         -6    2    1    2    0  503 -0.68807379610E+02 -0.89544299852E+02 -0.29364747961E+03  0.35916962802E+03  0.17326667968E+03 0.  0.
        -24    2    5    5    0    0  0.17583653032E+02 -0.31404923145E+02 -0.20279444197E+03  0.22089467695E+03  0.79833693138E+02 0.  0.
          4    1    4    4  501    0  0.66479780654E+01 -0.21588949322E+02  0.46523263031E+01  0.23063444782E+02  0.00000000000E+00 0. -1.
         -3    1    4    4    0  501  0.13419221433E+02  0.63879741583E+02 -0.14778936773E+02  0.66926182176E+02  0.00000000000E+00 0.  1.
          5    1    3    3  502    0  0.48740180111E+02  0.47253507591E+02 -0.17735529343E+03  0.18996180996E+03  0.47000000000E+01 0. -1.
         11    1    6    6    0    0 -0.30950111517E+02 -0.19775130266E+02 -0.70377472812E+02  0.79384846534E+02  0.00000000000E+00 0. -1.
        -12    1    6    6    0    0  0.48533764548E+02 -0.11629792879E+02 -0.13241696916E+03  0.14150983041E+03  0.00000000000E+00 0.  1.
         -5    1    5    5    0  503 -0.86391032641E+02 -0.58139376707E+02 -0.90853037645E+02  0.13827495107E+03  0.47000000000E+01 0.  1.
<mgrwt>
<rscale>  2 0.20763083E+03</rscale>
<asrwt>0</asrwt>
<pdfrwt beam="1">  1       21 0.12153206E-01 0.20790224E+03</pdfrwt>
<pdfrwt beam="2">  1       21 0.86173112E-01 0.20790224E+03</pdfrwt>
<totfact> 0.66138999E+04</totfact>
</mgrwt>
</event>
<event>
12    1  0.2769346E-001  0.1967528E+03  0.7546771E-02  0.1153065E+00
         21   -1    0    0  504  503  0.00000000000E+00  0.00000000000E+00  0.11537704799E+04  0.11537704799E+04  0.00000000000E+00 0. -1.
         21   -1    0    0  502  504 -0.00000000000E+00 -0.00000000000E+00 -0.50541738409E+02  0.50541738409E+02  0.00000000000E+00 0.  1.
          6    2    1    2  502    0  0.94957468527E+02  0.98221871268E+01  0.20041938419E+03  0.28085513163E+03  0.17204150433E+03 0.  0.
         24    2    3    3    0    0  0.12512080308E+03 -0.13522972411E+02  0.12073871053E+03  0.19239088473E+03  0.81230106230E+02 0.  0.
         -6    2    1    2    0  503 -0.94957468527E+02 -0.98221871268E+01  0.90280935731E+03  0.92345708669E+03  0.16910014525E+03 0.  0.
        -24    2    5    5    0    0 -0.41611396925E+02  0.45170161454E+02  0.68727950334E+03  0.69466641881E+03  0.80227587959E+02 0.  0.
          4    1    4    4  501    0  0.10569673862E+03 -0.61669367782E+01  0.13163915282E+03  0.16893400551E+03  0.00000000000E+00 0. -1.
         -3    1    4    4    0  501  0.19424064458E+02 -0.73560356332E+01 -0.10900442285E+02  0.23456879211E+02  0.00000000000E+00 0.  1.
          5    1    3    3  502    0 -0.30163334553E+02  0.23345159538E+02  0.79680673658E+02  0.88464246902E+02  0.47000000000E+01 0. -1.
         13    1    6    6    0    0 -0.30828562395E+02  0.47384541986E+02  0.21651358446E+03  0.22377181979E+03  0.00000000000E+00 0. -1.
        -14    1    6    6    0    0 -0.10782834530E+02 -0.22143805326E+01  0.47076591888E+03  0.47089459901E+03  0.00000000000E+00 0.  1.
         -5    1    5    5    0  503 -0.53346071602E+02 -0.54992348580E+02  0.21552985398E+03  0.22879066789E+03  0.47000000000E+01 0.  1.
<mgrwt>
<rscale>  2 0.19610799E+03</rscale>
<asrwt>0</asrwt>
<pdfrwt beam="1">  1       21 0.17750313E+00 0.19675283E+03</pdfrwt>
<pdfrwt beam="2">  1       21 0.77756529E-02 0.19675283E+03</pdfrwt>
<totfact> 0.23794294E+04</totfact>
</mgrwt>
</event>
<event>
12    1  0.2769346E-001  0.2358367E+03  0.7546771E-02  0.1122788E+00
         21   -1    0    0  504  503  0.00000000000E+00  0.00000000000E+00  0.91860561475E+02  0.91860561475E+02  0.00000000000E+00 0.  1.
         21   -1    0    0  502  504 -0.00000000000E+00 -0.00000000000E+00 -0.11135370505E+04  0.11135370505E+04  0.00000000000E+00 0. -1.
          6    2    1    2  502    0  0.77860587121E+02  0.13936748439E+03 -0.91973926865E+03  0.94949422268E+03  0.17358971707E+03 0.  0.
         24    2    3    3    0    0 -0.26613715243E+01  0.12848194679E+03 -0.66241467500E+03  0.67960476892E+03  0.80961390394E+02 0.  0.
         -6    2    1    2    0  503 -0.77860587121E+02 -0.13936748439E+03 -0.10193722034E+03  0.25590338926E+03  0.17207492848E+03 0.  0.
        -24    2    5    5    0    0 -0.79452030795E+02 -0.97219401787E+02 -0.20250248847E+01  0.14735141848E+03  0.77098005942E+02 0.  0.
          4    1    4    4  501    0 -0.15034836838E+02  0.13637155129E+03 -0.60105571311E+03  0.61651538227E+03  0.00000000000E+00 0. -1.
         -3    1    4    4    0  501  0.12373465313E+02 -0.78896044994E+01 -0.61358961888E+02  0.63089386643E+02  0.00000000000E+00 0.  1.
          5    1    3    3  502    0  0.80521958645E+02  0.10885537596E+02 -0.25732459365E+03  0.26988945376E+03  0.47000000000E+01 0. -1.
         11    1    6    6    0    0 -0.36311575187E+02 -0.86486080275E+02  0.22665800565E+02  0.96499280252E+02  0.00000000000E+00 0. -1.
        -12    1    6    6    0    0 -0.43140455608E+02 -0.10733321512E+02 -0.24690825449E+02  0.50852138226E+02  0.00000000000E+00 0.  1.
         -5    1    5    5    0  503  0.15914436740E+01 -0.42148082604E+02 -0.99912195457E+02  0.10855197078E+03  0.47000000000E+01 0.  1.
<mgrwt>
<rscale>  2 0.23555804E+03</rscale>
<asrwt>0</asrwt>
<pdfrwt beam="1">  1       21 0.14132394E-01 0.23583672E+03</pdfrwt>
<pdfrwt beam="2">  1       21 0.17131339E+00 0.23583672E+03</pdfrwt>
<totfact> 0.88407289E+03</totfact>
</mgrwt>
</event>
<event>
12    1  0.2769346E-001  0.2066194E+03  0.7546771E-02  0.1144315E+00
         21   -1    0    0  504  503  0.00000000000E+00  0.00000000000E+00  0.20136234906E+03  0.20136234906E+03  0.00000000000E+00 0.  1.
         21   -1    0    0  502  504 -0.00000000000E+00 -0.00000000000E+00 -0.29118511049E+03  0.29118511049E+03  0.00000000000E+00 0.  1.
          6    2    1    2  502    0 -0.10819370098E+03 -0.34774722733E+02 -0.17352316888E+03  0.26981823131E+03  0.17255848150E+03 0.  0.
         24    2    3    3    0    0 -0.51905170148E+02  0.33974342150E+02 -0.40364587940E+02  0.10966789474E+03  0.80928020890E+02 0.  0.
         -6    2    1    2    0  503  0.10819370098E+03  0.34774722733E+02  0.83700407448E+02  0.22272922823E+03  0.17230029781E+03 0.  0.
        -24    2    5    5    0    0  0.81020052695E+02  0.80560015173E+02  0.86783684431E+02  0.16919142138E+03  0.89666962711E+02 0.  0.
          2    1    4    4  501    0 -0.57494099750E+02  0.55390857241E+02 -0.31579246146E+02  0.85854338033E+02  0.00000000000E+00 0. -1.
         -1    1    4    4    0  501  0.55889296015E+01 -0.21416515091E+02 -0.87853417940E+01  0.23813556710E+02  0.00000000000E+00 0.  1.
          5    1    3    3  502    0 -0.56288530837E+02 -0.68749064883E+02 -0.13315858094E+03  0.16015033657E+03  0.47000000000E+01 0. -1.
         13    1    6    6    0    0  0.41387063397E+02  0.78320392341E+01 -0.84690546969E+01  0.42964575439E+02  0.00000000000E+00 0. -1.
        -14    1    6    6    0    0  0.39632989298E+02  0.72727975938E+02  0.95252739127E+02  0.12622684594E+03  0.00000000000E+00 0.  1.
         -5    1    5    5    0  503  0.27173648289E+02 -0.45785292440E+02 -0.30832769827E+01  0.53537806848E+02  0.47000000000E+01 0.  1.
<mgrwt>
<rscale>  2 0.20656551E+03</rscale>
<asrwt>0</asrwt>
<pdfrwt beam="1">  1       21 0.30978823E-01 0.20661943E+03</pdfrwt>
<pdfrwt beam="2">  1       21 0.44797709E-01 0.20661943E+03</pdfrwt>
<totfact> 0.47540544E+04</totfact>
</mgrwt>
</event>
<event>
12    1  0.2769346E-001  0.2226041E+03  0.7546771E-02  0.1132486E+00
         21   -1    0    0  504  503  0.00000000000E+00  0.00000000000E+00  0.11824218322E+03  0.11824218322E+03  0.00000000000E+00 0. -1.
         21   -1    0    0  502  504 -0.00000000000E+00 -0.00000000000E+00 -0.44601147606E+03  0.44601147606E+03  0.00000000000E+00 0.  1.
          6    2    1    2  502    0 -0.78001362004E+02  0.11625375728E+03 -0.24079775167E+03  0.32792701883E+03  0.17307057495E+03 0.  0.
         24    2    3    3    0    0 -0.24725463932E+02 -0.98065363604E+01 -0.93662191478E+02  0.12692830734E+03  0.81428940613E+02 0.  0.
         -6    2    1    2    0  503  0.78001362004E+02 -0.11625375728E+03 -0.86971541173E+02  0.23632664045E+03  0.16937261719E+03 0.  0.
        -24    2    5    5    0    0  0.62409798433E+02 -0.13872785294E+02 -0.84216329709E+02  0.13262205294E+03  0.80054866338E+02 0.  0.
          4    1    4    4  501    0 -0.43855940908E+02 -0.32760083763E+02 -0.50813344885E+02  0.74689776137E+02  0.00000000000E+00 0. -1.
         -3    1    4    4    0  501  0.19130476976E+02  0.22953547402E+02 -0.42848846594E+02  0.52238531201E+02  0.00000000000E+00 0.  1.
          5    1    3    3  502    0 -0.53275898072E+02  0.12606029364E+03 -0.14713556019E+03  0.20099871149E+03  0.47000000000E+01 0. -1.
         11    1    6    6    0    0 -0.78168341218E+01 -0.29038011472E+02 -0.31201752474E+02  0.43334263157E+02  0.00000000000E+00 0. -1.
        -12    1    6    6    0    0  0.70226632555E+02  0.15165226179E+02 -0.53014577235E+02  0.89287789784E+02  0.00000000000E+00 0.  1.
         -5    1    5    5    0  503  0.15591563571E+02 -0.10238097199E+03 -0.27552114645E+01  0.10370458751E+03  0.47000000000E+01 0.  1.
<mgrwt>
<rscale>  2 0.22188490E+03</rscale>
<asrwt>0</asrwt>
<pdfrwt beam="1">  1       21 0.18191105E-01 0.22260407E+03</pdfrwt>
<pdfrwt beam="2">  1       21 0.68617152E-01 0.22260407E+03</pdfrwt>
<totfact> 0.52557626E+04</totfact>
</mgrwt>
</event>
<event>
12    1  0.2769346E-001  0.2137701E+03  0.7546771E-02  0.1138629E+00
         21   -1    0    0  504  503  0.00000000000E+00  0.00000000000E+00  0.12353253815E+03  0.12353253815E+03  0.00000000000E+00 0.  1.
         21   -1    0    0  502  504 -0.00000000000E+00 -0.00000000000E+00 -0.45289450043E+03  0.45289450043E+03  0.00000000000E+00 0. -1.
          6    2    1    2  502    0 -0.12314224652E+03 -0.20794120741E+02 -0.28811330691E+03  0.35871372176E+03  0.17340659799E+03 0.  0.
         24    2    3    3    0    0  0.36347442286E+01 -0.34169157200E+02 -0.14135617538E+03  0.16426310428E+03  0.76289294407E+02 0.  0.
         -6    2    1    2    0  503  0.12314224652E+03  0.20794120741E+02 -0.41248655377E+02  0.21771331681E+03  0.17349705592E+03 0.  0.
        -24    2    5    5    0    0  0.52382582090E+02 -0.28341762549E+02  0.32629845907E+02  0.10412903934E+03  0.78936427455E+02 0.  0.
          2    1    4    4  501    0  0.22651533034E+02 -0.40877278718E+02 -0.13539749266E+03  0.14323590641E+03  0.00000000000E+00 0. -1.
         -1    1    4    4    0  501 -0.19016788805E+02  0.67081215177E+01 -0.59586827121E+01  0.21027197874E+02  0.00000000000E+00 0.  1.
          5    1    3    3  502    0 -0.12677699075E+03  0.13375036459E+02 -0.14675713153E+03  0.19445061749E+03  0.47000000000E+01 0. -1.
         13    1    6    6    0    0  0.25584477800E+02  0.53655597107E+01 -0.22280225877E+02  0.34347681151E+02  0.00000000000E+00 0. -1.
        -14    1    6    6    0    0  0.26798104290E+02 -0.33707322260E+02  0.54910071784E+02  0.69781358190E+02  0.00000000000E+00 0.  1.
         -5    1    5    5    0  503  0.70759664433E+02  0.49135883290E+02 -0.73878501284E+02  0.11358427747E+03  0.47000000000E+01 0.  1.
<mgrwt>
<rscale>  2 0.21375170E+03</rscale>
<asrwt>0</asrwt>
<pdfrwt beam="1">  1       21 0.19005006E-01 0.21377006E+03</pdfrwt>
<pdfrwt beam="2">  1       21 0.69676077E-01 0.21377006E+03</pdfrwt>
<totfact> 0.47028299E+04</totfact>
</mgrwt>
</event>
<event>
12    1  0.2769346E-001  0.1880774E+03  0.7546771E-02  0.1160586E+00
         21   -1    0    0  504  503  0.00000000000E+00  0.00000000000E+00  0.82271403377E+03  0.82271403377E+03  0.00000000000E+00 0.  1.
         21   -1    0    0  502  504 -0.00000000000E+00 -0.00000000000E+00 -0.42752722192E+02  0.42752722192E+02  0.00000000000E+00 0.  1.
          6    2    1    2  502    0 -0.62637744010E+02  0.29289352559E+02  0.41247777002E+03  0.45265048232E+03  0.17312768478E+03 0.  0.
         24    2    3    3    0    0 -0.81405593754E+02 -0.26896538280E+02  0.33103066391E+03  0.35182981179E+03  0.82780562622E+02 0.  0.
         -6    2    1    2    0  503  0.62637744010E+02 -0.29289352559E+02  0.36748354156E+03  0.41281627364E+03  0.17490502942E+03 0.  0.
        -24    2    5    5    0    0  0.34496739126E+02 -0.19216624640E+02  0.74072564729E+02  0.11784938172E+03  0.82718971547E+02 0.  0.
          4    1    4    4  501    0 -0.51465472578E+01 -0.40253714589E+02  0.13828788091E+03  0.14411934809E+03  0.00000000000E+00 0. -1.
         -3    1    4    4    0  501 -0.76259046496E+02  0.13357176310E+02  0.19274278300E+03  0.20771046370E+03  0.00000000000E+00 0.  1.
          5    1    3    3  502    0  0.18767849744E+02  0.56185890838E+02  0.81447106102E+02  0.10082067053E+03  0.47000000000E+01 0. -1.
         11    1    6    6    0    0 -0.25628076293E+02 -0.17430954175E+02  0.19404961686E+02  0.36567594889E+02  0.00000000000E+00 0. -1.
        -12    1    6    6    0    0  0.60124815420E+02 -0.17856704648E+01  0.54667603042E+02  0.81281786832E+02  0.00000000000E+00 0.  1.
         -5    1    5    5    0  503  0.28141004883E+02 -0.10072727918E+02  0.29341097683E+03  0.29496689192E+03  0.47000000000E+01 0.  1.
<mgrwt>
<rscale>  2 0.18766314E+03</rscale>
<asrwt>0</asrwt>
<pdfrwt beam="1">  1       21 0.12657138E+00 0.18807744E+03</pdfrwt>
<pdfrwt beam="2">  1       21 0.65773425E-02 0.18807744E+03</pdfrwt>
<totfact> 0.78028593E+04</totfact>
</mgrwt>
</event>
<event>
12    1  0.2769346E-001  0.1805549E+03  0.7546771E-02  0.1167468E+00
         21   -1    0    0  504  503  0.00000000000E+00  0.00000000000E+00  0.72692514436E+02  0.72692514436E+02  0.00000000000E+00 0. -1.
         21   -1    0    0  502  504 -0.00000000000E+00 -0.00000000000E+00 -0.45915656186E+03  0.45915656186E+03  0.00000000000E+00 0. -1.
          6    2    1    2  502    0  0.34341940751E+02 -0.37531874996E+02 -0.23798295538E+03  0.29872386152E+03  0.17323985643E+03 0.  0.
         24    2    3    3    0    0 -0.44508436762E+02 -0.18255267850E+02 -0.94569510347E+02  0.13386490413E+03  0.81622083545E+02 0.  0.
         -6    2    1    2    0  503 -0.34341940751E+02  0.37531874996E+02 -0.14848109204E+03  0.23312521477E+03  0.17237378146E+03 0.  0.
        -24    2    5    5    0    0 -0.33578994038E+02  0.24774563826E+02 -0.64717891478E+01  0.90464557322E+02  0.80003901301E+02 0.  0.
          2    1    4    4  501    0  0.57683421063E+01  0.32009271287E+01  0.12226076359E+02  0.13892323358E+02  0.00000000000E+00 0. -1.
         -1    1    4    4    0  501 -0.50276778868E+02 -0.21456194979E+02 -0.10679558671E+03  0.11997258077E+03  0.00000000000E+00 0.  1.
          5    1    3    3  502    0  0.78850377513E+02 -0.19276607146E+02 -0.14341344503E+03  0.16485895739E+03  0.47000000000E+01 0. -1.
         13    1    6    6    0    0 -0.32975715728E+01  0.35930508318E+02 -0.32841577373E+02  0.48789800273E+02  0.00000000000E+00 0. -1.
        -14    1    6    6    0    0 -0.30281422465E+02 -0.11155944492E+02  0.26369788226E+02  0.41674757049E+02  0.00000000000E+00 0.  1.
         -5    1    5    5    0  503 -0.76294671322E+00  0.12757311170E+02 -0.14200930289E+03  0.14266065745E+03  0.47000000000E+01 0.  1.
<mgrwt>
<rscale>  2 0.18034680E+03</rscale>
<asrwt>0</asrwt>
<pdfrwt beam="1">  1       21 0.11183464E-01 0.18055486E+03</pdfrwt>
<pdfrwt beam="2">  1       21 0.70639470E-01 0.18055486E+03</pdfrwt>
<totfact> 0.12138583E+05</totfact>
</mgrwt>
</event>
<event>
12    1  0.2769346E-001  0.1768851E+03  0.7546771E-02  0.1172261E+00
         21   -1    0    0  504  503  0.00000000000E+00  0.00000000000E+00  0.95352791462E+02  0.95352791462E+02  0.00000000000E+00 0. -1.
         21   -1    0    0  502  504 -0.00000000000E+00 -0.00000000000E+00 -0.33620247909E+03  0.33620247909E+03  0.00000000000E+00 0. -1.
          6    2    1    2  502    0  0.14291779304E+02 -0.79577462941E+01 -0.68168929308E+02  0.18435702886E+03  0.17050786047E+03 0.  0.
         24    2    3    3    0    0  0.41607016403E+01  0.44649415583E+02 -0.79472868335E+02  0.12940230883E+03  0.91750416781E+02 0.  0.
         -6    2    1    2    0  503 -0.14291779304E+02  0.79577462941E+01 -0.17268075832E+03  0.24719824170E+03  0.17612707266E+03 0.  0.
        -24    2    5    5    0    0  0.48255023668E+02  0.25676583408E+01 -0.43533996999E+02  0.10352454344E+03  0.80541802946E+02 0.  0.
          4    1    4    4  501    0 -0.12989410980E+01  0.58893415253E+02 -0.11859740559E+02  0.60089725031E+02  0.00000000000E+00 0. -1.
         -3    1    4    4    0  501  0.54596427383E+01 -0.14243999670E+02 -0.67613127776E+02  0.69312583800E+02  0.00000000000E+00 0.  1.
          5    1    3    3  502    0  0.10131077664E+02 -0.52607161877E+02  0.11303939027E+02  0.54954720024E+02  0.47000000000E+01 0. -1.
         11    1    6    6    0    0  0.28044218385E+02  0.60752091365E+01 -0.66682917428E+02  0.72594750689E+02  0.00000000000E+00 0. -1.
        -12    1    6    6    0    0  0.20210805283E+02 -0.35075507957E+01  0.23148920429E+02  0.30929792754E+02  0.00000000000E+00 0.  1.
         -5    1    5    5    0  503 -0.62546802972E+02  0.53900879533E+01 -0.12914676132E+03  0.14367369825E+03  0.47000000000E+01 0.  1.
<mgrwt>
<rscale>  2 0.17546958E+03</rscale>
<asrwt>0</asrwt>
<pdfrwt beam="1">  1       21 0.14669660E-01 0.17688507E+03</pdfrwt>
<pdfrwt beam="2">  1       21 0.51723458E-01 0.17688507E+03</pdfrwt>
<totfact> 0.14577198E+05</totfact>
</mgrwt>
</event>
<event>
12    1  0.2769346E-001  0.1829638E+03  0.7546771E-02  0.1165776E+00
         21   -1    0    0  504  503  0.00000000000E+00  0.00000000000E+00  0.46628309130E+02  0.46628309130E+02  0.00000000000E+00 0. -1.
         21   -1    0    0  502  504 -0.00000000000E+00 -0.00000000000E+00 -0.16840555241E+04  0.16840555241E+04  0.00000000000E+00 0. -1.
          6    2    1    2  502    0 -0.40311393514E+02  0.31445974863E+02 -0.14818149451E+04  0.14930677476E+04  0.17567558071E+03 0.  0.
         24    2    3    3    0    0 -0.47251542160E+01  0.59116484531E+02 -0.47037944243E+03  0.48061730261E+03  0.78861181059E+02 0.  0.
         -6    2    1    2    0  503  0.40311393514E+02 -0.31445974863E+02 -0.15561226990E+03  0.23761608565E+03  0.17214054674E+03 0.  0.
        -24    2    5    5    0    0 -0.58413661409E+01  0.43297488633E+02 -0.85087694228E+02  0.12486650324E+03  0.80267887991E+02 0.  0.
          2    1    4    4  501    0  0.64301702241E+01 -0.18282988055E+02 -0.67918257989E+02  0.70629345952E+02  0.00000000000E+00 0. -1.
         -1    1    4    4    0  501 -0.11155324440E+02  0.77399472586E+02 -0.40246118444E+03  0.40998795666E+03  0.00000000000E+00 0.  1.
          5    1    3    3  502    0 -0.35586239298E+02 -0.27670509668E+02 -0.10114355026E+04  0.10124504450E+04  0.47000000000E+01 0. -1.
         13    1    6    6    0    0 -0.27125366355E+02 -0.11037139231E+02 -0.46344052581E+02  0.54821301990E+02  0.00000000000E+00 0. -1.
        -14    1    6    6    0    0  0.21284000214E+02  0.54334627864E+02 -0.38743641648E+02  0.70045201252E+02  0.00000000000E+00 0.  1.
         -5    1    5    5    0  503  0.46152759655E+02 -0.74743463497E+02 -0.70524575676E+02  0.11274958241E+03  0.47000000000E+01 0.  1.
<mgrwt>
<rscale>  2 0.18211001E+03</rscale>
<asrwt>0</asrwt>
<pdfrwt beam="1">  1       21 0.71735859E-02 0.18296384E+03</pdfrwt>
<pdfrwt beam="2">  1       21 0.25908547E+00 0.18296384E+03</pdfrwt>
<totfact> 0.86139745E+03</totfact>
</mgrwt>
</event>
<event>
12    1  0.2769346E-001  0.2112688E+03  0.7546771E-02  0.1140940E+00
         21   -1    0    0  504  503  0.00000000000E+00  0.00000000000E+00  0.12258865651E+03  0.12258865651E+03  0.00000000000E+00 0.  1.
         21   -1    0    0  502  504 -0.00000000000E+00 -0.00000000000E+00 -0.86899356750E+03  0.86899356750E+03  0.00000000000E+00 0.  1.
          6    2    1    2  502    0 -0.82650403775E+02 -0.88271744584E+02 -0.75163312370E+03  0.78024874415E+03  0.17091740688E+03 0.  0.
         24    2    3    3    0    0 -0.10573649474E+03 -0.11192258092E+03 -0.58847898269E+03  0.61371438318E+03  0.81430710528E+02 0.  0.
         -6    2    1    2    0  503  0.82650403775E+02  0.88271744584E+02  0.52282127125E+01  0.21133347986E+03  0.17323831956E+03 0.  0.
        -24    2    5    5    0    0  0.15045585206E+02  0.34657025162E+02  0.60710734097E+02  0.10864292619E+03  0.81792500573E+02 0.  0.
          4    1    4    4  501    0 -0.97219229242E+02 -0.45791514776E+02 -0.35700907196E+03  0.37283229316E+03  0.00000000000E+00 0. -1.
         -3    1    4    4    0  501 -0.85172654976E+01 -0.66131066144E+02 -0.23146991073E+03  0.24088209003E+03  0.00000000000E+00 0.  1.
          5    1    3    3  502    0  0.23086090964E+02  0.23650836336E+02 -0.16315414101E+03  0.16653436097E+03  0.47000000000E+01 0. -1.
         13    1    6    6    0    0  0.45290280946E+02  0.30281823000E+02  0.20664582029E+02  0.58268544711E+02  0.00000000000E+00 0. -1.
        -14    1    6    6    0    0 -0.30244695739E+02  0.43752021626E+01  0.40046152068E+02  0.50374381483E+02  0.00000000000E+00 0.  1.
         -5    1    5    5    0  503  0.67604818569E+02  0.53614719422E+02 -0.55482521385E+02  0.10269055366E+03  0.47000000000E+01 0.  1.
<mgrwt>
<rscale>  2 0.21079246E+03</rscale>
<asrwt>0</asrwt>
<pdfrwt beam="1">  1       21 0.18859794E-01 0.21126880E+03</pdfrwt>
<pdfrwt beam="2">  1       21 0.13369131E+00 0.21126880E+03</pdfrwt>
<totfact> 0.10230894E+04</totfact>
</mgrwt>
</event>
<event>
12    1  0.2769346E-001  0.2330377E+03  0.7546771E-02  0.1124664E+00
         21   -1    0    0  504  503  0.00000000000E+00  0.00000000000E+00  0.20376860202E+03  0.20376860202E+03  0.00000000000E+00 0. -1.
         21   -1    0    0  502  504 -0.00000000000E+00 -0.00000000000E+00 -0.28711948378E+03  0.28711948378E+03  0.00000000000E+00 0.  1.
          6    2    1    2  502    0 -0.13589913495E+03  0.76465187045E+02 -0.10899752996E+03  0.25726841145E+03  0.17317931252E+03 0.  0.
         24    2    3    3    0    0  0.39167739060E+01  0.25443758651E+02 -0.53363246420E+02  0.98306346704E+02  0.78446005390E+02 0.  0.
         -6    2    1    2    0  503  0.13589913495E+03 -0.76465187045E+02  0.25646648197E+02  0.23361967434E+03  0.17206075080E+03 0.  0.
        -24    2    5    5    0    0  0.35036117245E+02  0.11928008034E+02  0.42914984164E+02  0.98316345842E+02  0.80340532154E+02 0.  0.
          4    1    4    4  501    0 -0.53068794187E+01 -0.27418304713E+02 -0.11309779486E+02  0.30130342091E+02  0.00000000000E+00 0. -1.
         -3    1    4    4    0  501  0.92236533246E+01  0.52862063364E+02 -0.42053466935E+02  0.68176004613E+02  0.00000000000E+00 0.  1.
          5    1    3    3  502    0 -0.13981590886E+03  0.51021428394E+02 -0.55634283542E+02  0.15896206475E+03  0.47000000000E+01 0. -1.
         13    1    6    6    0    0 -0.13120273215E+02 -0.20991135689E+02 -0.17964361580E+01  0.24819277379E+02  0.00000000000E+00 0. -1.
        -14    1    6    6    0    0  0.48156390460E+02  0.32919143723E+02  0.44711420322E+02  0.73497068464E+02  0.00000000000E+00 0.  1.
         -5    1    5    5    0  503  0.10086301770E+03 -0.88393195079E+02 -0.17268335966E+02  0.13530332850E+03  0.47000000000E+01 0.  1.
<mgrwt>
<rscale>  2 0.23282992E+03</rscale>
<asrwt>0</asrwt>
<pdfrwt beam="1">  1       21 0.31349016E-01 0.23303771E+03</pdfrwt>
<pdfrwt beam="2">  1       21 0.44172228E-01 0.23303771E+03</pdfrwt>
<totfact> 0.47236227E+04</totfact>
</mgrwt>
</event>
<event>
12    1  0.2769346E-001  0.2678611E+03  0.7546771E-02  0.1102579E+00
         21   -1    0    0  504  503  0.00000000000E+00  0.00000000000E+00  0.60233773757E+02  0.60233773757E+02  0.00000000000E+00 0.  1.
         21   -1    0    0  502  504 -0.00000000000E+00 -0.00000000000E+00 -0.16108170568E+04  0.16108170568E+04  0.00000000000E+00 0.  1.
          6    2    1    2  502    0 -0.11520658785E+02 -0.20487378994E+03 -0.12023137478E+04  0.12316862207E+04  0.17142520996E+03 0.  0.
         24    2    3    3    0    0  0.31769381464E+02 -0.20361987693E+03 -0.10582300927E+04  0.10811611744E+04  0.81167777191E+02 0.  0.
         -6    2    1    2    0  503  0.11520658785E+02  0.20487378994E+03 -0.34826953522E+03  0.43936460988E+03  0.17217315665E+03 0.  0.
        -24    2    5    5    0    0 -0.16677340776E+02  0.12291079103E+03 -0.10588502931E+03  0.18190510030E+03  0.80576856704E+02 0.  0.
          2    1    4    4  501    0  0.48025523261E+02 -0.19832299897E+03 -0.95901122338E+03  0.98047997908E+03  0.00000000000E+00 0. -1.
         -1    1    4    4    0  501 -0.16256141797E+02 -0.52968779608E+01 -0.99218869294E+02  0.10068119530E+03  0.00000000000E+00 0.  1.
          5    1    3    3  502    0 -0.43290040249E+02 -0.12539130134E+01 -0.14408365517E+03  0.15052504632E+03  0.47000000000E+01 0. -1.
         13    1    6    6    0    0 -0.64306129347E+00  0.46925353209E+01  0.12784797012E+02  0.13633944778E+02  0.00000000000E+00 0. -1.
        -14    1    6    6    0    0 -0.16034279482E+02  0.11821825570E+03 -0.11866982632E+03  0.16827115552E+03  0.00000000000E+00 0.  1.
         -5    1    5    5    0  503  0.28197999561E+02  0.81962998918E+02 -0.24238450591E+03  0.25745950958E+03  0.47000000000E+01 0.  1.
<mgrwt>
<rscale>  2 0.26774102E+03</rscale>
<asrwt>0</asrwt>
<pdfrwt beam="1">  1       21 0.92667342E-02 0.26786114E+03</pdfrwt>
<pdfrwt beam="2">  1       21 0.24781802E+00 0.26786114E+03</pdfrwt>
<totfact> 0.59553664E+03</totfact>
</mgrwt>
</event>
<event>
12    1  0.2769346E-001  0.2374545E+03  0.7546771E-02  0.1121917E+00
         21   -1    0    0  504  503  0.00000000000E+00  0.00000000000E+00  0.15489233071E+03  0.15489233071E+03  0.00000000000E+00 0.  1.
         21   -1    0    0  502  504 -0.00000000000E+00 -0.00000000000E+00 -0.42185479748E+03  0.42185479748E+03  0.00000000000E+00 0. -1.
          6    2    1    2  502    0  0.39339386189E+02  0.15605537751E+03 -0.24306512209E+03  0.33809313255E+03  0.17124673586E+03 0.  0.
         24    2    3    3    0    0 -0.33565659587E+02  0.38690778026E+02 -0.11345519826E+03  0.14859269121E+03  0.81142319787E+02 0.  0.
         -6    2    1    2    0  503 -0.39339386189E+02 -0.15605537751E+03 -0.23897344669E+02  0.23865399564E+03  0.17459604348E+03 0.  0.
        -24    2    5    5    0    0 -0.88487627270E+02 -0.12044465379E+03 -0.43605630640E+02  0.17466821768E+03  0.79186870373E+02 0.  0.
          2    1    4    4  501    0 -0.70024638188E+00  0.30090568715E+02 -0.11046178522E+03  0.11448903295E+03  0.00000000000E+00 0. -1.
         -1    1    4    4    0  501 -0.32865413206E+02  0.86002093110E+01 -0.29934130415E+01  0.34103658264E+02  0.00000000000E+00 0.  1.
          5    1    3    3  502    0  0.72905045777E+02  0.11736459948E+03 -0.12960992383E+03  0.18950044133E+03  0.47000000000E+01 0. -1.
         11    1    6    6    0    0 -0.48314173380E+02 -0.27147520273E+02  0.14977107204E+02  0.57406976462E+02  0.00000000000E+00 0. -1.
        -12    1    6    6    0    0 -0.40173453890E+02 -0.93297133512E+02 -0.58582737845E+02  0.11726124122E+03  0.00000000000E+00 0.  1.
         -5    1    5    5    0  503  0.49148241081E+02 -0.35610723722E+02  0.19708285972E+02  0.63985777961E+02  0.47000000000E+01 0.  1.
<mgrwt>
<rscale>  2 0.23683920E+03</rscale>
<asrwt>0</asrwt>
<pdfrwt beam="1">  1       21 0.23829590E-01 0.23745451E+03</pdfrwt>
<pdfrwt beam="2">  1       21 0.64900738E-01 0.23745451E+03</pdfrwt>
<totfact> 0.35486587E+04</totfact>
</mgrwt>
</event>
<event>
12    1  0.2769346E-001  0.2661081E+03  0.7546771E-02  0.1103770E+00
         21   -1    0    0  504  503  0.00000000000E+00  0.00000000000E+00  0.11959463266E+04  0.11959463266E+04  0.00000000000E+00 0.  1.
         21   -1    0    0  502  504 -0.00000000000E+00 -0.00000000000E+00 -0.12247053541E+03  0.12247053541E+03  0.00000000000E+00 0.  1.
          6    2    1    2  502    0 -0.43132502205E+02 -0.19714754824E+03  0.60792268690E+02  0.27135362510E+03  0.17090793252E+03 0.  0.
         24    2    3    3    0    0 -0.13305996557E+02 -0.77490411058E+02 -0.29488151899E+02  0.11844811421E+03  0.83537963269E+02 0.  0.
         -6    2    1    2    0  503  0.43132502205E+02  0.19714754824E+03  0.10126835225E+04  0.10470632369E+04  0.17345298159E+03 0.  0.
        -24    2    5    5    0    0  0.70038206872E+02  0.12890551804E+03  0.87591748147E+03  0.89179594606E+03  0.80911013238E+02 0.  0.
          4    1    4    4  501    0 -0.26803890461E+02 -0.13917088408E+02 -0.42529416414E+02  0.52162104579E+02  0.00000000000E+00 0. -1.
         -3    1    4    4    0  501  0.13497893904E+02 -0.63573322650E+02  0.13041264515E+02  0.66286009631E+02  0.00000000000E+00 0.  1.
          5    1    3    3  502    0 -0.29826505648E+02 -0.11965713718E+03  0.90280420588E+02  0.15290551089E+03  0.47000000000E+01 0. -1.
         11    1    6    6    0    0  0.41778305450E+01  0.10332974595E+02  0.29670751628E+03  0.29691678102E+03  0.00000000000E+00 0. -1.
        -12    1    6    6    0    0  0.65860376327E+02  0.11857254345E+03  0.57920996519E+03  0.59487916505E+03  0.00000000000E+00 0.  1.
         -5    1    5    5    0  503 -0.26905704667E+02  0.68242030198E+02  0.13676604106E+03  0.15526729088E+03  0.47000000000E+01 0.  1.
<mgrwt>
<rscale>  2 0.26569414E+03</rscale>
<asrwt>0</asrwt>
<pdfrwt beam="1">  1       21 0.18399173E+00 0.26610807E+03</pdfrwt>
<pdfrwt beam="2">  1       21 0.18841622E-01 0.26610807E+03</pdfrwt>
<totfact> 0.41611698E+03</totfact>
</mgrwt>
</event>
<event>
12    1  0.2769346E-001  0.1830793E+03  0.7546771E-02  0.1165162E+00
         21   -1    0    0  504  503  0.00000000000E+00  0.00000000000E+00  0.59203983993E+02  0.59203983993E+02  0.00000000000E+00 0. -1.
         21   -1    0    0  502  504 -0.00000000000E+00 -0.00000000000E+00 -0.61934236452E+03  0.61934236452E+03  0.00000000000E+00 0. -1.
          6    2    1    2  502    0 -0.25320992409E+02 -0.51902016373E+02 -0.38225985129E+03  0.42328412107E+03  0.17237134703E+03 0.  0.
         24    2    3    3    0    0 -0.33880888987E+02  0.26564786221E+02 -0.27460389316E+03  0.28970939943E+03  0.81673958354E+02 0.  0.
         -6    2    1    2    0  503  0.25320992409E+02  0.51902016373E+02 -0.17787852924E+03  0.25526222745E+03  0.17373273048E+03 0.  0.
        -24    2    5    5    0    0 -0.15599351900E+02 -0.22328457315E+02 -0.41352870785E+02  0.94495367627E+02  0.80482388104E+02 0.  0.
          2    1    4    4  501    0  0.42709694847E+00  0.48741458832E+02 -0.11384152628E+03  0.12383781865E+03  0.00000000000E+00 0. -1.
         -1    1    4    4    0  501 -0.34307985936E+02 -0.22176672611E+02 -0.16076236688E+03  0.16587158078E+03  0.00000000000E+00 0.  1.
          5    1    3    3  502    0  0.85598965782E+01 -0.78466802594E+02 -0.10765595813E+03  0.13357472163E+03  0.47000000000E+01 0. -1.
         13    1    6    6    0    0 -0.50606860845E+01  0.14588282464E+01 -0.61415571550E+02  0.61640985978E+02  0.00000000000E+00 0. -1.
        -14    1    6    6    0    0 -0.10538665815E+02 -0.23787285562E+02  0.20062700765E+02  0.32854381649E+02  0.00000000000E+00 0.  1.
         -5    1    5    5    0  503  0.40920344309E+02  0.74230473688E+02 -0.13652565845E+03  0.16076685982E+03  0.47000000000E+01 0.  1.
<mgrwt>
<rscale>  2 0.18275561E+03</rscale>
<asrwt>0</asrwt>
<pdfrwt beam="1">  1       21 0.91083053E-02 0.18307931E+03</pdfrwt>
<pdfrwt beam="2">  1       21 0.95283440E-01 0.18307931E+03</pdfrwt>
<totfact> 0.88346989E+04</totfact>
</mgrwt>
</event>
<event>
12    1  0.2769346E-001  0.3191530E+03  0.7546771E-02  0.1076061E+00
         21   -1    0    0  504  503  0.00000000000E+00  0.00000000000E+00  0.15308703322E+04  0.15308703322E+04  0.00000000000E+00 0. -1.
         21   -1    0    0  502  504 -0.00000000000E+00 -0.00000000000E+00 -0.69367167734E+02  0.69367167734E+02  0.00000000000E+00 0. -1.
          6    2    1    2  502    0  0.31330204468E+02 -0.26606219285E+03  0.89325671342E+03  0.94849928942E+03  0.17312617878E+03 0.  0.
         24    2    3    3    0    0 -0.28144468988E+02 -0.10835800544E+03  0.27912639569E+03  0.31164295973E+03  0.81708145861E+02 0.  0.
         -6    2    1    2    0  503 -0.31330204468E+02  0.26606219285E+03  0.56824645104E+03  0.65173821051E+03  0.17345891082E+03 0.  0.
        -24    2    5    5    0    0 -0.72030640720E+01  0.39288934500E+02  0.13747307467E+03  0.16429998735E+03  0.80623415197E+02 0.  0.
          2    1    4    4  501    0 -0.38530168910E+02 -0.11592409904E+03  0.22511830590E+03  0.25612735564E+03  0.00000000000E+00 0. -1.
         -1    1    4    4    0  501  0.10385699922E+02  0.75660935951E+01  0.54008089785E+02  0.55515604089E+02  0.00000000000E+00 0.  1.
          5    1    3    3  502    0  0.59474673456E+02 -0.15770418741E+03  0.61413031774E+03  0.63685632969E+03  0.47000000000E+01 0. -1.
         13    1    6    6    0    0 -0.29792349914E+02  0.52912143098E+02  0.75099265668E+02  0.96577319825E+02  0.00000000000E+00 0. -1.
        -14    1    6    6    0    0  0.22589285842E+02 -0.13623208598E+02  0.62373809007E+02  0.67722667530E+02  0.00000000000E+00 0.  1.
         -5    1    5    5    0  503 -0.24127140396E+02  0.22677325835E+03  0.43077337637E+03  0.48743822315E+03  0.47000000000E+01 0.  1.
<mgrwt>
<rscale>  2 0.31910786E+03</rscale>
<asrwt>0</asrwt>
<pdfrwt beam="1">  1       21 0.23551849E+00 0.31915304E+03</pdfrwt>
<pdfrwt beam="2">  1       21 0.10671873E-01 0.31915304E+03</pdfrwt>
<totfact> 0.53155131E+03</totfact>
</mgrwt>
</event>
<event>
12    1  0.2769346E-001  0.1910596E+03  0.7546771E-02  0.1157595E+00
         21   -1    0    0  504  503  0.00000000000E+00  0.00000000000E+00  0.22466245874E+03  0.22466245874E+03  0.00000000000E+00 0. -1.
         21   -1    0    0  502  504 -0.00000000000E+00 -0.00000000000E+00 -0.21191933017E+03  0.21191933017E+03  0.00000000000E+00 0. -1.
          6    2    1    2  502    0 -0.27167821773E+02 -0.77405193462E+02 -0.99401346772E+02  0.21537041038E+03  0.17255182239E+03 0.  0.
         24    2    3    3    0    0 -0.82211379734E+02 -0.33399254246E+02 -0.66692662053E+02  0.13753555947E+03  0.81202818952E+02 0.  0.
         -6    2    1    2    0  503  0.27167821773E+02  0.77405193462E+02  0.11214447533E+03  0.22121137853E+03  0.17212912633E+03 0.  0.
        -24    2    5    5    0    0 -0.45349895974E+02  0.58941354559E+02  0.95044398174E+02  0.14430731250E+03  0.79123109602E+02 0.  0.
          2    1    4    4  501    0 -0.45945349163E+02 -0.52479118524E+02 -0.66769387985E+02  0.96556637072E+02  0.00000000000E+00 0. -1.
         -1    1    4    4    0  501 -0.36266030571E+02  0.19079864278E+02  0.76725931887E-01  0.40978922401E+02  0.00000000000E+00 0.  1.
          5    1    3    3  502    0  0.55043557961E+02 -0.44005939216E+02 -0.32708684718E+02  0.77834850904E+02  0.47000000000E+01 0. -1.
         11    1    6    6    0    0  0.10629875641E+02  0.32320202087E+02  0.41320890450E+01  0.34273369822E+02  0.00000000000E+00 0. -1.
        -12    1    6    6    0    0 -0.55979771615E+02  0.26621152473E+02  0.90912309129E+02  0.11003394267E+03  0.00000000000E+00 0.  1.
         -5    1    5    5    0  503  0.72517717747E+02  0.18463838902E+02  0.17100077159E+02  0.76904066038E+02  0.47000000000E+01 0.  1.
<mgrwt>
<rscale>  2 0.19096415E+03</rscale>
<asrwt>0</asrwt>
<pdfrwt beam="1">  1       21 0.34563455E-01 0.19105964E+03</pdfrwt>
<pdfrwt beam="2">  1       21 0.32602974E-01 0.19105964E+03</pdfrwt>
<totfact> 0.73095635E+04</totfact>
</mgrwt>
</event>
<event>
12    1  0.2769346E-001  0.2231531E+03  0.7546771E-02  0.1131731E+00
         21   -1    0    0  504  503  0.00000000000E+00  0.00000000000E+00  0.21288158792E+03  0.21288158792E+03  0.00000000000E+00 0.  1.
         21   -1    0    0  502  504 -0.00000000000E+00 -0.00000000000E+00 -0.50092398390E+03  0.50092398390E+03  0.00000000000E+00 0. -1.
          6    2    1    2  502    0  0.10681062418E+02  0.13796519877E+03 -0.40522812235E+03  0.46260907365E+03  0.17506810879E+03 0.  0.
         24    2    3    3    0    0  0.35389173773E+02  0.70946165337E+02 -0.97791977105E+02  0.14694926466E+03  0.75796197805E+02 0.  0.
         -6    2    1    2    0  503 -0.10681062418E+02 -0.13796519877E+03  0.11718572637E+03  0.25119649817E+03  0.17383528141E+03 0.  0.
        -24    2    5    5    0    0 -0.51191789968E+01  0.34064724527E+01  0.61638001880E+02  0.99129001097E+02  0.77391895793E+02 0.  0.
          2    1    4    4  501    0  0.45652238138E+02  0.47966007570E+02 -0.10182263596E+03  0.12146075054E+03  0.00000000000E+00 0. -1.
         -1    1    4    4    0  501 -0.10263064366E+02  0.22980157767E+02  0.40306588511E+01  0.25488514118E+02  0.00000000000E+00 0.  1.
          5    1    3    3  502    0 -0.24708111354E+02  0.67019033433E+02 -0.30743614524E+03  0.31565980899E+03  0.47000000000E+01 0. -1.
         11    1    6    6    0    0 -0.12181231088E+02  0.12515495570E+02 -0.14145038146E+02  0.22474477176E+02  0.00000000000E+00 0. -1.
        -12    1    6    6    0    0  0.70620520915E+01 -0.91090231177E+01  0.75783040026E+02  0.76654523920E+02  0.00000000000E+00 0.  1.
         -5    1    5    5    0  503 -0.55618834216E+01 -0.14137167122E+03  0.55547724492E+02  0.15206749708E+03  0.47000000000E+01 0.  1.
<mgrwt>
<rscale>  2 0.22291128E+03</rscale>
<asrwt>0</asrwt>
<pdfrwt beam="1">  1       21 0.32751013E-01 0.22315314E+03</pdfrwt>
<pdfrwt beam="2">  1       21 0.77065228E-01 0.22315314E+03</pdfrwt>
<totfact> 0.13168453E+04</totfact>
</mgrwt>
</event>
<event>
12    1  0.2769346E-001  0.2227280E+03  0.7546771E-02  0.1131927E+00
         21   -1    0    0  504  503  0.00000000000E+00  0.00000000000E+00  0.15144546222E+04  0.15144546222E+04  0.00000000000E+00 0. -1.
         21   -1    0    0  502  504 -0.00000000000E+00 -0.00000000000E+00 -0.46216667199E+02  0.46216667199E+02  0.00000000000E+00 0.  1.
          6    2    1    2  502    0 -0.13911131443E+03 -0.26629015489E+01  0.31261411613E+03  0.38384288608E+03  0.17392161092E+03 0.  0.
         24    2    3    3    0    0 -0.79227460399E+02  0.57926881636E+02  0.24338869978E+03  0.27397275334E+03  0.78679707007E+02 0.  0.
         -6    2    1    2    0  503  0.13911131443E+03  0.26629015489E+01  0.11556238388E+04  0.11768284033E+04  0.17349231979E+03 0.  0.
        -24    2    5    5    0    0  0.14939510775E+03 -0.32828390947E+01  0.67503453669E+03  0.69606934140E+03  0.80692174744E+02 0.  0.
          2    1    4    4  501    0 -0.59103315364E+02  0.41069223663E+02  0.23595692599E+03  0.24668918489E+03  0.00000000000E+00 0. -1.
         -1    1    4    4    0  501 -0.20124145035E+02  0.16857657974E+02  0.74317737920E+01  0.27283568451E+02  0.00000000000E+00 0.  1.
          5    1    3    3  502    0 -0.59883854035E+02 -0.60589783185E+02  0.69225416347E+02  0.10987013274E+03  0.47000000000E+01 0. -1.
         13    1    6    6    0    0  0.74390586833E+02  0.38690127000E+02  0.33939763312E+03  0.34960211485E+03  0.00000000000E+00 0. -1.
        -14    1    6    6    0    0  0.75004520918E+02 -0.41972966095E+02  0.33563690357E+03  0.34646722656E+03  0.00000000000E+00 0.  1.
         -5    1    5    5    0  503 -0.10283793318E+02  0.59457406437E+01  0.48058930215E+03  0.48075906187E+03  0.47000000000E+01 0.  1.
<mgrwt>
<rscale>  2 0.22264422E+03</rscale>
<asrwt>0</asrwt>
<pdfrwt beam="1">  1       21 0.23299298E+00 0.22272803E+03</pdfrwt>
<pdfrwt beam="2">  1       21 0.71102576E-02 0.22272803E+03</pdfrwt>
<totfact> 0.12041193E+04</totfact>
</mgrwt>
</event>
<event>
12    1  0.2769346E-001  0.2170620E+03  0.7546771E-02  0.1136251E+00
         21   -1    0    0  504  503  0.00000000000E+00  0.00000000000E+00  0.37540341489E+03  0.37540341489E+03  0.00000000000E+00 0.  1.
         21   -1    0    0  502  504 -0.00000000000E+00 -0.00000000000E+00 -0.14007661273E+03  0.14007661273E+03  0.00000000000E+00 0. -1.
          6    2    1    2  502    0  0.10352791445E+02  0.12994344087E+03  0.32976554026E+02  0.21872841019E+03  0.17251720550E+03 0.  0.
         24    2    3    3    0    0  0.24865346883E+02  0.52095316992E+02  0.79508170005E+02  0.12675979629E+03  0.80089258522E+02 0.  0.
         -6    2    1    2    0  503 -0.10352791445E+02 -0.12994344087E+03  0.20235024814E+03  0.29675161743E+03  0.17356100197E+03 0.  0.
        -24    2    5    5    0    0 -0.43981403797E+01 -0.90210071426E+01  0.30570873641E+02  0.86542349429E+02  0.80338519533E+02 0.  0.
          4    1    4    4  501    0  0.13925512731E+02  0.73343169117E+02  0.56947626890E+02  0.93894475713E+02  0.00000000000E+00 0. -1.
         -3    1    4    4    0  501  0.10939834152E+02 -0.21247852125E+02  0.22560543115E+02  0.32865320580E+02  0.00000000000E+00 0.  1.
          5    1    3    3  502    0 -0.14512555438E+02  0.77848123880E+02 -0.46531615979E+02  0.91968613899E+02  0.47000000000E+01 0. -1.
         13    1    6    6    0    0 -0.42095824977E+02  0.28557868095E+00  0.17203459972E+02  0.45476357271E+02  0.00000000000E+00 0. -1.
        -14    1    6    6    0    0  0.37697684597E+02 -0.93065858235E+01  0.13367413669E+02  0.41065992157E+02  0.00000000000E+00 0.  1.
         -5    1    5    5    0  503 -0.59546510651E+01 -0.12092243373E+03  0.17177937450E+03  0.21020926800E+03  0.47000000000E+01 0.  1.
<mgrwt>
<rscale>  2 0.21685325E+03</rscale>
<asrwt>0</asrwt>
<pdfrwt beam="1">  1       21 0.57754371E-01 0.21706197E+03</pdfrwt>
<pdfrwt beam="2">  1       21 0.21550248E-01 0.21706197E+03</pdfrwt>
<totfact> 0.55787407E+04</totfact>
</mgrwt>
</event>
<event>
12    1  0.2769346E-001  0.1989785E+03  0.7546771E-02  0.1150649E+00
         21   -1    0    0  504  503  0.00000000000E+00  0.00000000000E+00  0.11855199925E+03  0.11855199925E+03  0.00000000000E+00 0. -1.
         21   -1    0    0  502  504 -0.00000000000E+00 -0.00000000000E+00 -0.56480210861E+03  0.56480210861E+03  0.00000000000E+00 0. -1.
          6    2    1    2  502    0 -0.41218662782E+02  0.89492297213E+02 -0.44504698001E+01  0.19881372718E+03  0.17262456955E+03 0.  0.
         24    2    3    3    0    0 -0.92740943960E+02  0.75906928110E+02 -0.76775524039E+01  0.14522630540E+03  0.81663887656E+02 0.  0.
         -6    2    1    2    0  503  0.41218662782E+02 -0.89492297213E+02 -0.44179963956E+03  0.48454038068E+03  0.17287165637E+03 0.  0.
        -24    2    5    5    0    0 -0.22244822250E+00 -0.70660884431E+02 -0.42119911376E+03  0.43435612566E+03  0.79142532178E+02 0.  0.
          4    1    4    4  501    0 -0.41178352658E+02 -0.59257338396E+01  0.17728627635E+02  0.45222508632E+02  0.00000000000E+00 0. -1.
         -3    1    4    4    0  501 -0.51562591302E+02  0.81832661949E+02 -0.25406180039E+02  0.10000379677E+03  0.00000000000E+00 0.  1.
          5    1    3    3  502    0  0.51522281178E+02  0.13585369104E+02  0.32270826037E+01  0.53587421786E+02  0.47000000000E+01 0. -1.
         13    1    6    6    0    0  0.30183444617E+02 -0.13149316110E+01 -0.10944892003E+03  0.11354221889E+03  0.00000000000E+00 0. -1.
        -14    1    6    6    0    0 -0.30405892840E+02 -0.69345952820E+02 -0.31175019372E+03  0.32081390677E+03  0.00000000000E+00 0.  1.
         -5    1    5    5    0  503  0.41441111004E+02 -0.18831412782E+02 -0.20600525802E+02  0.50184255021E+02  0.47000000000E+01 0.  1.
<mgrwt>
<rscale>  2 0.19892486E+03</rscale>
<asrwt>0</asrwt>
<pdfrwt beam="1">  1       21 0.18238769E-01 0.19897854E+03</pdfrwt>
<pdfrwt beam="2">  1       21 0.86892631E-01 0.19897854E+03</pdfrwt>
<totfact> 0.31104597E+04</totfact>
</mgrwt>
</event>
<event>
12    1  0.2769346E-001  0.1747083E+03  0.7546771E-02  0.1174096E+00
         21   -1    0    0  504  503  0.00000000000E+00  0.00000000000E+00  0.49369660427E+03  0.49369660427E+03  0.00000000000E+00 0. -1.
         21   -1    0    0  502  504 -0.00000000000E+00 -0.00000000000E+00 -0.78521823970E+02  0.78521823970E+02  0.00000000000E+00 0. -1.
          6    2    1    2  502    0 -0.31325107682E+01  0.70940526325E+01  0.34328510086E+03  0.38329751250E+03  0.17032963457E+03 0.  0.
         24    2    3    3    0    0  0.50252596244E+02 -0.29872386388E+02  0.15640369647E+03  0.18540047723E+03  0.80582490588E+02 0.  0.
         -6    2    1    2    0  503  0.31325107682E+01 -0.70940526325E+01  0.71889679444E+02  0.18892091574E+03  0.17453609422E+03 0.  0.
        -24    2    5    5    0    0 -0.23156624326E+02 -0.16444871640E+02  0.10663600219E+03  0.14411072287E+03  0.92682255211E+02 0.  0.
          2    1    4    4  501    0  0.40653819928E+02  0.20023837221E+02  0.49961067514E+02  0.67452171195E+02  0.00000000000E+00 0. -1.
         -1    1    4    4    0  501  0.95987763160E+01 -0.49896223609E+02  0.10644262895E+03  0.11794830603E+03  0.00000000000E+00 0.  1.
          5    1    3    3  502    0 -0.53385107012E+02  0.36966439021E+02  0.18688140439E+03  0.19789703528E+03  0.47000000000E+01 0. -1.
         11    1    6    6    0    0 -0.29986131393E+02 -0.42756544018E+02  0.24674971200E+02  0.57759365786E+02  0.00000000000E+00 0. -1.
        -12    1    6    6    0    0  0.68295070670E+01  0.26311672378E+02  0.81961030990E+02  0.86351357088E+02  0.00000000000E+00 0.  1.
         -5    1    5    5    0  503  0.26289135094E+02  0.93508190079E+01 -0.34746322746E+02  0.44810192864E+02  0.47000000000E+01 0.  1.
<mgrwt>
<rscale>  2 0.17364813E+03</rscale>
<asrwt>0</asrwt>
<pdfrwt beam="1">  1       21 0.75953322E-01 0.17470829E+03</pdfrwt>
<pdfrwt beam="2">  1       21 0.12080281E-01 0.17470829E+03</pdfrwt>
<totfact> 0.90286768E+04</totfact>
</mgrwt>
</event>
<event>
12    1  0.2769346E-001  0.1952145E+03  0.7546771E-02  0.1153909E+00
         21   -1    0    0  504  503  0.00000000000E+00  0.00000000000E+00  0.97455839076E+02  0.97455839076E+02  0.00000000000E+00 0. -1.
         21   -1    0    0  502  504 -0.00000000000E+00 -0.00000000000E+00 -0.59079014565E+03  0.59079014565E+03  0.00000000000E+00 0. -1.
          6    2    1    2  502    0 -0.87868934874E+02 -0.22478391509E+02 -0.44721570846E+03  0.48796576743E+03  0.17286547511E+03 0.  0.
         24    2    3    3    0    0 -0.40986533082E+02 -0.58161177213E+02 -0.39357165246E+03  0.40814725117E+03  0.81381291379E+02 0.  0.
         -6    2    1    2    0  503  0.87868934874E+02  0.22478391509E+02 -0.46118598111E+02  0.20028021730E+03  0.17250800720E+03 0.  0.
        -24    2    5    5    0    0  0.16363207590E+02 -0.31836061186E+01  0.35332812493E+02  0.88799145156E+02  0.79743279537E+02 0.  0.
          2    1    4    4  501    0  0.15175054692E+01  0.94291033381E+01 -0.17813576781E+03  0.17839159898E+03  0.00000000000E+00 0. -1.
         -1    1    4    4    0  501 -0.42504038551E+02 -0.67590280551E+02 -0.21543588465E+03  0.22975565219E+03  0.00000000000E+00 0.  1.
          5    1    3    3  502    0 -0.46882401792E+02  0.35682785704E+02 -0.53644056003E+02  0.79818516259E+02  0.47000000000E+01 0. -1.
         11    1    6    6    0    0  0.30798945201E+02 -0.33851712698E+02  0.10987122162E+02  0.47066233453E+02  0.00000000000E+00 0. -1.
        -12    1    6    6    0    0 -0.14435737611E+02  0.30668106579E+02  0.24345690331E+02  0.41732911703E+02  0.00000000000E+00 0.  1.
         -5    1    5    5    0  503  0.71505727284E+02  0.25661997628E+02 -0.81451410603E+02  0.11148107214E+03  0.47000000000E+01 0.  1.
<mgrwt>
<rscale>  2 0.19513533E+03</rscale>
<asrwt>0</asrwt>
<pdfrwt beam="1">  1       21 0.14993206E-01 0.19521450E+03</pdfrwt>
<pdfrwt beam="2">  1       21 0.90890793E-01 0.19521450E+03</pdfrwt>
<totfact> 0.40262602E+04</totfact>
</mgrwt>
</event>
<event>
12    1  0.2769346E-001  0.1749415E+03  0.7546771E-02  0.1173146E+00
         21   -1    0    0  504  503  0.00000000000E+00  0.00000000000E+00  0.28442513505E+04  0.28442513505E+04  0.00000000000E+00 0. -1.
         21   -1    0    0  502  504 -0.00000000000E+00 -0.00000000000E+00 -0.13172159537E+02  0.13172159537E+02  0.00000000000E+00 0. -1.
          6    2    1    2  502    0 -0.11703838177E+02 -0.44058785451E+00  0.79794765753E+03  0.81689963091E+03  0.17454904434E+03 0.  0.
         24    2    3    3    0    0 -0.62440116516E+02 -0.37822511020E+02  0.43938427671E+03  0.45280985327E+03  0.81540849313E+02 0.  0.
         -6    2    1    2    0  503  0.11703838177E+02  0.44058785451E+00  0.20331315334E+04  0.20405238791E+04  0.17313779222E+03 0.  0.
        -24    2    5    5    0    0  0.16808091779E+02  0.40977690539E+02  0.18697310986E+04  0.18720272851E+04  0.81425376709E+02 0.  0.
          2    1    4    4  501    0 -0.19913731420E+02  0.26000777034E+02  0.13062215731E+03  0.13466530766E+03  0.00000000000E+00 0. -1.
         -1    1    4    4    0  501 -0.42526385096E+02 -0.63823288054E+02  0.30876211940E+03  0.31814454561E+03  0.00000000000E+00 0.  1.
          5    1    3    3  502    0  0.50736278339E+02  0.37381923165E+02  0.35856338082E+03  0.36408977764E+03  0.47000000000E+01 0. -1.
         11    1    6    6    0    0 -0.13002012071E+02 -0.13888792617E+02  0.94448216912E+03  0.94467376309E+03  0.00000000000E+00 0. -1.
        -12    1    6    6    0    0  0.29810103849E+02  0.54866483156E+02  0.92524892944E+03  0.92735352196E+03  0.00000000000E+00 0.  1.
         -5    1    5    5    0  503 -0.51042536021E+01 -0.40537102685E+02  0.16340043488E+03  0.16849659409E+03  0.47000000000E+01 0.  1.
<mgrwt>
<rscale>  2 0.17458846E+03</rscale>
<asrwt>0</asrwt>
<pdfrwt beam="1">  1       21 0.43757664E+00 0.17494154E+03</pdfrwt>
<pdfrwt beam="2">  1       21 0.20264883E-02 0.17494154E+03</pdfrwt>
<totfact> 0.62089762E+03</totfact>
</mgrwt>
</event>
<event>
12    1  0.2769346E-001  0.1730908E+03  0.7546771E-02  0.1175147E+00
         21   -1    0    0  504  503  0.00000000000E+00  0.00000000000E+00  0.30097378115E+03  0.30097378115E+03  0.00000000000E+00 0.  1.
         21   -1    0    0  502  504 -0.00000000000E+00 -0.00000000000E+00 -0.10628706345E+03  0.10628706345E+03  0.00000000000E+00 0.  1.
          6    2    1    2  502    0  0.82016222880E+01  0.28873515674E+01  0.15310011258E+03  0.23108456453E+03  0.17287228837E+03 0.  0.
         24    2    3    3    0    0  0.26612925376E+02 -0.61378905721E+02  0.95431690379E+02  0.14267152915E+03  0.82294227236E+02 0.  0.
         -6    2    1    2    0  503 -0.82016222880E+01 -0.28873515674E+01  0.41586605127E+02  0.17617628007E+03  0.17097670170E+03 0.  0.
        -24    2    5    5    0    0  0.45920127903E+02 -0.39320520716E+02  0.46023474933E+01  0.10103331652E+03  0.80819477531E+02 0.  0.
          4    1    4    4  501    0 -0.82041894300E+01 -0.62240832078E+02  0.86205387708E+02  0.10664238731E+03  0.00000000000E+00 0. -1.
         -3    1    4    4    0  501  0.34817114806E+02  0.86192635618E+00  0.92263026718E+01  0.36029141836E+02  0.00000000000E+00 0.  1.
          5    1    3    3  502    0 -0.18411303088E+02  0.64266257289E+02  0.57668422198E+02  0.88413035385E+02  0.47000000000E+01 0. -1.
         11    1    6    6    0    0  0.22892751759E+02  0.57494583400E+01  0.34835493764E+02  0.42079044429E+02  0.00000000000E+00 0. -1.
        -12    1    6    6    0    0  0.23027376145E+02 -0.45069979056E+02 -0.30233146271E+02  0.58954272090E+02  0.00000000000E+00 0.  1.
         -5    1    5    5    0  503 -0.54121750191E+02  0.36433169149E+02  0.36984257634E+02  0.75142963548E+02  0.47000000000E+01 0.  1.
<mgrwt>
<rscale>  2 0.17261557E+03</rscale>
<asrwt>0</asrwt>
<pdfrwt beam="1">  1       21 0.46303658E-01 0.17309082E+03</pdfrwt>
<pdfrwt beam="2">  1       21 0.16351856E-01 0.17309082E+03</pdfrwt>
<totfact> 0.15067486E+05</totfact>
</mgrwt>
</event>
<event>
12    1  0.2769346E-001  0.2193778E+03  0.7546771E-02  0.1134537E+00
         21   -1    0    0  504  503  0.00000000000E+00  0.00000000000E+00  0.34903470054E+03  0.34903470054E+03  0.00000000000E+00 0. -1.
         21   -1    0    0  502  504 -0.00000000000E+00 -0.00000000000E+00 -0.19831124863E+03  0.19831124863E+03  0.00000000000E+00 0. -1.
          6    2    1    2  502    0  0.11743764402E+03 -0.64585692754E+02 -0.76374298585E+02  0.23229215920E+03  0.17367700423E+03 0.  0.
         24    2    3    3    0    0  0.49981292420E+02 -0.90726896308E+02 -0.87529022708E+02  0.15894204151E+03  0.82895979622E+02 0.  0.
         -6    2    1    2    0  503 -0.11743764402E+03  0.64585692754E+02  0.22709775050E+03  0.31505378997E+03  0.17240240819E+03 0.  0.
        -24    2    5    5    0    0 -0.95175249696E+02  0.82093402385E+01  0.22124721976E+03  0.25397821356E+03  0.80180292399E+02 0.  0.
          4    1    4    4  501    0 -0.15936807758E+02 -0.29951226315E+01 -0.32185713996E+02  0.36039877727E+02  0.00000000000E+00 0. -1.
         -3    1    4    4    0  501  0.65918100178E+02 -0.87731773676E+02 -0.55343308712E+02  0.12290216378E+03  0.00000000000E+00 0.  1.
          5    1    3    3  502    0  0.67456351604E+02  0.26141203554E+02  0.11154724124E+02  0.73350117690E+02  0.47000000000E+01 0. -1.
         11    1    6    6    0    0  0.24563976975E+01 -0.11774478195E+01  0.90451577152E+02  0.90492585787E+02  0.00000000000E+00 0. -1.
        -12    1    6    6    0    0 -0.97631647394E+02  0.93867880580E+01  0.13079564260E+03  0.16348562777E+03  0.00000000000E+00 0.  1.
         -5    1    5    5    0  503 -0.22262394327E+02  0.56376352515E+02  0.58505307455E+01  0.61075576413E+02  0.47000000000E+01 0.  1.
<mgrwt>
<rscale>  2 0.21912543E+03</rscale>
<asrwt>0</asrwt>
<pdfrwt beam="1">  1       21 0.53697646E-01 0.21937779E+03</pdfrwt>
<pdfrwt beam="2">  1       21 0.30509423E-01 0.21937779E+03</pdfrwt>
<totfact> 0.33364356E+04</totfact>
</mgrwt>
</event>
<event>
12    1  0.2769346E-001  0.2004731E+03  0.7546771E-02  0.1152838E+00
         21   -1    0    0  504  503  0.00000000000E+00  0.00000000000E+00  0.25383136672E+03  0.25383136672E+03  0.00000000000E+00 0. -1.
         21   -1    0    0  502  504 -0.00000000000E+00 -0.00000000000E+00 -0.38222365487E+03  0.38222365487E+03  0.00000000000E+00 0. -1.
          6    2    1    2  502    0 -0.60315988795E+02 -0.19890767469E+02 -0.31311104304E+03  0.36345551972E+03  0.17328510730E+03 0.  0.
         24    2    3    3    0    0 -0.85756291941E+02 -0.38386199017E+02 -0.30712971023E+03  0.33109572438E+03  0.80424361463E+02 0.  0.
         -6    2    1    2    0  503  0.60315988795E+02  0.19890767469E+02  0.18471875488E+03  0.27259950186E+03  0.19014680875E+03 0.  0.
        -24    2    5    5    0    0  0.64857557509E+02  0.78411888803E+02  0.16361613368E+03  0.21004745865E+03  0.83634733298E+02 0.  0.
          4    1    4    4  501    0 -0.66234778821E+02 -0.61893323324E+02 -0.25545418651E+03  0.27106211614E+03  0.00000000000E+00 0. -1.
         -3    1    4    4    0  501 -0.19521513120E+02  0.23507124307E+02 -0.51675523716E+02  0.60033608246E+02  0.00000000000E+00 0.  1.
          5    1    3    3  502    0  0.25440303147E+02  0.18495431548E+02 -0.59813328095E+01  0.32359795341E+02  0.47000000000E+01 0. -1.
         13    1    6    6    0    0  0.54960644341E+02  0.84229134211E+02  0.88223061806E+02  0.13378538078E+03  0.00000000000E+00 0. -1.
        -14    1    6    6    0    0  0.98969131682E+01 -0.58172454084E+01  0.75393071876E+02  0.76262077871E+02  0.00000000000E+00 0.  1.
         -5    1    5    5    0  503 -0.45415687141E+01 -0.58521121334E+02  0.21102621199E+02  0.62552043212E+02  0.47000000000E+01 0.  1.
<mgrwt>
<rscale>  2 0.19636989E+03</rscale>
<asrwt>0</asrwt>
<pdfrwt beam="1">  1       21 0.39050980E-01 0.20047312E+03</pdfrwt>
<pdfrwt beam="2">  1       21 0.58803639E-01 0.20047312E+03</pdfrwt>
<totfact> 0.17022237E+04</totfact>
</mgrwt>
</event>
<event>
12    1  0.2769346E-001  0.1877765E+03  0.7546771E-02  0.1160498E+00
         21   -1    0    0  504  503  0.00000000000E+00  0.00000000000E+00  0.14554888937E+03  0.14554888937E+03  0.00000000000E+00 0.  1.
         21   -1    0    0  502  504 -0.00000000000E+00 -0.00000000000E+00 -0.44944749106E+03  0.44944749106E+03  0.00000000000E+00 0.  1.
          6    2    1    2  502    0 -0.61391563961E+02  0.37979977798E+02 -0.35396888031E+03  0.40065890010E+03  0.17326910620E+03 0.  0.
         24    2    3    3    0    0  0.19892069422E+02  0.13048255792E+02 -0.26596349279E+03  0.27820214018E+03  0.78063435089E+02 0.  0.
         -6    2    1    2    0  503  0.61391563961E+02 -0.37979977798E+02  0.50070278623E+02  0.19433748033E+03  0.17334537958E+03 0.  0.
        -24    2    5    5    0    0  0.45611974423E+01 -0.79935988150E+02  0.77718067181E+01  0.11186780052E+03  0.77739546498E+02 0.  0.
          2    1    4    4  501    0  0.30439949499E+02 -0.18580132409E+02 -0.61944416063E+02  0.71476727172E+02  0.00000000000E+00 0. -1.
         -1    1    4    4    0  501 -0.10547880077E+02  0.31628388200E+02 -0.20401907673E+03  0.20672541301E+03  0.00000000000E+00 0.  1.
          5    1    3    3  502    0 -0.81283633383E+02  0.24931722006E+02 -0.88005387523E+02  0.12245675992E+03  0.47000000000E+01 0. -1.
         13    1    6    6    0    0  0.69520395785E+01  0.56916130880E+01 -0.19911416869E+02  0.21844675223E+02  0.00000000000E+00 0. -1.
        -14    1    6    6    0    0 -0.23908421362E+01 -0.85627601238E+02  0.27683223588E+02  0.90023125296E+02  0.00000000000E+00 0.  1.
         -5    1    5    5    0  503  0.56830366519E+02  0.41956010352E+02  0.42298471905E+02  0.82469679815E+02  0.47000000000E+01 0.  1.
<mgrwt>
<rscale>  2 0.18775892E+03</rscale>
<asrwt>0</asrwt>
<pdfrwt beam="1">  1       21 0.22392137E-01 0.18777653E+03</pdfrwt>
<pdfrwt beam="2">  1       21 0.69145768E-01 0.18777653E+03</pdfrwt>
<totfact> 0.35633130E+04</totfact>
</mgrwt>
</event>
<event>
12    1  0.2769346E-001  0.3467721E+03  0.7546771E-02  0.1064062E+00
         21   -1    0    0  504  503  0.00000000000E+00  0.00000000000E+00  0.26767875246E+04  0.26767875246E+04  0.00000000000E+00 0. -1.
         21   -1    0    0  502  504 -0.00000000000E+00 -0.00000000000E+00 -0.10347697649E+03  0.10347697649E+03  0.00000000000E+00 0.  1.
          6    2    1    2  502    0 -0.14480507100E+03  0.26212337962E+03  0.23878629812E+03  0.42012586344E+03  0.17265477182E+03 0.  0.
         24    2    3    3    0    0 -0.16963716997E+02  0.14991766117E+03  0.83326818412E+02  0.18964099436E+03  0.79102940836E+02 0.  0.
         -6    2    1    2    0  503  0.14480507100E+03 -0.26212337962E+03  0.23345242500E+04  0.23601386376E+04  0.17485348253E+03 0.  0.
        -24    2    5    5    0    0  0.52249967351E+02 -0.95334111278E+02  0.61065093461E+03  0.62573775989E+03  0.82671206321E+02 0.  0.
          2    1    4    4  501    0  0.29178512743E+02  0.87862421142E+02  0.38579637651E+02  0.10029745309E+03  0.00000000000E+00 0. -1.
         -1    1    4    4    0  501 -0.46142229740E+02  0.62055240032E+02  0.44747180761E+02  0.89343541271E+02  0.00000000000E+00 0.  1.
          5    1    3    3  502    0 -0.12784135400E+03  0.11220571845E+03  0.15545947971E+03  0.23048486908E+03  0.47000000000E+01 0. -1.
         13    1    6    6    0    0  0.66991217480E+02 -0.88590047103E+02  0.58458204366E+03  0.59503965030E+03  0.00000000000E+00 0. -1.
        -14    1    6    6    0    0 -0.14741250129E+02 -0.67440641746E+01  0.26068890956E+02  0.30698109594E+02  0.00000000000E+00 0.  1.
         -5    1    5    5    0  503  0.92555103647E+02 -0.16678926835E+03  0.17238733154E+04  0.17344008777E+04  0.47000000000E+01 0.  1.
<mgrwt>
<rscale>  2 0.34649595E+03</rscale>
<asrwt>0</asrwt>
<pdfrwt beam="1">  1       21 0.41181341E+00 0.34677214E+03</pdfrwt>
<pdfrwt beam="2">  1       21 0.15919537E-01 0.34677214E+03</pdfrwt>
<totfact> 0.21333281E+02</totfact>
</mgrwt>
</event>
<event>
12    1  0.2769346E-001  0.1770923E+03  0.7546771E-02  0.1171617E+00
         21   -1    0    0  504  503  0.00000000000E+00  0.00000000000E+00  0.15717516874E+04  0.15717516874E+04  0.00000000000E+00 0.  1.
         21   -1    0    0  502  504 -0.00000000000E+00 -0.00000000000E+00 -0.21713605466E+02  0.21713605466E+02  0.00000000000E+00 0.  1.
          6    2    1    2  502    0 -0.39939715749E+02  0.10095427100E+02  0.52944596391E+03  0.55827833537E+03  0.17223406314E+03 0.  0.
         24    2    3    3    0    0 -0.74991408465E+02  0.22966266198E+02  0.49317581337E+03  0.50601081696E+03  0.81690900706E+02 0.  0.
         -6    2    1    2    0  503  0.39939715749E+02 -0.10095427100E+02  0.10205921180E+04  0.10351869575E+04  0.16824585298E+03 0.  0.
        -24    2    5    5    0    0  0.78059268832E+02 -0.26584181499E+02  0.90688732309E+03  0.91404303589E+03  0.78930897190E+02 0.  0.
          2    1    4    4  501    0  0.81929825427E+00 -0.23000240553E+02  0.13988255559E+03  0.14176322399E+03  0.00000000000E+00 0. -1.
         -1    1    4    4    0  501 -0.75810706719E+02  0.45966506751E+02  0.35329325778E+03  0.36424759297E+03  0.00000000000E+00 0.  1.
          5    1    3    3  502    0  0.35051692716E+02 -0.12870839098E+02  0.36270150539E+02  0.52267518417E+02  0.47000000000E+01 0. -1.
         13    1    6    6    0    0 -0.10269760418E+02  0.13474214289E+02  0.15627322545E+03  0.15718887817E+03  0.00000000000E+00 0. -1.
        -14    1    6    6    0    0  0.88329029250E+02 -0.40058395788E+02  0.75061409764E+03  0.75685415772E+03  0.00000000000E+00 0.  1.
         -5    1    5    5    0  503 -0.38119553083E+02  0.16488754399E+02  0.11370479495E+03  0.12114392161E+03  0.47000000000E+01 0.  1.
<mgrwt>
<rscale>  2 0.17611513E+03</rscale>
<asrwt>0</asrwt>
<pdfrwt beam="1">  1       21 0.24180786E+00 0.17709227E+03</pdfrwt>
<pdfrwt beam="2">  1       21 0.33405559E-02 0.17709227E+03</pdfrwt>
<totfact> 0.39836212E+04</totfact>
</mgrwt>
</event>
<event>
12    1  0.2769346E-001  0.2315771E+03  0.7546771E-02  0.1125772E+00
         21   -1    0    0  504  503  0.00000000000E+00  0.00000000000E+00  0.11264790058E+03  0.11264790058E+03  0.00000000000E+00 0.  1.
         21   -1    0    0  502  504 -0.00000000000E+00 -0.00000000000E+00 -0.59288773680E+03  0.59288773680E+03  0.00000000000E+00 0.  1.
          6    2    1    2  502    0 -0.14401377061E+03  0.47266247506E+02 -0.39800112185E+03  0.45978947980E+03  0.17328418410E+03 0.  0.
         24    2    3    3    0    0 -0.21340990625E+02 -0.13274034215E+02 -0.21966818533E+03  0.23498186669E+03  0.79565873119E+02 0.  0.
         -6    2    1    2    0  503  0.14401377061E+03 -0.47266247506E+02 -0.82238714359E+02  0.24574615758E+03  0.17508256209E+03 0.  0.
        -24    2    5    5    0    0  0.14729487113E+03  0.15075906616E+02 -0.54773267325E+02  0.17738132318E+03  0.80876207753E+02 0.  0.
          4    1    4    4  501    0  0.40256504312E+00 -0.34494309713E+02 -0.18783684265E+03  0.19097826819E+03  0.00000000000E+00 0. -1.
         -3    1    4    4    0  501 -0.21743555668E+02  0.21220275498E+02 -0.31831342674E+02  0.44003598509E+02  0.00000000000E+00 0.  1.
          5    1    3    3  502    0 -0.12267277999E+03  0.60540281721E+02 -0.17833293653E+03  0.22480761311E+03  0.47000000000E+01 0. -1.
         13    1    6    6    0    0 -0.21388917934E+01 -0.15783386973E+02 -0.27080695701E+01  0.16156231097E+02  0.00000000000E+00 0. -1.
        -14    1    6    6    0    0  0.14943376292E+03  0.30859293590E+02 -0.52065197755E+02  0.16122509209E+03  0.00000000000E+00 0.  1.
         -5    1    5    5    0  503 -0.32811005137E+01 -0.62342154123E+02 -0.27465447033E+02  0.68364834396E+02  0.47000000000E+01 0.  1.
<mgrwt>
<rscale>  2 0.23123722E+03</rscale>
<asrwt>0</asrwt>
<pdfrwt beam="1">  1       21 0.17330447E-01 0.23157713E+03</pdfrwt>
<pdfrwt beam="2">  1       21 0.91213496E-01 0.23157713E+03</pdfrwt>
<totfact> 0.30032355E+04</totfact>
</mgrwt>
</event>
<event>
12    1  0.2769346E-001  0.2177948E+03  0.7546771E-02  0.1135660E+00
         21   -1    0    0  504  503  0.00000000000E+00  0.00000000000E+00  0.27926869570E+03  0.27926869570E+03  0.00000000000E+00 0.  1.
         21   -1    0    0  502  504 -0.00000000000E+00 -0.00000000000E+00 -0.24201806141E+03  0.24201806141E+03  0.00000000000E+00 0.  1.
          6    2    1    2  502    0 -0.12168423800E+03 -0.47139239962E+02 -0.12417917338E+03  0.25070907493E+03  0.17437147538E+03 0.  0.
         24    2    3    3    0    0 -0.82419250905E+02 -0.20230749485E+01 -0.46623489589E+01  0.11697961341E+03  0.82858111880E+02 0.  0.
         -6    2    1    2    0  503  0.12168423800E+03  0.47139239962E+02  0.16142980767E+03  0.27057768218E+03  0.17356133661E+03 0.  0.
        -24    2    5    5    0    0  0.39768331919E+02 -0.38772788856E+02  0.79892939520E+02  0.12648936470E+03  0.80819726665E+02 0.  0.
          4    1    4    4  501    0 -0.82083140340E+02  0.25557473505E+01  0.25872115803E+02  0.86101917218E+02  0.00000000000E+00 0. -1.
         -3    1    4    4    0  501 -0.33611056553E+00 -0.45788222990E+01 -0.30534464762E+02  0.30877696194E+02  0.00000000000E+00 0.  1.
          5    1    3    3  502    0 -0.39264987097E+02 -0.45116165014E+02 -0.11951682442E+03  0.13372946152E+03  0.47000000000E+01 0. -1.
         13    1    6    6    0    0  0.26659683461E+02  0.11832829717E+02 -0.21067965932E+01  0.29243686041E+02  0.00000000000E+00 0. -1.
        -14    1    6    6    0    0  0.13108648458E+02 -0.50605618573E+02  0.81999736113E+02  0.97245678660E+02  0.00000000000E+00 0.  1.
         -5    1    5    5    0  503  0.81915906083E+02  0.85912028818E+02  0.81536868153E+02  0.14408831748E+03  0.47000000000E+01 0.  1.
<mgrwt>
<rscale>  2 0.21763260E+03</rscale>
<asrwt>0</asrwt>
<pdfrwt beam="1">  1       21 0.42964415E-01 0.21779480E+03</pdfrwt>
<pdfrwt beam="2">  1       21 0.37233548E-01 0.21779480E+03</pdfrwt>
<totfact> 0.35775987E+04</totfact>
</mgrwt>
</event>
<event>
12    1  0.2769346E-001  0.1796941E+03  0.7546771E-02  0.1169514E+00
         21   -1    0    0  504  503  0.00000000000E+00  0.00000000000E+00  0.70371153913E+02  0.70371153913E+02  0.00000000000E+00 0.  1.
         21   -1    0    0  502  504 -0.00000000000E+00 -0.00000000000E+00 -0.77632205890E+03  0.77632205890E+03  0.00000000000E+00 0.  1.
          6    2    1    2  502    0  0.18584662533E+02 -0.41958216081E+02 -0.63307395761E+03  0.65808252788E+03  0.17373570767E+03 0.  0.
         24    2    3    3    0    0  0.72570758809E+02 -0.25031788517E+01 -0.31425639825E+03  0.33229436863E+03  0.79935490504E+02 0.  0.
         -6    2    1    2    0  503 -0.18584662533E+02  0.41958216081E+02 -0.72876947381E+02  0.18861068494E+03  0.16780065386E+03 0.  0.
        -24    2    5    5    0    0 -0.13383112268E+02  0.88389226950E+02 -0.74917583142E+02  0.14160909890E+03  0.80303981799E+02 0.  0.
          4    1    4    4  501    0  0.85250237324E+02 -0.17285809772E+02 -0.23219178789E+03  0.24795045584E+03  0.00000000000E+00 0. -1.
         -3    1    4    4    0  501 -0.12679478515E+02  0.14782630921E+02 -0.82064610356E+02  0.84343912793E+02  0.00000000000E+00 0.  1.
          5    1    3    3  502    0 -0.53986096276E+02 -0.39455037229E+02 -0.31881755936E+03  0.32578815925E+03  0.47000000000E+01 0. -1.
         13    1    6    6    0    0  0.21371910855E+02 -0.35475315070E+01 -0.16897934064E+02  0.27475147480E+02  0.00000000000E+00 0. -1.
        -14    1    6    6    0    0 -0.34755023123E+02  0.91936758457E+02 -0.58019649078E+02  0.11413395142E+03  0.00000000000E+00 0.  1.
         -5    1    5    5    0  503 -0.52015502648E+01 -0.46431010869E+02  0.20406357614E+01  0.47001586035E+02  0.47000000000E+01 0.  1.
<mgrwt>
<rscale>  2 0.17824374E+03</rscale>
<asrwt>0</asrwt>
<pdfrwt beam="1">  1       21 0.10826331E-01 0.17969412E+03</pdfrwt>
<pdfrwt beam="2">  1       21 0.11943416E+00 0.17969412E+03</pdfrwt>
<totfact> 0.37941185E+04</totfact>
</mgrwt>
</event>
<event>
12    1  0.2769346E-001  0.3352232E+03  0.7546771E-02  0.1069041E+00
         21   -1    0    0  504  503  0.00000000000E+00  0.00000000000E+00  0.18581809866E+03  0.18581809866E+03  0.00000000000E+00 0. -1.
         21   -1    0    0  502  504 -0.00000000000E+00 -0.00000000000E+00 -0.10962829698E+04  0.10962829698E+04  0.00000000000E+00 0. -1.
          6    2    1    2  502    0 -0.28475686105E+03  0.14256392978E+02 -0.88652160420E+03  0.94778434706E+03  0.17630910118E+03 0.  0.
         24    2    3    3    0    0 -0.43419344386E+02 -0.80246399619E+00 -0.28729310954E+03  0.30158975954E+03  0.80828020241E+02 0.  0.
         -6    2    1    2    0  503  0.28475686105E+03 -0.14256392978E+02 -0.23943266971E+02  0.33431672143E+03  0.17292968381E+03 0.  0.
        -24    2    5    5    0    0  0.27389018250E+03 -0.45318706577E+02 -0.48477849114E+02  0.29300101316E+03  0.80186499011E+02 0.  0.
          2    1    4    4  501    0 -0.46113225466E+02 -0.32991953292E+02 -0.14535320095E+03  0.15602067674E+03  0.00000000000E+00 0. -1.
         -1    1    4    4    0  501  0.26938810808E+01  0.32189489295E+02 -0.14193990859E+03  0.14556908280E+03  0.00000000000E+00 0.  1.
          5    1    3    3  502    0 -0.24133751666E+03  0.15058856974E+02 -0.59922849467E+03  0.64619458752E+03  0.47000000000E+01 0. -1.
         13    1    6    6    0    0  0.24892318191E+03 -0.27377671898E+02 -0.20213752600E+02  0.25123869767E+03  0.00000000000E+00 0. -1.
        -14    1    6    6    0    0  0.24967000589E+02 -0.17941034679E+02 -0.28264096514E+02  0.41762315495E+02  0.00000000000E+00 0.  1.
         -5    1    5    5    0  503  0.10866678546E+02  0.31062313600E+02  0.24534582143E+02  0.41315708269E+02  0.47000000000E+01 0.  1.
<mgrwt>
<rscale>  2 0.33478111E+03</rscale>
<asrwt>0</asrwt>
<pdfrwt beam="1">  1       21 0.28587400E-01 0.33522323E+03</pdfrwt>
<pdfrwt beam="2">  1       21 0.16865892E+00 0.33522323E+03</pdfrwt>
<totfact> 0.23000825E+03</totfact>
</mgrwt>
</event>
<event>
12    1  0.2769346E-001  0.2253892E+03  0.7546771E-02  0.1130136E+00
         21   -1    0    0  504  503  0.00000000000E+00  0.00000000000E+00  0.20359279671E+03  0.20359279671E+03  0.00000000000E+00 0. -1.
         21   -1    0    0  502  504 -0.00000000000E+00 -0.00000000000E+00 -0.25058525393E+03  0.25058525393E+03  0.00000000000E+00 0. -1.
          6    2    1    2  502    0 -0.67768214943E+01  0.14509070148E+03 -0.14971398020E+01  0.22424303767E+03  0.17083752969E+03 0.  0.
         24    2    3    3    0    0 -0.15401151479E+02  0.10375085369E+03  0.65713662702E+02  0.14472735333E+03  0.75008574366E+02 0.  0.
         -6    2    1    2    0  503  0.67768214943E+01 -0.14509070148E+03 -0.45495317415E+02  0.22993501296E+03  0.17234572612E+03 0.  0.
        -24    2    5    5    0    0  0.36039573056E+02 -0.10325440295E+03 -0.89158650236E+02  0.16259140795E+03  0.80786004173E+02 0.  0.
          2    1    4    4  501    0 -0.20828396012E+02  0.10883167541E+03  0.39751032831E+02  0.11772128212E+03  0.00000000000E+00 0. -1.
         -1    1    4    4    0  501  0.54272445328E+01 -0.50808217186E+01  0.25962629871E+02  0.27006071213E+02  0.00000000000E+00 0.  1.
          5    1    3    3  502    0  0.86243299852E+01  0.41339847795E+02 -0.67210802504E+02  0.79515684344E+02  0.47000000000E+01 0. -1.
         13    1    6    6    0    0  0.10068013776E+02 -0.57009530889E+02  0.11005534653E+01  0.57902182442E+02  0.00000000000E+00 0. -1.
        -14    1    6    6    0    0  0.25971559280E+02 -0.46244872066E+02 -0.90259203702E+02  0.10468922550E+03  0.00000000000E+00 0.  1.
         -5    1    5    5    0  503 -0.29262751562E+02 -0.41836298527E+02  0.43663332821E+02  0.67343605015E+02  0.47000000000E+01 0.  1.
<mgrwt>
<rscale>  2 0.22510085E+03</rscale>
<asrwt>0</asrwt>
<pdfrwt beam="1">  1       21 0.31321969E-01 0.22538919E+03</pdfrwt>
<pdfrwt beam="2">  1       21 0.38551578E-01 0.22538919E+03</pdfrwt>
<totfact> 0.62640760E+04</totfact>
</mgrwt>
</event>
<event>
12    1  0.2769346E-001  0.2313132E+03  0.7546771E-02  0.1125980E+00
         21   -1    0    0  504  503  0.00000000000E+00  0.00000000000E+00  0.20567491487E+04  0.20567491487E+04  0.00000000000E+00 0. -1.
         21   -1    0    0  502  504 -0.00000000000E+00 -0.00000000000E+00 -0.30712524965E+02  0.30712524965E+02  0.00000000000E+00 0. -1.
          6    2    1    2  502    0 -0.64594422306E+01  0.15213649548E+03  0.60037016833E+03  0.64338955897E+03  0.17412222121E+03 0.  0.
         24    2    3    3    0    0  0.68078458316E+01  0.16528258321E+03  0.59605377172E+03  0.62365223811E+03  0.79355757408E+02 0.  0.
         -6    2    1    2    0  503  0.64594422306E+01 -0.15213649548E+03  0.14256664554E+04  0.14440721147E+04  0.17214003813E+03 0.  0.
        -24    2    5    5    0    0  0.42966541445E+02 -0.12842703576E+03  0.66251768489E+03  0.67966839760E+03  0.68409215079E+02 0.  0.
          2    1    4    4  501    0 -0.94695581483E-01  0.44060916387E+02  0.30680983211E+03  0.30995749128E+03  0.00000000000E+00 0. -1.
         -1    1    4    4    0  501  0.69025414130E+01  0.12122166682E+03  0.28924393961E+03  0.31369474683E+03  0.00000000000E+00 0.  1.
          5    1    3    3  502    0 -0.13267288062E+02 -0.13146087730E+02  0.43163966091E+01  0.19737320862E+02  0.47000000000E+01 0. -1.
         13    1    6    6    0    0  0.53384055902E+02 -0.10609198980E+03  0.61250383739E+03  0.62391210802E+03  0.00000000000E+00 0. -1.
        -14    1    6    6    0    0 -0.10417514457E+02 -0.22335045955E+02  0.50013847498E+02  0.55756289572E+02  0.00000000000E+00 0.  1.
         -5    1    5    5    0  503 -0.36507099215E+02 -0.23709459723E+02  0.76314877049E+03  0.76440371707E+03  0.47000000000E+01 0.  1.
<mgrwt>
<rscale>  2 0.23094018E+03</rscale>
<asrwt>0</asrwt>
<pdfrwt beam="1">  1       21 0.31642284E+00 0.23131318E+03</pdfrwt>
<pdfrwt beam="2">  1       21 0.47250055E-02 0.23131318E+03</pdfrwt>
<totfact> 0.77987321E+03</totfact>
</mgrwt>
</event>
<event>
12    1  0.2769346E-001  0.1812600E+03  0.7546771E-02  0.1166639E+00
         21   -1    0    0  504  503  0.00000000000E+00  0.00000000000E+00  0.29548635411E+03  0.29548635411E+03  0.00000000000E+00 0.  1.
         21   -1    0    0  502  504 -0.00000000000E+00 -0.00000000000E+00 -0.11436538628E+03  0.11436538628E+03  0.00000000000E+00 0.  1.
          6    2    1    2  502    0 -0.21334469008E+02  0.49463388550E+02  0.12533718264E+03  0.22020204966E+03  0.17285180631E+03 0.  0.
         24    2    3    3    0    0 -0.25079772017E+02  0.88533103410E+02  0.45258285955E+02  0.13089813256E+03  0.81356642611E+02 0.  0.
         -6    2    1    2    0  503  0.21334469008E+02 -0.49463388550E+02  0.55783785187E+02  0.18964969073E+03  0.17307047158E+03 0.  0.
        -24    2    5    5    0    0  0.56067780683E+02 -0.50421286093E+02 -0.13555593322E+02  0.11194924080E+03  0.81627056078E+02 0.  0.
          2    1    4    4  501    0 -0.16511997818E+02  0.69499282510E+02  0.68978414707E+02  0.99301651733E+02  0.00000000000E+00 0. -1.
         -1    1    4    4    0  501 -0.85677741994E+01  0.19033820899E+02 -0.23720128752E+02  0.31596480829E+02  0.00000000000E+00 0.  1.
          5    1    3    3  502    0  0.37453030088E+01 -0.39069714860E+02  0.80078896688E+02  0.89303917095E+02  0.47000000000E+01 0. -1.
         13    1    6    6    0    0 -0.50654128193E+01  0.18090074179E+02  0.17275702207E+01  0.18865144836E+02  0.00000000000E+00 0. -1.
        -14    1    6    6    0    0  0.61133193502E+02 -0.68511360272E+02 -0.15283163543E+02  0.93084095967E+02  0.00000000000E+00 0.  1.
         -5    1    5    5    0  503 -0.34733311675E+02  0.95789754341E+00  0.69339378509E+02  0.77700449932E+02  0.47000000000E+01 0.  1.
<mgrwt>
<rscale>  2 0.18120775E+03</rscale>
<asrwt>0</asrwt>
<pdfrwt beam="1">  1       21 0.45459439E-01 0.18125996E+03</pdfrwt>
<pdfrwt beam="2">  1       21 0.17594675E-01 0.18125996E+03</pdfrwt>
<totfact> 0.13641131E+05</totfact>
</mgrwt>
</event>
<event>
12    1  0.2769346E-001  0.2504979E+03  0.7546771E-02  0.1113407E+00
         21   -1    0    0  504  503  0.00000000000E+00  0.00000000000E+00  0.12650264969E+03  0.12650264969E+03  0.00000000000E+00 0.  1.
         21   -1    0    0  502  504 -0.00000000000E+00 -0.00000000000E+00 -0.13739754689E+04  0.13739754689E+04  0.00000000000E+00 0.  1.
          6    2    1    2  502    0 -0.17475760912E+03  0.46614181454E+02 -0.12263883246E+04  0.12517098480E+04  0.17330931012E+03 0.  0.
         24    2    3    3    0    0 -0.10314646284E+03  0.47348413098E+02 -0.42579065312E+03  0.44790177578E+03  0.80232508640E+02 0.  0.
         -6    2    1    2    0  503  0.17475760912E+03 -0.46614181454E+02 -0.21084494576E+02  0.24876827058E+03  0.16949334110E+03 0.  0.
        -24    2    5    5    0    0  0.18854964770E+03 -0.72488858921E+02 -0.25036656646E+02  0.21881115377E+03  0.80286253643E+02 0.  0.
          4    1    4    4  501    0 -0.45630000106E+02  0.63571501185E+02 -0.26729666378E+03  0.27851559946E+03  0.00000000000E+00 0. -1.
         -3    1    4    4    0  501 -0.57516462731E+02 -0.16223088087E+02 -0.15849398934E+03  0.16938617632E+03  0.00000000000E+00 0.  1.
          5    1    3    3  502    0 -0.71611146281E+02 -0.73423164395E+00 -0.80059767149E+03  0.80380807221E+03  0.47000000000E+01 0. -1.
         11    1    6    6    0    0  0.10998664982E+03  0.14900834227E+00 -0.19241138151E+02  0.11165709444E+03  0.00000000000E+00 0. -1.
        -12    1    6    6    0    0  0.78562997882E+02 -0.72637867263E+02 -0.57955184948E+01  0.10715405933E+03  0.00000000000E+00 0.  1.
         -5    1    5    5    0  503 -0.13792038579E+02  0.25874677467E+02  0.39521620697E+01  0.29957116804E+02  0.47000000000E+01 0.  1.
<mgrwt>
<rscale>  2 0.24983915E+03</rscale>
<asrwt>0</asrwt>
<pdfrwt beam="1">  1       21 0.19461946E-01 0.25049795E+03</pdfrwt>
<pdfrwt beam="2">  1       21 0.21138085E+00 0.25049795E+03</pdfrwt>
<totfact> 0.26204228E+03</totfact>
</mgrwt>
</event>
<event>
12    1  0.2769346E-001  0.1839606E+03  0.7546771E-02  0.1165227E+00
         21   -1    0    0  504  503  0.00000000000E+00  0.00000000000E+00  0.17992386509E+03  0.17992386509E+03  0.00000000000E+00 0. -1.
         21   -1    0    0  502  504 -0.00000000000E+00 -0.00000000000E+00 -0.30103565490E+03  0.30103565490E+03  0.00000000000E+00 0. -1.
          6    2    1    2  502    0  0.31969181259E+02  0.33506169010E+02 -0.21166124167E+03  0.28043176356E+03  0.17803595390E+03 0.  0.
         24    2    3    3    0    0  0.45640677608E+02  0.58550862417E+02 -0.22438315577E+03  0.24883930277E+03  0.77858352601E+02 0.  0.
         -6    2    1    2    0  503 -0.31969181259E+02 -0.33506169010E+02  0.90549451862E+02  0.20052775643E+03  0.17282212229E+03 0.  0.
        -24    2    5    5    0    0 -0.66390600649E+02  0.25308346033E+02  0.39419880723E+02  0.11520305697E+03  0.81667576829E+02 0.  0.
          2    1    4    4  501    0  0.87551976813E+01  0.52224861999E+02 -0.19257851709E+03  0.19972625000E+03  0.00000000000E+00 0. -1.
         -1    1    4    4    0  501  0.36885479927E+02  0.63260004181E+01 -0.31804638685E+02  0.49113052772E+02  0.00000000000E+00 0.  1.
          5    1    3    3  502    0 -0.13671496349E+02 -0.25044693407E+02  0.12721914104E+02  0.31592460789E+02  0.47000000000E+01 0. -1.
         13    1    6    6    0    0  0.97789038519E+01  0.29886363531E+02  0.16593498542E+02  0.35555110456E+02  0.00000000000E+00 0. -1.
        -14    1    6    6    0    0 -0.76169504501E+02 -0.45780174979E+01  0.22826382180E+02  0.79647946512E+02  0.00000000000E+00 0.  1.
         -5    1    5    5    0  503  0.34421419390E+02 -0.58814515044E+02  0.51129571139E+02  0.85324699457E+02  0.47000000000E+01 0.  1.
<mgrwt>
<rscale>  2 0.18268714E+03</rscale>
<asrwt>0</asrwt>
<pdfrwt beam="1">  1       21 0.27680595E-01 0.18396057E+03</pdfrwt>
<pdfrwt beam="2">  1       21 0.46313178E-01 0.18396057E+03</pdfrwt>
<totfact> 0.55854886E+04</totfact>
</mgrwt>
</event>
<event>
12    1  0.2769346E-001  0.1761614E+03  0.7546771E-02  0.1171595E+00
         21   -1    0    0  504  503  0.00000000000E+00  0.00000000000E+00  0.84242296573E+03  0.84242296573E+03  0.00000000000E+00 0. -1.
         21   -1    0    0  502  504 -0.00000000000E+00 -0.00000000000E+00 -0.59677511641E+02  0.59677511641E+02  0.00000000000E+00 0. -1.
          6    2    1    2  502    0 -0.15433675538E+02  0.33679290792E+02  0.11213816192E+03  0.20874127238E+03  0.17212047660E+03 0.  0.
         24    2    3    3    0    0  0.36923064077E+02  0.67104954484E+02  0.58470130952E+02  0.12651687986E+03  0.81984005148E+02 0.  0.
         -6    2    1    2    0  503  0.15433675538E+02 -0.33679290792E+02  0.67060729217E+03  0.69335920499E+03  0.17222181589E+03 0.  0.
        -24    2    5    5    0    0  0.46531954225E+02  0.81443384028E+01  0.19668908770E+03  0.21656063806E+03  0.77332785591E+02 0.  0.
          2    1    4    4  501    0  0.20916813620E+01  0.71785833627E+02  0.56392575583E+02  0.91311026833E+02  0.00000000000E+00 0. -1.
         -1    1    4    4    0  501  0.34831382715E+02 -0.46808791435E+01  0.20775553694E+01  0.35205853032E+02  0.00000000000E+00 0.  1.
          5    1    3    3  502    0 -0.52356739614E+02 -0.33425663692E+02  0.53668030969E+02  0.82224392514E+02  0.47000000000E+01 0. -1.
         11    1    6    6    0    0 -0.69702952162E+01 -0.12338967409E+02  0.12000905287E+03  0.12084290588E+03  0.00000000000E+00 0. -1.
        -12    1    6    6    0    0  0.53502249441E+02  0.20483305812E+02  0.76680034829E+02  0.95717732180E+02  0.00000000000E+00 0.  1.
         -5    1    5    5    0  503 -0.31098278687E+02 -0.41823629195E+02  0.47391820447E+03  0.47679856693E+03  0.47000000000E+01 0.  1.
<mgrwt>
<rscale>  2 0.17613665E+03</rscale>
<asrwt>0</asrwt>
<pdfrwt beam="1">  1       21 0.12960352E+00 0.17616142E+03</pdfrwt>
<pdfrwt beam="2">  1       21 0.91811562E-02 0.17616142E+03</pdfrwt>
<totfact> 0.41468410E+04</totfact>
</mgrwt>
</event>
<event>
12    1  0.2769346E-001  0.2023420E+03  0.7546771E-02  0.1147827E+00
         21   -1    0    0  504  503  0.00000000000E+00  0.00000000000E+00  0.43266440465E+03  0.43266440465E+03  0.00000000000E+00 0.  1.
         21   -1    0    0  502  504 -0.00000000000E+00 -0.00000000000E+00 -0.13362080042E+03  0.13362080042E+03  0.00000000000E+00 0.  1.
          6    2    1    2  502    0  0.81871609810E+02  0.66188896398E+02 -0.35843465944E+01  0.20237373955E+03  0.17279569561E+03 0.  0.
         24    2    3    3    0    0 -0.12309356062E+02 -0.59655268795E+01  0.10619726137E+02  0.82790459730E+02  0.80959087701E+02 0.  0.
         -6    2    1    2    0  503 -0.81871609810E+02 -0.66188896398E+02  0.30262795083E+03  0.36391146552E+03  0.17252231048E+03 0.  0.
        -24    2    5    5    0    0 -0.99481884146E+01 -0.43145602573E+02  0.58380539054E+02  0.10821074183E+03  0.79628938419E+02 0.  0.
          2    1    4    4  501    0 -0.45186009289E+02 -0.12155787793E+02  0.14796886980E+02  0.49076333162E+02  0.00000000000E+00 0. -1.
         -1    1    4    4    0  501  0.32876653226E+02  0.61902609139E+01 -0.41771608426E+01  0.33714126568E+02  0.00000000000E+00 0.  1.
          5    1    3    3  502    0  0.94180965872E+02  0.72154423277E+02 -0.14204072732E+02  0.11958327982E+03  0.47000000000E+01 0. -1.
         11    1    6    6    0    0  0.18886317598E+01 -0.35049986172E+02  0.77050431418E+02  0.84668987488E+02  0.00000000000E+00 0. -1.
        -12    1    6    6    0    0 -0.11836820174E+02 -0.80956164019E+01 -0.18669892364E+02  0.23541754345E+02  0.00000000000E+00 0.  1.
         -5    1    5    5    0  503 -0.71923421395E+02 -0.23043293824E+02  0.24424741177E+03  0.25570072369E+03  0.47000000000E+01 0.  1.
<mgrwt>
<rscale>  2 0.20228362E+03</rscale>
<asrwt>0</asrwt>
<pdfrwt beam="1">  1       21 0.66563754E-01 0.20234199E+03</pdfrwt>
<pdfrwt beam="2">  1       21 0.20557046E-01 0.20234199E+03</pdfrwt>
<totfact> 0.45153224E+04</totfact>
</mgrwt>
</event>
<event>
12    1  0.2769346E-001  0.1856873E+03  0.7546771E-02  0.1163317E+00
         21   -1    0    0  504  503  0.00000000000E+00  0.00000000000E+00  0.43909334338E+03  0.43909334338E+03  0.00000000000E+00 0.  1.
         21   -1    0    0  502  504 -0.00000000000E+00 -0.00000000000E+00 -0.11297668725E+03  0.11297668725E+03  0.00000000000E+00 0.  1.
          6    2    1    2  502    0 -0.23035021998E+02 -0.65264333228E+02  0.59133980717E+01  0.18192154386E+03  0.16813814087E+03 0.  0.
         24    2    3    3    0    0 -0.70084263205E+02 -0.92042325081E+01  0.85768439460E+01  0.10853523768E+03  0.81913452629E+02 0.  0.
         -6    2    1    2    0  503  0.23035021998E+02  0.65264333228E+02  0.32020325805E+03  0.37014848677E+03  0.17230708157E+03 0.  0.
        -24    2    5    5    0    0  0.43170815310E+02 -0.23681348645E+02  0.15939463453E+03  0.18522069574E+03  0.80470684378E+02 0.  0.
          2    1    4    4  501    0 -0.44800861319E+01  0.30520064008E+02  0.78826553535E+01  0.31838368901E+02  0.00000000000E+00 0. -1.
         -1    1    4    4    0  501 -0.65604177073E+02 -0.39724296516E+02  0.69418859251E+00  0.76696868782E+02  0.00000000000E+00 0.  1.
          5    1    3    3  502    0  0.47049241207E+02 -0.56060100720E+02 -0.26634458743E+01  0.73386306180E+02  0.47000000000E+01 0. -1.
         11    1    6    6    0    0  0.27628047966E+02 -0.20528858497E+02  0.11224209226E+02  0.36203949209E+02  0.00000000000E+00 0. -1.
        -12    1    6    6    0    0  0.15542767344E+02 -0.31524901482E+01  0.14817042531E+03  0.14901674653E+03  0.00000000000E+00 0.  1.
         -5    1    5    5    0  503 -0.20135793312E+02  0.88945681873E+02  0.16080862352E+03  0.18492779103E+03  0.47000000000E+01 0.  1.
<mgrwt>
<rscale>  2 0.18471421E+03</rscale>
<asrwt>0</asrwt>
<pdfrwt beam="1">  1       21 0.67552821E-01 0.18568731E+03</pdfrwt>
<pdfrwt beam="2">  1       21 0.17381029E-01 0.18568731E+03</pdfrwt>
<totfact> 0.60196244E+04</totfact>
</mgrwt>
</event>
<event>
12    1  0.2769346E-001  0.1973354E+03  0.7546771E-02  0.1152349E+00
         21   -1    0    0  504  503  0.00000000000E+00  0.00000000000E+00  0.46989136597E+03  0.46989136597E+03  0.00000000000E+00 0.  1.
         21   -1    0    0  502  504 -0.00000000000E+00 -0.00000000000E+00 -0.28727331523E+03  0.28727331523E+03  0.00000000000E+00 0. -1.
          6    2    1    2  502    0  0.17971238534E+02 -0.92248912694E+02 -0.22865546598E+03  0.30099894052E+03  0.17170967580E+03 0.  0.
         24    2    3    3    0    0  0.12566916940E+02 -0.11318568562E+03 -0.10205382815E+03  0.17247804785E+03  0.79779485580E+02 0.  0.
         -6    2    1    2    0  503 -0.17971238534E+02  0.92248912694E+02  0.41127351672E+03  0.45616574069E+03  0.17351786685E+03 0.  0.
        -24    2    5    5    0    0 -0.55840738220E+01 -0.21470228072E+02  0.15511913616E+03  0.17559018668E+03  0.79232661712E+02 0.  0.
          4    1    4    4  501    0  0.31364511108E+01 -0.58283913428E+01  0.13151180418E+02  0.14722806037E+02  0.00000000000E+00 0. -1.
         -3    1    4    4    0  501  0.94304658293E+01 -0.10735729427E+03 -0.11520500857E+03  0.15775524181E+03  0.00000000000E+00 0.  1.
          5    1    3    3  502    0  0.54043215934E+01  0.20936772922E+02 -0.12660163783E+03  0.12852089267E+03  0.47000000000E+01 0. -1.
         13    1    6    6    0    0 -0.33798903277E+02 -0.49422117259E+01  0.27511962626E+02  0.43859997800E+02  0.00000000000E+00 0. -1.
        -14    1    6    6    0    0  0.28214829455E+02 -0.16528016346E+02  0.12760717353E+03  0.13173018888E+03  0.00000000000E+00 0.  1.
         -5    1    5    5    0  503 -0.12387164712E+02  0.11371914077E+03  0.25615438056E+03  0.28057555401E+03  0.47000000000E+01 0.  1.
<mgrwt>
<rscale>  2 0.19693723E+03</rscale>
<asrwt>0</asrwt>
<pdfrwt beam="1">  1       21 0.72290979E-01 0.19733544E+03</pdfrwt>
<pdfrwt beam="2">  1       21 0.44195895E-01 0.19733544E+03</pdfrwt>
<totfact> 0.84565812E+03</totfact>
</mgrwt>
</event>
<event>
12    1  0.2769346E-001  0.1981538E+03  0.7546771E-02  0.1153821E+00
         21   -1    0    0  504  503  0.00000000000E+00  0.00000000000E+00  0.24944785097E+03  0.24944785097E+03  0.00000000000E+00 0.  1.
         21   -1    0    0  502  504 -0.00000000000E+00 -0.00000000000E+00 -0.15423097544E+03  0.15423097544E+03  0.00000000000E+00 0.  1.
          6    2    1    2  502    0 -0.62510921937E+02 -0.72340387017E+02  0.72618025747E+01  0.18688166166E+03  0.16040970898E+03 0.  0.
         24    2    3    3    0    0 -0.29682665706E+01 -0.83908666614E+02 -0.26504004662E+02  0.11730168869E+03  0.77509670149E+02 0.  0.
         -6    2    1    2    0  503  0.62510921937E+02  0.72340387017E+02  0.87955072953E+02  0.21679716474E+03  0.17356315515E+03 0.  0.
        -24    2    5    5    0    0  0.48245601458E+02 -0.28015303269E+02  0.46621668617E+02  0.10722844541E+03  0.78815380756E+02 0.  0.
          4    1    4    4  501    0  0.27183940525E+02 -0.53516524798E+02 -0.40327231454E+02  0.72313696114E+02  0.00000000000E+00 0. -1.
         -3    1    4    4    0  501 -0.30152207096E+02 -0.30392141816E+02  0.13823226792E+02  0.44987992574E+02  0.00000000000E+00 0.  1.
          5    1    3    3  502    0 -0.59542655366E+02  0.11568279597E+02  0.33765807237E+02  0.69579972976E+02  0.47000000000E+01 0. -1.
         13    1    6    6    0    0 -0.12096379214E+02 -0.17153342501E+02  0.40494804009E+02  0.45611278219E+02  0.00000000000E+00 0. -1.
        -14    1    6    6    0    0  0.60341980671E+02 -0.10861960768E+02  0.61268646079E+01  0.61617167194E+02  0.00000000000E+00 0.  1.
         -5    1    5    5    0  503  0.14265320479E+02  0.10035569029E+03  0.41333404336E+02  0.10956871933E+03  0.47000000000E+01 0.  1.
<mgrwt>
<rscale>  2 0.19523667E+03</rscale>
<asrwt>0</asrwt>
<pdfrwt beam="1">  1       21 0.38376592E-01 0.19815377E+03</pdfrwt>
<pdfrwt beam="2">  1       21 0.23727842E-01 0.19815377E+03</pdfrwt>
<totfact> 0.10931176E+05</totfact>
</mgrwt>
</event>
<event>
12    1  0.2769346E-001  0.2046289E+03  0.7546771E-02  0.1146085E+00
         21   -1    0    0  504  503  0.00000000000E+00  0.00000000000E+00  0.43200097709E+02  0.43200097709E+02  0.00000000000E+00 0. -1.
         21   -1    0    0  502  504 -0.00000000000E+00 -0.00000000000E+00 -0.11015447980E+04  0.11015447980E+04  0.00000000000E+00 0. -1.
          6    2    1    2  502    0  0.66336412823E+02 -0.86433078972E+02 -0.72975862973E+03  0.75765088417E+03  0.17209302079E+03 0.  0.
         24    2    3    3    0    0  0.59246171509E+01  0.19371309948E+02 -0.27706853957E+03  0.28882835751E+03  0.79022121866E+02 0.  0.
         -6    2    1    2    0  503 -0.66336412823E+02  0.86433078972E+02 -0.32858607054E+03  0.38709401153E+03  0.17321019369E+03 0.  0.
        -24    2    5    5    0    0 -0.14808079738E+02  0.11727167068E+03 -0.21207457238E+03  0.25593301484E+03  0.80957765922E+02 0.  0.
          2    1    4    4  501    0 -0.33733168375E+02  0.23993730079E+01 -0.17121244551E+03  0.17452044332E+03  0.00000000000E+00 0. -1.
         -1    1    4    4    0  501  0.39657785526E+02  0.16971936940E+02 -0.10585609406E+03  0.11430791419E+03  0.00000000000E+00 0.  1.
          5    1    3    3  502    0  0.60411795672E+02 -0.10580438892E+03 -0.45269009016E+03  0.46882252665E+03  0.47000000000E+01 0. -1.
         11    1    6    6    0    0  0.19771902318E+02  0.34736967610E+02 -0.12436633600E+03  0.13063143026E+03  0.00000000000E+00 0. -1.
        -12    1    6    6    0    0 -0.34579982056E+02  0.82534703070E+02 -0.87708236381E+02  0.12530158458E+03  0.00000000000E+00 0.  1.
         -5    1    5    5    0  503 -0.51528333085E+02 -0.30838591708E+02 -0.11651149816E+03  0.13116099669E+03  0.47000000000E+01 0.  1.
<mgrwt>
<rscale>  2 0.20439225E+03</rscale>
<asrwt>0</asrwt>
<pdfrwt beam="1">  1       21 0.66461690E-02 0.20462885E+03</pdfrwt>
<pdfrwt beam="2">  1       21 0.16946843E+00 0.20462885E+03</pdfrwt>
<totfact> 0.35332678E+04</totfact>
</mgrwt>
</event>
<event>
12    1  0.2769346E-001  0.1803871E+03  0.7546771E-02  0.1167677E+00
         21   -1    0    0  504  503  0.00000000000E+00  0.00000000000E+00  0.43135658498E+03  0.43135658498E+03  0.00000000000E+00 0.  1.
         21   -1    0    0  502  504 -0.00000000000E+00 -0.00000000000E+00 -0.84553397937E+02  0.84553397937E+02  0.00000000000E+00 0.  1.
          6    2    1    2  502    0 -0.30809338614E+02 -0.30461978630E+02  0.86291243937E+02  0.19904098472E+03  0.17405168006E+03 0.  0.
         24    2    3    3    0    0 -0.23899215146E+02  0.50469739740E+02  0.39891901131E+02  0.10537838889E+03  0.79967955808E+02 0.  0.
         -6    2    1    2    0  503  0.30809338614E+02  0.30461978630E+02  0.26051194310E+03  0.31686899819E+03  0.17510665900E+03 0.  0.
        -24    2    5    5    0    0 -0.13901731390E+02 -0.43062364702E+02  0.11311197150E+03  0.14612430436E+03  0.80686856663E+02 0.  0.
          2    1    4    4  501    0 -0.31812799173E+02  0.61672223903E+02  0.70057497034E+01  0.69746669607E+02  0.00000000000E+00 0. -1.
         -1    1    4    4    0  501  0.79135840274E+01 -0.11202484164E+02  0.32886151427E+02  0.35631719286E+02  0.00000000000E+00 0.  1.
          5    1    3    3  502    0 -0.69101234685E+01 -0.80931718370E+02  0.46399342806E+02  0.93662595829E+02  0.47000000000E+01 0. -1.
         11    1    6    6    0    0  0.29698433745E+02 -0.32887371930E+02  0.36587994489E+02  0.57465272470E+02  0.00000000000E+00 0. -1.
        -12    1    6    6    0    0 -0.43600165135E+02 -0.10174992771E+02  0.76523977012E+02  0.88659031888E+02  0.00000000000E+00 0.  1.
         -5    1    5    5    0  503  0.44711070004E+02  0.73524343332E+02  0.14739997160E+03  0.17074469383E+03  0.47000000000E+01 0.  1.
<mgrwt>
<rscale>  2 0.18013053E+03</rscale>
<asrwt>0</asrwt>
<pdfrwt beam="1">  1       21 0.66362550E-01 0.18038705E+03</pdfrwt>
<pdfrwt beam="2">  1       21 0.13008215E-01 0.18038705E+03</pdfrwt>
<totfact> 0.10625718E+05</totfact>
</mgrwt>
</event>
<event>
12    1  0.2769346E-001  0.2152633E+03  0.7546771E-02  0.1137610E+00
         21   -1    0    0  504  503  0.00000000000E+00  0.00000000000E+00  0.16534849651E+04  0.16534849651E+04  0.00000000000E+00 0.  1.
         21   -1    0    0  502  504 -0.00000000000E+00 -0.00000000000E+00 -0.28209788462E+02  0.28209788462E+02  0.00000000000E+00 0.  1.
          6    2    1    2  502    0 -0.38368217138E+02  0.12073950594E+03  0.72684648428E+03  0.75783739895E+03  0.17309408755E+03 0.  0.
         24    2    3    3    0    0 -0.14753008410E+02  0.14540081374E+03  0.67844186908E+03  0.69841555987E+03  0.78370126049E+02 0.  0.
         -6    2    1    2    0  503  0.38368217138E+02 -0.12073950594E+03  0.89842869239E+03  0.92385735465E+03  0.17403490469E+03 0.  0.
        -24    2    5    5    0    0  0.22966782971E+01  0.94592804194E+01  0.34529166629E+03  0.35444051303E+03  0.79416558393E+02 0.  0.
          4    1    4    4  501    0  0.12975717667E+02  0.11880429483E+00  0.12071202692E+03  0.12140748250E+03  0.00000000000E+00 0. -1.
         -3    1    4    4    0  501 -0.27728726077E+02  0.14528200945E+03  0.55772984216E+03  0.57700807737E+03  0.00000000000E+00 0.  1.
          5    1    3    3  502    0 -0.23615208728E+02 -0.24661307804E+02  0.48404615205E+02  0.59421839075E+02  0.47000000000E+01 0. -1.
         11    1    6    6    0    0 -0.69826038186E+01 -0.24558548041E+02  0.27106068497E+03  0.27226048919E+03  0.00000000000E+00 0. -1.
        -12    1    6    6    0    0  0.92792821157E+01  0.34017828460E+02  0.74230981324E+02  0.82180023839E+02  0.00000000000E+00 0.  1.
         -5    1    5    5    0  503  0.36071538841E+02 -0.13019878636E+03  0.55313702609E+03  0.56941684162E+03  0.47000000000E+01 0.  1.
<mgrwt>
<rscale>  2 0.21507309E+03</rscale>
<asrwt>0</asrwt>
<pdfrwt beam="1">  1       21 0.25438223E+00 0.21526332E+03</pdfrwt>
<pdfrwt beam="2">  1       21 0.43399688E-02 0.21526332E+03</pdfrwt>
<totfact> 0.21005713E+04</totfact>
</mgrwt>
</event>
<event>
12    1  0.2769346E-001  0.1930736E+03  0.7546771E-02  0.1157114E+00
         21   -1    0    0  504  503  0.00000000000E+00  0.00000000000E+00  0.45897065622E+03  0.45897065622E+03  0.00000000000E+00 0.  1.
         21   -1    0    0  502  504 -0.00000000000E+00 -0.00000000000E+00 -0.88117490891E+02  0.88117490891E+02  0.00000000000E+00 0. -1.
          6    2    1    2  502    0  0.31169072158E+01 -0.69261161131E+02  0.98372224771E+02  0.21668991753E+03  0.18019601050E+03 0.  0.
         24    2    3    3    0    0 -0.61606391107E+02 -0.21309849315E+02  0.22483992020E+02  0.10592192793E+03  0.80401914252E+02 0.  0.
         -6    2    1    2    0  503 -0.31169072158E+01  0.69261161131E+02  0.27248094056E+03  0.33039822958E+03  0.17352320764E+03 0.  0.
        -24    2    5    5    0    0  0.45290316812E+02  0.25055001914E+01  0.86129370550E+02  0.12656355331E+03  0.80886180695E+02 0.  0.
          2    1    4    4  501    0 -0.69087190204E+02 -0.34422441237E+02 -0.19364321548E+01  0.77212007360E+02  0.00000000000E+00 0. -1.
         -1    1    4    4    0  501  0.74807990968E+01  0.13112591922E+02  0.24420424175E+02  0.28709920566E+02  0.00000000000E+00 0.  1.
          5    1    3    3  502    0  0.64723298323E+02 -0.47951311816E+02  0.75888232751E+02  0.11076798960E+03  0.47000000000E+01 0. -1.
         13    1    6    6    0    0  0.52234397026E+02 -0.29482872976E+02  0.57047656070E+02  0.82777455232E+02  0.00000000000E+00 0. -1.
        -14    1    6    6    0    0 -0.69440802148E+01  0.31988373168E+02  0.29081714481E+02  0.43786098080E+02  0.00000000000E+00 0.  1.
         -5    1    5    5    0  503 -0.48407224027E+02  0.66755660939E+02  0.18635157001E+03  0.20383467627E+03  0.47000000000E+01 0.  1.
<mgrwt>
<rscale>  2 0.19150143E+03</rscale>
<asrwt>0</asrwt>
<pdfrwt beam="1">  1       21 0.70610869E-01 0.19307363E+03</pdfrwt>
<pdfrwt beam="2">  1       21 0.13556537E-01 0.19307363E+03</pdfrwt>
<totfact> 0.85659757E+04</totfact>
</mgrwt>
</event>
<event>
12    1  0.2769346E-001  0.1998610E+03  0.7546771E-02  0.1150269E+00
         21   -1    0    0  504  503  0.00000000000E+00  0.00000000000E+00  0.29760073962E+03  0.29760073962E+03  0.00000000000E+00 0. -1.
         21   -1    0    0  502  504 -0.00000000000E+00 -0.00000000000E+00 -0.15350332428E+03  0.15350332428E+03  0.00000000000E+00 0.  1.
          6    2    1    2  502    0  0.67104511370E+02 -0.74445703573E+02 -0.10848599793E+02  0.19821540773E+03  0.17066481043E+03 0.  0.
         24    2    3    3    0    0  0.98587538174E+02 -0.90914673862E+02 -0.27862238273E+02  0.15854221964E+03  0.79839529556E+02 0.  0.
         -6    2    1    2    0  503 -0.67104511370E+02  0.74445703573E+02  0.15494601514E+03  0.25288865617E+03  0.17291392825E+03 0.  0.
        -24    2    5    5    0    0 -0.29719551153E+02  0.91005081225E+02  0.17128706252E+03  0.20860583706E+03  0.70795204229E+02 0.  0.
          4    1    4    4  501    0  0.30254219608E+02 -0.54490699174E+02  0.22395352498E+02  0.66227682385E+02  0.00000000000E+00 0. -1.
         -3    1    4    4    0  501  0.68333318566E+02 -0.36423974688E+02 -0.50257590771E+02  0.92314537254E+02  0.00000000000E+00 0.  1.
          5    1    3    3  502    0 -0.31483026805E+02  0.16468970289E+02  0.17013638480E+02  0.39673188093E+02  0.47000000000E+01 0. -1.
         13    1    6    6    0    0 -0.16089812224E+02 -0.76195504311E+01  0.40455260184E+02  0.44199181924E+02  0.00000000000E+00 0. -1.
        -14    1    6    6    0    0 -0.13629738929E+02  0.98624631656E+02  0.13083180233E+03  0.16440665514E+03  0.00000000000E+00 0.  1.
         -5    1    5    5    0  503 -0.37384960217E+02 -0.16559377652E+02 -0.16341047374E+02  0.44282819105E+02  0.47000000000E+01 0.  1.
<mgrwt>
<rscale>  2 0.19937352E+03</rscale>
<asrwt>0</asrwt>
<pdfrwt beam="1">  1       21 0.45784729E-01 0.19986096E+03</pdfrwt>
<pdfrwt beam="2">  1       21 0.23615896E-01 0.19986096E+03</pdfrwt>
<totfact> 0.76958921E+04</totfact>
</mgrwt>
</event>
<event>
12    1  0.2769346E-001  0.2000143E+03  0.7546771E-02  0.1150350E+00
         21   -1    0    0  504  503  0.00000000000E+00  0.00000000000E+00  0.34906325372E+03  0.34906325372E+03  0.00000000000E+00 0.  1.
         21   -1    0    0  502  504 -0.00000000000E+00 -0.00000000000E+00 -0.28644514327E+03  0.28644514327E+03  0.00000000000E+00 0.  1.
          6    2    1    2  502    0 -0.92593337803E+02  0.19785206311E+02 -0.21590235769E+03  0.29431197659E+03  0.17618379867E+03 0.  0.
         24    2    3    3    0    0 -0.54630846600E+02 -0.35289960692E+02 -0.49416289852E+02  0.11482903717E+03  0.80708285505E+02 0.  0.
         -6    2    1    2    0  503  0.92593337803E+02 -0.19785206311E+02  0.27852046814E+03  0.34119642040E+03  0.17284781030E+03 0.  0.
        -24    2    5    5    0    0  0.12173530555E+03  0.15433017354E+02  0.24037041891E+03  0.28147126808E+03  0.79940439263E+02 0.  0.
          2    1    4    4  501    0 -0.30361066097E+02 -0.57169100013E+01  0.19124064976E+02  0.36334656400E+02  0.00000000000E+00 0. -1.
         -1    1    4    4    0  501 -0.24269780503E+02 -0.29573050691E+02 -0.68540354828E+02  0.78494380772E+02  0.00000000000E+00 0.  1.
          5    1    3    3  502    0 -0.37962491203E+02  0.55075167003E+02 -0.16648606784E+03  0.17948293942E+03  0.47000000000E+01 0. -1.
         13    1    6    6    0    0  0.87731709098E+02  0.35209455623E+02  0.21445291872E+03  0.23436427393E+03  0.00000000000E+00 0. -1.
        -14    1    6    6    0    0  0.34003596456E+02 -0.19776438269E+02  0.25917500184E+02  0.47106994155E+02  0.00000000000E+00 0.  1.
         -5    1    5    5    0  503 -0.29141967750E+02 -0.35218223665E+02  0.38150049236E+02  0.59725152316E+02  0.47000000000E+01 0.  1.
<mgrwt>
<rscale>  2 0.19927716E+03</rscale>
<asrwt>0</asrwt>
<pdfrwt beam="1">  1       21 0.53702039E-01 0.20001428E+03</pdfrwt>
<pdfrwt beam="2">  1       21 0.44068484E-01 0.20001428E+03</pdfrwt>
<totfact> 0.16151541E+04</totfact>
</mgrwt>
</event>
<event>
12    1  0.2769346E-001  0.2376125E+03  0.7546771E-02  0.1121501E+00
         21   -1    0    0  504  503  0.00000000000E+00  0.00000000000E+00  0.22218335839E+03  0.22218335839E+03  0.00000000000E+00 0.  1.
         21   -1    0    0  502  504 -0.00000000000E+00 -0.00000000000E+00 -0.32281140489E+03  0.32281140489E+03  0.00000000000E+00 0. -1.
          6    2    1    2  502    0  0.75006534348E+02 -0.14481506061E+03 -0.17658663621E+03  0.29553651981E+03  0.17193490769E+03 0.  0.
         24    2    3    3    0    0  0.10671073721E+03 -0.12872832599E+03 -0.18161931052E+03  0.25932385185E+03  0.79404803634E+02 0.  0.
         -6    2    1    2    0  503 -0.75006534348E+02  0.14481506061E+03  0.75958589699E+02  0.24945824347E+03  0.17280719288E+03 0.  0.
        -24    2    5    5    0    0 -0.54325446782E+02  0.44289268381E+02  0.97599617137E+02  0.14446507057E+03  0.80197742413E+02 0.  0.
          4    1    4    4  501    0  0.46752904743E+02 -0.10982358181E+03 -0.96417008124E+02  0.15343823735E+03  0.00000000000E+00 0. -1.
         -3    1    4    4    0  501  0.59957832470E+02 -0.18904744173E+02 -0.85202302392E+02  0.10588561451E+03  0.00000000000E+00 0.  1.
          5    1    3    3  502    0 -0.31704202864E+02 -0.16086734621E+02  0.50326743090E+01  0.36212667959E+02  0.47000000000E+01 0. -1.
         11    1    6    6    0    0  0.99698298705E+01 -0.74555596890E+01 -0.44485152760E+01  0.13220142438E+02  0.00000000000E+00 0. -1.
        -12    1    6    6    0    0 -0.64295276652E+02  0.51744828070E+02  0.10204813241E+03  0.13124492813E+03  0.00000000000E+00 0.  1.
         -5    1    5    5    0  503 -0.20681087566E+02  0.10052579223E+03 -0.21641027438E+02  0.10499317289E+03  0.47000000000E+01 0.  1.
<mgrwt>
<rscale>  2 0.23745395E+03</rscale>
<asrwt>0</asrwt>
<pdfrwt beam="1">  1       21 0.34182055E-01 0.23761252E+03</pdfrwt>
<pdfrwt beam="2">  1       21 0.49663293E-01 0.23761252E+03</pdfrwt>
<totfact> 0.31147714E+04</totfact>
</mgrwt>
</event>
<event>
12    1  0.2769346E-001  0.2496433E+03  0.7546771E-02  0.1113709E+00
         21   -1    0    0  504  503  0.00000000000E+00  0.00000000000E+00  0.11080016049E+03  0.11080016049E+03  0.00000000000E+00 0. -1.
         21   -1    0    0  502  504 -0.00000000000E+00 -0.00000000000E+00 -0.56167630090E+03  0.56167630090E+03  0.00000000000E+00 0. -1.
          6    2    1    2  502    0  0.16885246538E+03  0.59386521344E+02 -0.24463968123E+03  0.34952875098E+03  0.17402258517E+03 0.  0.
         24    2    3    3    0    0  0.14147973342E+03 -0.20760053400E+02 -0.14305312581E+03  0.21718579446E+03  0.79107380993E+02 0.  0.
         -6    2    1    2    0  503 -0.16885246538E+03 -0.59386521344E+02 -0.20623645918E+03  0.32294771041E+03  0.17240601086E+03 0.  0.
        -24    2    5    5    0    0 -0.10331597931E+03 -0.39612027782E+02 -0.41121055124E+02  0.14414265383E+03  0.82721576100E+02 0.  0.
          2    1    4    4  501    0  0.15110370067E+03 -0.20626719786E+02 -0.14017545511E+03  0.20713992406E+03  0.00000000000E+00 0. -1.
         -1    1    4    4    0  501 -0.96239672486E+01 -0.13333361424E+00 -0.28776706921E+01  0.10045870399E+02  0.00000000000E+00 0.  1.
          5    1    3    3  502    0  0.27372731967E+02  0.80146574744E+02 -0.10158655542E+03  0.13234295652E+03  0.47000000000E+01 0. -1.
         11    1    6    6    0    0 -0.65670099262E+02 -0.65196472675E+02 -0.24992546575E+02  0.95852852700E+02  0.00000000000E+00 0. -1.
        -12    1    6    6    0    0 -0.37645880046E+02  0.25584444893E+02 -0.16128508549E+02  0.48289801127E+02  0.00000000000E+00 0.  1.
         -5    1    5    5    0  503 -0.65536486077E+02 -0.19774493562E+02 -0.16511540406E+03  0.17880505658E+03  0.47000000000E+01 0.  1.
<mgrwt>
<rscale>  2 0.24936177E+03</rscale>
<asrwt>0</asrwt>
<pdfrwt beam="1">  1       21 0.17046179E-01 0.24964329E+03</pdfrwt>
<pdfrwt beam="2">  1       21 0.86411738E-01 0.24964329E+03</pdfrwt>
<totfact> 0.34817450E+04</totfact>
</mgrwt>
</event>
<event>
12    1  0.2769346E-001  0.4412337E+03  0.7546771E-02  0.1030456E+00
         21   -1    0    0  504  503  0.00000000000E+00  0.00000000000E+00  0.23857749588E+04  0.23857749588E+04  0.00000000000E+00 0. -1.
         21   -1    0    0  502  504 -0.00000000000E+00 -0.00000000000E+00 -0.92279688034E+02  0.92279688034E+02  0.00000000000E+00 0.  1.
          6    2    1    2  502    0 -0.20403048918E+03  0.35079975437E+03  0.71985788394E+03  0.84372853633E+03  0.17027495928E+03 0.  0.
         24    2    3    3    0    0 -0.58028507993E+02  0.14802214510E+03  0.40361052225E+03  0.44065308296E+03  0.77432697684E+02 0.  0.
         -6    2    1    2    0  503  0.20403048918E+03 -0.35079975437E+03  0.15736373868E+04  0.16343261105E+04  0.17320017923E+03 0.  0.
        -24    2    5    5    0    0  0.11706024305E+03 -0.94381673938E+02  0.54055849994E+03  0.56634290267E+03  0.77005134072E+02 0.  0.
          4    1    4    4  501    0 -0.71142892802E+02  0.14549358981E+03  0.38559930437E+03  0.41823022297E+03  0.00000000000E+00 0. -1.
         -3    1    4    4    0  501  0.13114384808E+02  0.25285552924E+01  0.18011217882E+02  0.22422859995E+02  0.00000000000E+00 0.  1.
          5    1    3    3  502    0 -0.14600198118E+03  0.20277760927E+03  0.31624736169E+03  0.40307545336E+03  0.47000000000E+01 0. -1.
         11    1    6    6    0    0  0.10029236950E+03 -0.76106933789E+02  0.31202563612E+03  0.33646815949E+03  0.00000000000E+00 0. -1.
        -12    1    6    6    0    0  0.16767873550E+02 -0.18274740148E+02  0.22853286382E+03  0.22987474319E+03  0.00000000000E+00 0.  1.
         -5    1    5    5    0  503  0.86970246130E+02 -0.25641808043E+03  0.10330788869E+04  0.10679832078E+04  0.47000000000E+01 0.  1.
<mgrwt>
<rscale>  2 0.44094845E+03</rscale>
<asrwt>0</asrwt>
<pdfrwt beam="1">  1       21 0.36704225E+00 0.44123374E+03</pdfrwt>
<pdfrwt beam="2">  1       21 0.14196877E-01 0.44123374E+03</pdfrwt>
<totfact> 0.47110181E+02</totfact>
</mgrwt>
</event>
<event>
12    1  0.2769346E-001  0.1999237E+03  0.7546771E-02  0.1150742E+00
         21   -1    0    0  504  503  0.00000000000E+00  0.00000000000E+00  0.93495877052E+02  0.93495877052E+02  0.00000000000E+00 0. -1.
         21   -1    0    0  502  504 -0.00000000000E+00 -0.00000000000E+00 -0.62913292055E+03  0.62913292055E+03  0.00000000000E+00 0. -1.
          6    2    1    2  502    0  0.43378539716E+02 -0.90691226387E+02 -0.47902327614E+03  0.51906915740E+03  0.17280883897E+03 0.  0.
         24    2    3    3    0    0  0.17923703963E+02 -0.11594248211E+03 -0.45150657179E+03  0.47362871729E+03  0.81866105035E+02 0.  0.
         -6    2    1    2    0  503 -0.43378539716E+02  0.90691226387E+02 -0.56613767357E+02  0.20355964021E+03  0.16770453844E+03 0.  0.
        -24    2    5    5    0    0 -0.68860132215E+02  0.11141767924E+03 -0.67234719636E+02  0.16872012196E+03  0.82403610211E+02 0.  0.
          4    1    4    4  501    0  0.20696920579E+02 -0.76889875717E+02 -0.40538310105E+03  0.41312936731E+03  0.00000000000E+00 0. -1.
         -3    1    4    4    0  501 -0.27732166163E+01 -0.39052606389E+02 -0.46123470734E+02  0.60499349986E+02  0.00000000000E+00 0.  1.
          5    1    3    3  502    0  0.25454835753E+02  0.25251255719E+02 -0.27516704351E+02  0.45440440105E+02  0.47000000000E+01 0. -1.
         13    1    6    6    0    0 -0.42339834147E+02  0.31581254950E+02  0.10868902729E+02  0.53927453735E+02  0.00000000000E+00 0. -1.
        -14    1    6    6    0    0 -0.26520298068E+02  0.79836424286E+02 -0.78103622366E+02  0.11479266823E+03  0.00000000000E+00 0.  1.
         -5    1    5    5    0  503  0.25481592499E+02 -0.20726452849E+02  0.10620952279E+02  0.34839518242E+02  0.47000000000E+01 0.  1.
<mgrwt>
<rscale>  2 0.19881574E+03</rscale>
<asrwt>0</asrwt>
<pdfrwt beam="1">  1       21 0.14383981E-01 0.19992371E+03</pdfrwt>
<pdfrwt beam="2">  1       21 0.96789680E-01 0.19992371E+03</pdfrwt>
<totfact> 0.37388875E+04</totfact>
</mgrwt>
</event>
<event>
12    1  0.2769346E-001  0.2039880E+03  0.7546771E-02  0.1146700E+00
         21   -1    0    0  504  503  0.00000000000E+00  0.00000000000E+00  0.33833882542E+03  0.33833882542E+03  0.00000000000E+00 0. -1.
         21   -1    0    0  502  504 -0.00000000000E+00 -0.00000000000E+00 -0.12253633424E+03  0.12253633424E+03  0.00000000000E+00 0. -1.
          6    2    1    2  502    0  0.10356261557E+03 -0.27166798190E+02  0.12025610903E+03  0.23561930597E+03  0.17202231052E+03 0.  0.
         24    2    3    3    0    0  0.11397942661E+03 -0.10515623884E+01  0.14110149755E+03  0.20030449724E+03  0.84969662395E+02 0.  0.
         -6    2    1    2    0  503 -0.10356261557E+03  0.27166798190E+02  0.95546382145E+02  0.22525585370E+03  0.17363132844E+03 0.  0.
        -24    2    5    5    0    0 -0.24195176965E+02  0.61309443813E+02  0.12330884339E+02  0.10520661532E+03  0.81068654294E+02 0.  0.
          2    1    4    4  501    0  0.73607974488E+02  0.36574952641E+02  0.58195928089E+02  0.10071061074E+03  0.00000000000E+00 0. -1.
         -1    1    4    4    0  501  0.40371452120E+02 -0.37626515030E+02  0.82905569465E+02  0.99593886499E+02  0.00000000000E+00 0.  1.
          5    1    3    3  502    0 -0.10416811039E+02 -0.26115235802E+02 -0.20845388520E+02  0.35314808732E+02  0.47000000000E+01 0. -1.
         13    1    6    6    0    0 -0.99452050955E+01 -0.98315722395E+01  0.27711424267E+02  0.31040134536E+02  0.00000000000E+00 0. -1.
        -14    1    6    6    0    0 -0.14249971870E+02  0.71141016052E+02 -0.15380539927E+02  0.74166480783E+02  0.00000000000E+00 0.  1.
         -5    1    5    5    0  503 -0.79367438604E+02 -0.34142645623E+02  0.83215497806E+02  0.12004923838E+03  0.47000000000E+01 0.  1.
<mgrwt>
<rscale>  2 0.20364515E+03</rscale>
<asrwt>0</asrwt>
<pdfrwt beam="1">  1       21 0.52052127E-01 0.20398796E+03</pdfrwt>
<pdfrwt beam="2">  1       21 0.18851744E-01 0.20398796E+03</pdfrwt>
<totfact> 0.89847572E+04</totfact>
</mgrwt>
</event>
<event>
12    1  0.2769346E-001  0.2122333E+03  0.7546771E-02  0.1140006E+00
         21   -1    0    0  504  503  0.00000000000E+00  0.00000000000E+00  0.14651074635E+03  0.14651074635E+03  0.00000000000E+00 0.  1.
         21   -1    0    0  502  504 -0.00000000000E+00 -0.00000000000E+00 -0.30700537347E+03  0.30700537347E+03  0.00000000000E+00 0.  1.
          6    2    1    2  502    0 -0.21157078688E+02  0.12004838957E+03 -0.93493202740E+02  0.23191364010E+03  0.17373462432E+03 0.  0.
         24    2    3    3    0    0 -0.11715700475E+02  0.74408962368E+02 -0.13021888067E+03  0.17239085155E+03  0.84188464150E+02 0.  0.
         -6    2    1    2    0  503  0.21157078688E+02 -0.12004838957E+03 -0.67001424379E+02  0.22160247972E+03  0.17250863842E+03 0.  0.
        -24    2    5    5    0    0  0.51712389463E+02 -0.17599861405E+02 -0.58495507214E+02  0.11425366246E+03  0.81536793388E+02 0.  0.
          4    1    4    4  501    0  0.12217055777E+02  0.15950087844E+02 -0.10066605983E+03  0.10265143620E+03  0.00000000000E+00 0. -1.
         -3    1    4    4    0  501 -0.23932756252E+02  0.58458874524E+02 -0.29552820844E+02  0.69739415342E+02  0.00000000000E+00 0.  1.
          5    1    3    3  502    0 -0.94413782125E+01  0.45639427199E+02  0.36725677930E+02  0.59522788552E+02  0.47000000000E+01 0. -1.
         13    1    6    6    0    0 -0.67761022145E+01  0.13270518366E+02  0.10846325577E+02  0.18430002644E+02  0.00000000000E+00 0. -1.
        -14    1    6    6    0    0  0.58488491677E+02 -0.30870379770E+02 -0.69341832792E+02  0.95823659817E+02  0.00000000000E+00 0.  1.
         -5    1    5    5    0  503 -0.30555310775E+02 -0.10244852816E+03 -0.85059171647E+01  0.10734881725E+03  0.47000000000E+01 0.  1.
<mgrwt>
<rscale>  2 0.21198221E+03</rscale>
<asrwt>0</asrwt>
<pdfrwt beam="1">  1       21 0.22540115E-01 0.21223326E+03</pdfrwt>
<pdfrwt beam="2">  1       21 0.47231595E-01 0.21223326E+03</pdfrwt>
<totfact> 0.78423546E+04</totfact>
</mgrwt>
</event>
<event>
12    1  0.2769346E-001  0.2615732E+03  0.7546771E-02  0.1106285E+00
         21   -1    0    0  504  503  0.00000000000E+00  0.00000000000E+00  0.23517726429E+03  0.23517726429E+03  0.00000000000E+00 0. -1.
         21   -1    0    0  502  504 -0.00000000000E+00 -0.00000000000E+00 -0.31750217159E+03  0.31750217159E+03  0.00000000000E+00 0.  1.
          6    2    1    2  502    0  0.76473615535E+02 -0.17990468348E+03 -0.12199173428E+03  0.28811562143E+03  0.17295872070E+03 0.  0.
         24    2    3    3    0    0  0.79301821362E+02 -0.10664109985E+03 -0.14441252586E+03  0.21130199419E+03  0.78309974301E+02 0.  0.
         -6    2    1    2    0  503 -0.76473615535E+02  0.17990468348E+03  0.39666826985E+02  0.26456381445E+03  0.17380059189E+03 0.  0.
        -24    2    5    5    0    0 -0.56249609283E+02  0.67290931751E+02  0.79787821354E+02  0.14322687986E+03  0.80347710837E+02 0.  0.
          2    1    4    4  501    0  0.20562159452E+02  0.10587756595E+02 -0.22011071225E+02  0.31927891373E+02  0.00000000000E+00 0. -1.
         -1    1    4    4    0  501  0.58739661910E+02 -0.11722885645E+03 -0.12240145463E+03  0.17937410282E+03  0.00000000000E+00 0.  1.
          5    1    3    3  502    0 -0.28282058273E+01 -0.73263583628E+02  0.22420791577E+02  0.76813627236E+02  0.47000000000E+01 0. -1.
         11    1    6    6    0    0 -0.15672068864E+02 -0.17993515705E+02  0.10387657421E+02  0.26024676302E+02  0.00000000000E+00 0. -1.
        -12    1    6    6    0    0 -0.40577540419E+02  0.85284447456E+02  0.69400163933E+02  0.11720220356E+03  0.00000000000E+00 0.  1.
         -5    1    5    5    0  503 -0.20224006252E+02  0.11261375173E+03 -0.40120994370E+02  0.12133693459E+03  0.47000000000E+01 0.  1.
<mgrwt>
<rscale>  2 0.26143346E+03</rscale>
<asrwt>0</asrwt>
<pdfrwt beam="1">  1       21 0.36181118E-01 0.26157323E+03</pdfrwt>
<pdfrwt beam="2">  1       21 0.48846488E-01 0.26157323E+03</pdfrwt>
<totfact> 0.28481776E+04</totfact>
</mgrwt>
</event>
<event>
12    1  0.2769346E-001  0.2086615E+03  0.7546771E-02  0.1142717E+00
         21   -1    0    0  504  503  0.00000000000E+00  0.00000000000E+00  0.24608593289E+04  0.24608593289E+04  0.00000000000E+00 0. -1.
         21   -1    0    0  502  504 -0.00000000000E+00 -0.00000000000E+00 -0.18281435872E+02  0.18281435872E+02  0.00000000000E+00 0. -1.
          6    2    1    2  502    0  0.11597703220E+03  0.88311727740E+01  0.99323442874E+03  0.10149158741E+04  0.17323665731E+03 0.  0.
         24    2    3    3    0    0  0.33106741370E+02 -0.52395044634E+02  0.52991887116E+03  0.54025859700E+03  0.84994379771E+02 0.  0.
         -6    2    1    2    0  503 -0.11597703220E+03 -0.88311727740E+01  0.14493434643E+04  0.14642248907E+04  0.17271187397E+03 0.  0.
        -24    2    5    5    0    0 -0.13088114382E+03 -0.37231609330E+02  0.89104363786E+03  0.90498477809E+03  0.80762723251E+02 0.  0.
          4    1    4    4  501    0  0.41431647444E+02 -0.48944673121E+02  0.19611031806E+03  0.20632842579E+03  0.00000000000E+00 0. -1.
         -3    1    4    4    0  501 -0.83249060739E+01 -0.34503715133E+01  0.33380855309E+03  0.33393017121E+03  0.00000000000E+00 0.  1.
          5    1    3    3  502    0  0.82870290827E+02  0.61226217408E+02  0.46331555758E+03  0.47465727709E+03  0.47000000000E+01 0. -1.
         11    1    6    6    0    0 -0.11917726887E+03 -0.55577260088E+02  0.66367034925E+03  0.67657252806E+03  0.00000000000E+00 0. -1.
        -12    1    6    6    0    0 -0.11703874950E+02  0.18345650759E+02  0.22737328861E+03  0.22841225003E+03  0.00000000000E+00 0.  1.
         -5    1    5    5    0  503  0.14904111627E+02  0.28400436556E+02  0.55829982648E+03  0.55924011264E+03  0.47000000000E+01 0.  1.
<mgrwt>
<rscale>  2 0.20855249E+03</rscale>
<asrwt>0</asrwt>
<pdfrwt beam="1">  1       21 0.37859348E+00 0.20866145E+03</pdfrwt>
<pdfrwt beam="2">  1       21 0.28125306E-02 0.20866145E+03</pdfrwt>
<totfact> 0.81415278E+03</totfact>
</mgrwt>
</event>
<event>
12    1  0.2769346E-001  0.2565965E+03  0.7546771E-02  0.1109245E+00
         21   -1    0    0  504  503  0.00000000000E+00  0.00000000000E+00  0.79823382514E+03  0.79823382514E+03  0.00000000000E+00 0.  1.
         21   -1    0    0  502  504 -0.00000000000E+00 -0.00000000000E+00 -0.85908193971E+02  0.85908193971E+02  0.00000000000E+00 0. -1.
          6    2    1    2  502    0  0.73931510507E+02  0.17367850828E+03  0.26702863003E+03  0.37033234327E+03  0.17381502447E+03 0.  0.
         24    2    3    3    0    0  0.89802530716E+02  0.17870448260E+03  0.27658343831E+03  0.35057040861E+03  0.80008914613E+02 0.  0.
         -6    2    1    2    0  503 -0.73931510507E+02 -0.17367850828E+03  0.44529700114E+03  0.51380967585E+03  0.17343837891E+03 0.  0.
        -24    2    5    5    0    0  0.52344821340E+01 -0.13826701054E+03  0.34902040661E+03  0.38414664635E+03  0.81291055252E+02 0.  0.
          4    1    4    4  501    0  0.91229508745E+02  0.18305729273E+03  0.24725321332E+03  0.32088463220E+03  0.00000000000E+00 0. -1.
         -3    1    4    4    0  501 -0.14269780283E+01 -0.43528101337E+01  0.29330224999E+02  0.29685776406E+02  0.00000000000E+00 0.  1.
          5    1    3    3  502    0 -0.15871020209E+02 -0.50259743112E+01 -0.95548082854E+01  0.19761934663E+02  0.47000000000E+01 0. -1.
         11    1    6    6    0    0  0.20108139119E+02 -0.41662973338E+02  0.43986071271E+02  0.63835061464E+02  0.00000000000E+00 0. -1.
        -12    1    6    6    0    0 -0.14873656985E+02 -0.96604037198E+02  0.30503433534E+03  0.32031158489E+03  0.00000000000E+00 0.  1.
         -5    1    5    5    0  503 -0.79165992641E+02 -0.35411497749E+02  0.96276594528E+02  0.12966302949E+03  0.47000000000E+01 0.  1.
<mgrwt>
<rscale>  2 0.25653271E+03</rscale>
<asrwt>0</asrwt>
<pdfrwt beam="1">  1       21 0.12280520E+00 0.25659648E+03</pdfrwt>
<pdfrwt beam="2">  1       21 0.13216646E-01 0.25659648E+03</pdfrwt>
<totfact> 0.23742006E+04</totfact>
</mgrwt>
</event>
<event>
12    1  0.2769346E-001  0.1879696E+03  0.7546771E-02  0.1160508E+00
         21   -1    0    0  504  503  0.00000000000E+00  0.00000000000E+00  0.11820622515E+03  0.11820622515E+03  0.00000000000E+00 0.  1.
         21   -1    0    0  502  504 -0.00000000000E+00 -0.00000000000E+00 -0.35830361617E+03  0.35830361617E+03  0.00000000000E+00 0. -1.
          6    2    1    2  502    0 -0.66355169793E+02  0.21056770858E+02 -0.21842601358E+03  0.28817095086E+03  0.17460291336E+03 0.  0.
         24    2    3    3    0    0 -0.11068456083E+01 -0.45400789639E+02 -0.81936855519E+02  0.12286719584E+03  0.79499954174E+02 0.  0.
         -6    2    1    2    0  503  0.66355169793E+02 -0.21056770858E+02 -0.21671377436E+02  0.18833889046E+03  0.17365336997E+03 0.  0.
        -24    2    5    5    0    0 -0.17628262180E+02 -0.45057958741E+02  0.15590442844E+02  0.93260990204E+02  0.78189354214E+02 0.  0.
          4    1    4    4  501    0  0.16220001070E+02  0.50807977541E+01  0.76085199249E+01  0.18622366015E+02  0.00000000000E+00 0. -1.
         -3    1    4    4    0  501 -0.17326846678E+02 -0.50481587393E+02 -0.89545375444E+02  0.10424482982E+03  0.00000000000E+00 0.  1.
          5    1    3    3  502    0 -0.65248324184E+02  0.66457560497E+02 -0.13648915806E+03  0.16530375502E+03  0.47000000000E+01 0. -1.
         11    1    6    6    0    0 -0.27973055496E+00 -0.61172266099E+02 -0.56749064405E+01  0.61435567483E+02  0.00000000000E+00 0. -1.
        -12    1    6    6    0    0 -0.17348531625E+02  0.16114307358E+02  0.21265349284E+02  0.31825422721E+02  0.00000000000E+00 0.  1.
         -5    1    5    5    0  503  0.83983431973E+02  0.24001187883E+02 -0.37261820280E+02  0.95077900252E+02  0.47000000000E+01 0.  1.
<mgrwt>
<rscale>  2 0.18774880E+03</rscale>
<asrwt>0</asrwt>
<pdfrwt beam="1">  1       21 0.18185573E-01 0.18796961E+03</pdfrwt>
<pdfrwt beam="2">  1       21 0.55123633E-01 0.18796961E+03</pdfrwt>
<totfact> 0.85680901E+04</totfact>
</mgrwt>
</event>
<event>
12    1  0.2769346E-001  0.2370123E+03  0.7546771E-02  0.1121910E+00
         21   -1    0    0  504  503  0.00000000000E+00  0.00000000000E+00  0.13907580364E+03  0.13907580364E+03  0.00000000000E+00 0.  1.
         21   -1    0    0  502  504 -0.00000000000E+00 -0.00000000000E+00 -0.76998666528E+03  0.76998666528E+03  0.00000000000E+00 0. -1.
          6    2    1    2  502    0 -0.15475324242E+03  0.45967853683E+02 -0.62910849191E+03  0.67204327579E+03  0.17263562881E+03 0.  0.
         24    2    3    3    0    0 -0.27378023368E+02 -0.25480643901E+02 -0.26540568967E+03  0.28008517523E+03  0.81293947507E+02 0.  0.
         -6    2    1    2    0  503  0.15475324242E+03 -0.45967853683E+02 -0.18023697364E+01  0.23701919312E+03  0.17353166789E+03 0.  0.
        -24    2    5    5    0    0  0.29015448303E+02 -0.67344598904E+02  0.22638473733E+02  0.10707150005E+03  0.74663340330E+02 0.  0.
          2    1    4    4  501    0  0.10601944394E+02 -0.25536686436E+02 -0.21602850563E+03  0.21779081437E+03  0.00000000000E+00 0. -1.
         -1    1    4    4    0  501 -0.37979967762E+02  0.56042535184E-01 -0.49377184032E+02  0.62294360860E+02  0.00000000000E+00 0.  1.
          5    1    3    3  502    0 -0.12737521905E+03  0.71448497584E+02 -0.36370280224E+03  0.39195810056E+03  0.47000000000E+01 0. -1.
         11    1    6    6    0    0  0.83052528634E+01 -0.75453229351E+01 -0.25302377815E+02  0.27678862810E+02  0.00000000000E+00 0. -1.
        -12    1    6    6    0    0  0.20710195439E+02 -0.59799275969E+02  0.47940851549E+02  0.79392637245E+02  0.00000000000E+00 0.  1.
         -5    1    5    5    0  503  0.12573779411E+03  0.21376745221E+02 -0.24440843470E+02  0.12994769307E+03  0.47000000000E+01 0.  1.
<mgrwt>
<rscale>  2 0.23684836E+03</rscale>
<asrwt>0</asrwt>
<pdfrwt beam="1">  1       21 0.21396278E-01 0.23701234E+03</pdfrwt>
<pdfrwt beam="2">  1       21 0.11845949E+00 0.23701234E+03</pdfrwt>
<totfact> 0.10770002E+04</totfact>
</mgrwt>
</event>
<event>
12    1  0.2769346E-001  0.2459750E+03  0.7546771E-02  0.1115881E+00
         21   -1    0    0  504  503  0.00000000000E+00  0.00000000000E+00  0.27303147773E+03  0.27303147773E+03  0.00000000000E+00 0.  1.
         21   -1    0    0  502  504 -0.00000000000E+00 -0.00000000000E+00 -0.26294332946E+03  0.26294332946E+03  0.00000000000E+00 0.  1.
          6    2    1    2  502    0  0.12000862136E+03  0.12797498162E+03 -0.10126500548E+03  0.26596880390E+03  0.17235178616E+03 0.  0.
         24    2    3    3    0    0  0.13037545327E+03  0.15154140403E+03 -0.10483729480E+03  0.23955481670E+03  0.80206582458E+02 0.  0.
         -6    2    1    2    0  503 -0.12000862136E+03 -0.12797498162E+03  0.11135315375E+03  0.27000600330E+03  0.17240664675E+03 0.  0.
        -24    2    5    5    0    0 -0.71886803762E+01 -0.89285719547E+02  0.15009680859E+02  0.11661319756E+03  0.73141851802E+02 0.  0.
          2    1    4    4  501    0  0.21274631061E+02  0.32019871112E+02  0.11640675719E+02  0.40166993963E+02  0.00000000000E+00 0. -1.
         -1    1    4    4    0  501  0.10910082221E+03  0.11952153292E+03 -0.11647797051E+03  0.19938782273E+03  0.00000000000E+00 0.  1.
          5    1    3    3  502    0 -0.10366831909E+02 -0.23566422411E+02  0.35722893174E+01  0.26413987205E+02  0.47000000000E+01 0. -1.
         13    1    6    6    0    0 -0.24994786040E+01 -0.51925740548E+02 -0.28328067575E+02  0.59203119321E+02  0.00000000000E+00 0. -1.
        -14    1    6    6    0    0 -0.46892017722E+01 -0.37359978999E+02  0.43337748434E+02  0.57410078239E+02  0.00000000000E+00 0.  1.
         -5    1    5    5    0  503 -0.11281994098E+03 -0.38689262077E+02  0.96343472887E+02  0.15339280574E+03  0.47000000000E+01 0.  1.
<mgrwt>
<rscale>  2 0.24596542E+03</rscale>
<asrwt>0</asrwt>
<pdfrwt beam="1">  1       21 0.42004843E-01 0.24597503E+03</pdfrwt>
<pdfrwt beam="2">  1       21 0.40452820E-01 0.24597503E+03</pdfrwt>
<totfact> 0.31274521E+04</totfact>
</mgrwt>
</event>
<event>
12    1  0.2769346E-001  0.4927835E+03  0.7546771E-02  0.1015702E+00
         21   -1    0    0  504  503  0.00000000000E+00  0.00000000000E+00  0.77620903286E+03  0.77620903286E+03  0.00000000000E+00 0.  1.
         21   -1    0    0  502  504 -0.00000000000E+00 -0.00000000000E+00 -0.45478944040E+03  0.45478944040E+03  0.00000000000E+00 0. -1.
          6    2    1    2  502    0  0.26915947706E+03  0.37426978005E+03 -0.18343859989E+03  0.52550762433E+03  0.17315845621E+03 0.  0.
         24    2    3    3    0    0  0.21527187439E+03  0.22823368354E+03 -0.17772548491E+03  0.36967070674E+03  0.81470787564E+02 0.  0.
         -6    2    1    2    0  503 -0.26915947706E+03 -0.37426978005E+03  0.50485819235E+03  0.70549084892E+03  0.17410011826E+03 0.  0.
        -24    2    5    5    0    0 -0.14731478814E+03 -0.22366707723E+03  0.19569684923E+03  0.34062083317E+03  0.77438278311E+02 0.  0.
          2    1    4    4  501    0  0.18748724163E+03  0.15816503938E+03 -0.15794012636E+03  0.29174085927E+03  0.00000000000E+00 0. -1.
         -1    1    4    4    0  501  0.27784632760E+02  0.70068644164E+02 -0.19785358551E+02  0.77929847463E+02  0.00000000000E+00 0.  1.
          5    1    3    3  502    0  0.53887602668E+02  0.14603609650E+03 -0.57131149824E+01  0.15583691760E+03  0.47000000000E+01 0. -1.
         11    1    6    6    0    0 -0.34884268578E+02 -0.87219010312E+02  0.30799554741E+02  0.98856868887E+02  0.00000000000E+00 0. -1.
        -12    1    6    6    0    0 -0.11243051957E+03 -0.13644806692E+03  0.16489729449E+03  0.24176396428E+03  0.00000000000E+00 0.  1.
         -5    1    5    5    0  503 -0.12184468891E+03 -0.15060270281E+03  0.30916134312E+03  0.36487001575E+03  0.47000000000E+01 0.  1.
<mgrwt>
<rscale>  2 0.49270047E+03</rscale>
<asrwt>0</asrwt>
<pdfrwt beam="1">  1       21 0.11941677E+00 0.49278347E+03</pdfrwt>
<pdfrwt beam="2">  1       21 0.69967606E-01 0.49278347E+03</pdfrwt>
<totfact> 0.82385710E+02</totfact>
</mgrwt>
</event>
<event>
12    1  0.2769346E-001  0.2222881E+03  0.7546771E-02  0.1133756E+00
         21   -1    0    0  504  503  0.00000000000E+00  0.00000000000E+00  0.24053308892E+03  0.24053308892E+03  0.00000000000E+00 0.  1.
         21   -1    0    0  502  504 -0.00000000000E+00 -0.00000000000E+00 -0.25575322795E+03  0.25575322795E+03  0.00000000000E+00 0.  1.
          6    2    1    2  502    0 -0.29637393450E+02  0.12313798627E+03  0.11062715153E+03  0.24084638494E+03  0.17241599616E+03 0.  0.
         24    2    3    3    0    0 -0.76425214465E+02  0.57576054868E+02  0.32492555713E+02  0.12853177277E+03  0.79428174689E+02 0.  0.
         -6    2    1    2    0  503  0.29637393450E+02 -0.12313798627E+03 -0.12584729056E+03  0.25543993193E+03  0.18267643398E+03 0.  0.
        -24    2    5    5    0    0 -0.58562031710E+02 -0.78082898565E+02 -0.58873668805E+02  0.13578770447E+03  0.73795265427E+02 0.  0.
          4    1    4    4  501    0 -0.13951474148E+02  0.43643087312E+02 -0.15673250417E+02  0.48425339231E+02  0.00000000000E+00 0. -1.
         -3    1    4    4    0  501 -0.62473740317E+02  0.13932967556E+02  0.48165806130E+02  0.80106433539E+02  0.00000000000E+00 0.  1.
          5    1    3    3  502    0  0.46787821015E+02  0.65561931398E+02  0.78134595816E+02  0.11231461217E+03  0.47000000000E+01 0. -1.
         11    1    6    6    0    0 -0.17627879129E+02  0.13299648154E+02 -0.13244443740E+02  0.25749525308E+02  0.00000000000E+00 0. -1.
        -12    1    6    6    0    0 -0.40934152581E+02 -0.91382546719E+02 -0.45629225065E+02  0.11003817916E+03  0.00000000000E+00 0.  1.
         -5    1    5    5    0  503  0.88199425160E+02 -0.45055087701E+02 -0.66973621750E+02  0.11965222746E+03  0.47000000000E+01 0.  1.
<mgrwt>
<rscale>  2 0.22017003E+03</rscale>
<asrwt>0</asrwt>
<pdfrwt beam="1">  1       21 0.37005091E-01 0.22228814E+03</pdfrwt>
<pdfrwt beam="2">  1       21 0.39346651E-01 0.22228814E+03</pdfrwt>
<totfact> 0.43227593E+04</totfact>
</mgrwt>
</event>
<event>
12    1  0.2769346E-001  0.1935750E+03  0.7546771E-02  0.1156124E+00
         21   -1    0    0  504  503  0.00000000000E+00  0.00000000000E+00  0.38019409969E+03  0.38019409969E+03  0.00000000000E+00 0.  1.
         21   -1    0    0  502  504 -0.00000000000E+00 -0.00000000000E+00 -0.52475070442E+03  0.52475070442E+03  0.00000000000E+00 0. -1.
          6    2    1    2  502    0 -0.58153818329E+02  0.61730319670E+02 -0.48110346302E+03  0.51858635594E+03  0.17400795236E+03 0.  0.
         24    2    3    3    0    0  0.13430936726E+02  0.69824624629E+02 -0.18747245379E+03  0.21621050619E+03  0.80902371982E+02 0.  0.
         -6    2    1    2    0  503  0.58153818329E+02 -0.61730319670E+02  0.33654685830E+03  0.38635844817E+03  0.16975442172E+03 0.  0.
        -24    2    5    5    0    0 -0.12699720487E+02 -0.37881851153E+02  0.84317127391E+02  0.12324079281E+03  0.80514579379E+02 0.  0.
          2    1    4    4  501    0  0.27277451472E+02 -0.79616553985E+01 -0.42901266228E+02  0.51458390564E+02  0.00000000000E+00 0. -1.
         -1    1    4    4    0  501 -0.13846514746E+02  0.77786280027E+02 -0.14457118756E+03  0.16475211563E+03  0.00000000000E+00 0.  1.
          5    1    3    3  502    0 -0.71584755056E+02 -0.80943049592E+01 -0.29363100923E+03  0.30237584975E+03  0.47000000000E+01 0. -1.
         13    1    6    6    0    0  0.32648917170E+01 -0.60880921673E+02  0.65635376484E+02  0.89583194785E+02  0.00000000000E+00 0. -1.
        -14    1    6    6    0    0 -0.15964612204E+02  0.22999070520E+02  0.18681750907E+02  0.33657598021E+02  0.00000000000E+00 0.  1.
         -5    1    5    5    0  503  0.70853538816E+02 -0.23848468517E+02  0.25222973090E+03  0.26311765537E+03  0.47000000000E+01 0.  1.
<mgrwt>
<rscale>  2 0.19261423E+03</rscale>
<asrwt>0</asrwt>
<pdfrwt beam="1">  1       21 0.58491400E-01 0.19357496E+03</pdfrwt>
<pdfrwt beam="2">  1       21 0.80730877E-01 0.19357496E+03</pdfrwt>
<totfact> 0.36844633E+03</totfact>
</mgrwt>
</event>
<event>
12    1  0.2769346E-001  0.1887300E+03  0.7546771E-02  0.1159990E+00
         21   -1    0    0  504  503  0.00000000000E+00  0.00000000000E+00  0.17214662973E+02  0.17214662973E+02  0.00000000000E+00 0. -1.
         21   -1    0    0  502  504 -0.00000000000E+00 -0.00000000000E+00 -0.22475481642E+04  0.22475481642E+04  0.00000000000E+00 0.  1.
          6    2    1    2  502    0  0.68360281729E+02 -0.25526844742E+02 -0.14455543769E+04  0.14576089975E+04  0.17225500030E+03 0.  0.
         24    2    3    3    0    0  0.97227973553E+02 -0.60080670137E+02 -0.10257031707E+04  0.10353242171E+04  0.82257365700E+02 0.  0.
         -6    2    1    2    0  503 -0.68360281729E+02  0.25526844742E+02 -0.78477912435E+03  0.80715382968E+03  0.17405252897E+03 0.  0.
        -24    2    5    5    0    0 -0.35511898154E+02  0.16363829587E+01 -0.17912024620E+03  0.20011632084E+03  0.81845626682E+02 0.  0.
          2    1    4    4  501    0  0.42935586529E+02 -0.38218599774E+02 -0.21629587157E+03  0.22380355229E+03  0.00000000000E+00 0. -1.
         -1    1    4    4    0  501  0.54292387024E+02 -0.21862070363E+02 -0.80940729917E+03  0.81152066478E+03  0.00000000000E+00 0.  1.
          5    1    3    3  502    0 -0.28867691825E+02  0.34553825395E+02 -0.41985120614E+03  0.42228478042E+03  0.47000000000E+01 0. -1.
         13    1    6    6    0    0 -0.43866461893E+01 -0.37522533051E+02 -0.95157234791E+02  0.10238204181E+03  0.00000000000E+00 0. -1.
        -14    1    6    6    0    0 -0.31125251964E+02  0.39158916009E+02 -0.83963011407E+02  0.97734279030E+02  0.00000000000E+00 0.  1.
         -5    1    5    5    0  503 -0.32848383575E+02  0.23890461783E+02 -0.60565887815E+03  0.60703750885E+03  0.47000000000E+01 0.  1.
<mgrwt>
<rscale>  2 0.18831457E+03</rscale>
<asrwt>0</asrwt>
<pdfrwt beam="1">  1       21 0.26484108E-02 0.18873005E+03</pdfrwt>
<pdfrwt beam="2">  1       21 0.34577650E+00 0.18873005E+03</pdfrwt>
<totfact> 0.14459066E+04</totfact>
</mgrwt>
</event>
<event>
12    1  0.2769346E-001  0.1838505E+03  0.7546771E-02  0.1164190E+00
         21   -1    0    0  504  503  0.00000000000E+00  0.00000000000E+00  0.11502314335E+03  0.11502314335E+03  0.00000000000E+00 0. -1.
         21   -1    0    0  502  504 -0.00000000000E+00 -0.00000000000E+00 -0.29364632522E+03  0.29364632522E+03  0.00000000000E+00 0. -1.
          6    2    1    2  502    0  0.27425511160E+02 -0.61071364428E+02 -0.83829734119E+02  0.20181972076E+03  0.17094415798E+03 0.  0.
         24    2    3    3    0    0  0.22607927633E+01 -0.10437091890E+03 -0.48002909205E+02  0.14006402585E+03  0.80095269203E+02 0.  0.
         -6    2    1    2    0  503 -0.27425511160E+02  0.61071364428E+02 -0.94793447756E+02  0.20684974782E+03  0.17122835694E+03 0.  0.
        -24    2    5    5    0    0 -0.58321158163E+02  0.99326805755E+02 -0.72643028264E+02  0.15271333790E+03  0.69117162753E+02 0.  0.
          4    1    4    4  501    0 -0.37314888364E+02 -0.68534032359E+02 -0.25131137079E+02  0.81981025463E+02  0.00000000000E+00 0. -1.
         -3    1    4    4    0  501  0.39575681128E+02 -0.35836886544E+02 -0.22871772126E+02  0.58083000388E+02  0.00000000000E+00 0.  1.
          5    1    3    3  502    0  0.25164718396E+02  0.43299554476E+02 -0.35826824914E+02  0.61755694905E+02  0.47000000000E+01 0. -1.
         11    1    6    6    0    0  0.13247859811E+02  0.20111131433E+01 -0.52898402399E+01  0.14405997897E+02  0.00000000000E+00 0. -1.
        -12    1    6    6    0    0 -0.71569017974E+02  0.97315692612E+02 -0.67353188024E+02  0.13830734001E+03  0.00000000000E+00 0.  1.
         -5    1    5    5    0  503  0.30895647003E+02 -0.38255441328E+02 -0.22150419492E+02  0.54136409916E+02  0.47000000000E+01 0.  1.
<mgrwt>
<rscale>  2 0.18378434E+03</rscale>
<asrwt>0</asrwt>
<pdfrwt beam="1">  1       21 0.17695868E-01 0.18385054E+03</pdfrwt>
<pdfrwt beam="2">  1       21 0.45176358E-01 0.18385054E+03</pdfrwt>
<totfact> 0.13659938E+05</totfact>
</mgrwt>
</event>
<event>
12    1  0.2769346E-001  0.1976083E+03  0.7546771E-02  0.1151957E+00
         21   -1    0    0  504  503  0.00000000000E+00  0.00000000000E+00  0.32280437938E+03  0.32280437938E+03  0.00000000000E+00 0. -1.
         21   -1    0    0  502  504 -0.00000000000E+00 -0.00000000000E+00 -0.12395541384E+03  0.12395541384E+03  0.00000000000E+00 0. -1.
          6    2    1    2  502    0  0.29844528072E+02  0.88813638446E+02  0.13723820485E+03  0.24058960422E+03  0.17398412157E+03 0.  0.
         24    2    3    3    0    0  0.39807458531E+02  0.42585461704E+02  0.36928895899E+01  0.98840722263E+02  0.79735159376E+02 0.  0.
         -6    2    1    2    0  503 -0.29844528072E+02 -0.88813638446E+02  0.61610760683E+02  0.20617018900E+03  0.17300781130E+03 0.  0.
        -24    2    5    5    0    0 -0.82095338705E+02 -0.85215050095E+02  0.34189813760E+02  0.14686508484E+03  0.79994752199E+02 0.  0.
          2    1    4    4  501    0  0.52484368304E+02  0.47088827370E+02 -0.18490984021E+02  0.72896385846E+02  0.00000000000E+00 0. -1.
         -1    1    4    4    0  501 -0.12676909774E+02 -0.45033656657E+01  0.22183873611E+02  0.25944336417E+02  0.00000000000E+00 0.  1.
          5    1    3    3  502    0 -0.99629304589E+01  0.46228176742E+02  0.13354531526E+03  0.14174888196E+03  0.47000000000E+01 0. -1.
         11    1    6    6    0    0 -0.74410262189E+02 -0.22314105451E+02  0.72967433276E+01  0.78025950070E+02  0.00000000000E+00 0. -1.
        -12    1    6    6    0    0 -0.76850765155E+01 -0.62900944643E+02  0.26893070432E+02  0.68839134766E+02  0.00000000000E+00 0.  1.
         -5    1    5    5    0  503  0.52250810633E+02 -0.35985883519E+01  0.27420946923E+02  0.59305104166E+02  0.47000000000E+01 0.  1.
<mgrwt>
<rscale>  2 0.19739317E+03</rscale>
<asrwt>0</asrwt>
<pdfrwt beam="1">  1       21 0.49662212E-01 0.19760828E+03</pdfrwt>
<pdfrwt beam="2">  1       21 0.19070064E-01 0.19760828E+03</pdfrwt>
<totfact> 0.97290379E+04</totfact>
</mgrwt>
</event>
